/*--------------------------------*- C++ -*----------------------------------*\
| =========                 |                                                 |
| \\      /  F ield         | OpenFOAM: The Open Source CFD Toolbox           |
|  \\    /   O peration     | Version:  v2012                                 |
|   \\  /    A nd           | Website:  www.openfoam.com                      |
|    \\/     M anipulation  |                                                 |
\*---------------------------------------------------------------------------*/
FoamFile
{
    version     2.0;
    format      ascii;
    class       volScalarField;
    location    "50/asphalt";
    object      T;
}
// * * * * * * * * * * * * * * * * * * * * * * * * * * * * * * * * * * * * * //

dimensions      [0 0 0 1 0 0 0];


internalField   nonuniform List<scalar> 
1980
(
312.211
311.633
310.902
310.354
310.051
309.889
309.785
309.706
309.641
309.588
309.541
309.492
309.434
309.363
309.28
309.196
309.122
309.065
309.025
308.996
308.971
308.943
308.913
308.884
308.857
308.833
308.803
308.768
308.723
308.666
308.608
308.552
308.507
308.475
308.453
308.438
308.423
308.411
308.402
308.395
308.389
308.384
308.382
308.385
308.402
308.432
308.473
308.517
308.55
308.559
308.538
308.493
308.441
308.399
308.378
308.379
308.391
308.406
308.493
308.541
308.548
308.546
308.473
308.436
308.444
308.471
308.52
308.6
308.712
308.836
308.947
309.021
309.049
309.04
309.016
309.001
309.011
309.05
309.109
309.178
309.249
309.32
309.394
309.484
309.615
309.851
310.292
310.986
311.799
312.608
312.307
311.736
311.018
310.482
310.189
310.035
309.939
309.865
309.803
309.749
309.697
309.641
309.576
309.502
309.423
309.348
309.285
309.237
309.203
309.175
309.148
309.117
309.085
309.054
309.027
309.003
308.972
308.934
308.887
308.831
308.776
308.726
308.686
308.657
308.636
308.621
308.605
308.592
308.583
308.575
308.565
308.556
308.552
308.56
308.59
308.636
308.688
308.729
308.745
308.728
308.683
308.626
308.575
308.545
308.539
308.549
308.565
308.583
308.672
308.726
308.74
308.744
308.679
308.648
308.657
308.681
308.719
308.783
308.878
308.995
309.111
309.203
309.254
309.264
309.25
309.234
309.236
309.264
309.317
309.383
309.453
309.524
309.596
309.682
309.808
310.036
310.466
311.15
311.953
312.748
312.441
311.883
311.184
310.666
310.389
310.248
310.16
310.093
310.033
309.977
309.92
309.859
309.791
309.718
309.646
309.58
309.527
309.486
309.454
309.425
309.393
309.358
309.323
309.29
309.262
309.235
309.203
309.164
309.117
309.063
309.012
308.969
308.934
308.908
308.888
308.873
308.855
308.843
308.834
308.825
308.814
308.805
308.804
308.819
308.86
308.916
308.97
309.003
309.001
308.962
308.901
308.838
308.794
308.775
308.78
308.795
308.813
308.832
308.916
308.971
308.991
309
308.948
308.924
308.936
308.96
308.991
309.041
309.118
309.219
309.331
309.43
309.499
309.529
309.529
309.518
309.516
309.535
309.579
309.64
309.709
309.778
309.849
309.931
310.049
310.266
310.682
311.349
312.136
312.913
312.617
312.079
311.408
310.918
310.664
310.541
310.466
310.405
310.348
310.291
310.232
310.168
310.101
310.034
309.97
309.914
309.867
309.83
309.797
309.764
309.728
309.688
309.649
309.614
309.583
309.554
309.521
309.481
309.435
309.385
309.34
309.301
309.27
309.246
309.226
309.209
309.193
309.18
309.172
309.163
309.153
309.146
309.152
309.176
309.225
309.284
309.333
309.352
309.331
309.277
309.208
309.148
309.113
309.105
309.116
309.133
309.151
309.17
309.243
309.295
309.317
309.331
309.295
309.28
309.295
309.32
309.348
309.389
309.449
309.531
309.63
309.728
309.806
309.853
309.87
309.868
309.867
309.881
309.917
309.972
310.037
310.104
310.173
310.249
310.358
310.56
310.955
311.598
312.362
313.113
312.839
312.33
311.701
311.253
311.035
310.937
310.877
310.824
310.771
310.715
310.657
310.596
310.535
310.475
310.42
310.371
310.33
310.294
310.26
310.223
310.182
310.138
310.096
310.059
310.026
309.995
309.962
309.922
309.879
309.834
309.793
309.758
309.73
309.706
309.685
309.669
309.653
309.641
309.632
309.623
309.616
309.615
309.63
309.664
309.717
309.772
309.808
309.809
309.773
309.71
309.642
309.59
309.565
309.565
309.578
309.595
309.611
309.629
309.688
309.734
309.757
309.774
309.754
309.748
309.766
309.792
309.82
309.855
309.903
309.968
310.05
310.139
310.219
310.278
310.31
310.321
310.325
310.338
310.368
310.416
310.476
310.541
310.606
310.676
310.772
310.952
311.317
311.924
312.656
313.375
313.12
312.654
312.088
311.706
311.539
311.473
311.43
311.387
311.34
311.29
311.237
311.183
311.13
311.079
311.033
310.991
310.953
310.917
310.881
310.842
310.798
310.753
310.709
310.671
310.637
310.606
310.574
310.538
310.498
310.459
310.423
310.39
310.363
310.339
310.319
310.303
310.288
310.277
310.268
310.26
310.257
310.263
310.287
310.327
310.379
310.424
310.443
310.427
310.378
310.313
310.253
310.212
310.197
310.201
310.214
310.228
310.243
310.26
310.304
310.341
310.364
310.382
310.377
310.38
310.4
310.427
310.456
310.49
310.53
310.581
310.646
310.721
310.797
310.861
310.905
310.929
310.943
310.958
310.985
311.028
311.082
311.142
311.203
311.265
311.346
311.497
311.816
312.369
313.05
313.729
313.488
313.087
312.624
312.339
312.238
312.208
312.184
312.152
312.115
312.073
312.03
311.985
311.942
311.901
311.862
311.826
311.791
311.757
311.721
311.681
311.637
311.592
311.55
311.512
311.48
311.451
311.421
311.39
311.356
311.322
311.289
311.259
311.233
311.21
311.19
311.175
311.162
311.151
311.142
311.136
311.137
311.151
311.181
311.225
311.271
311.302
311.303
311.271
311.216
311.154
311.104
311.076
311.069
311.074
311.084
311.096
311.108
311.124
311.154
311.183
311.205
311.223
311.23
311.241
311.261
311.288
311.319
311.352
311.388
311.43
311.481
311.542
311.608
311.671
311.722
311.758
311.782
311.803
311.83
311.868
311.918
311.973
312.029
312.084
312.148
312.261
312.516
312.986
313.586
314.208
313.979
313.68
313.37
313.213
313.184
313.187
313.181
313.164
313.139
313.11
313.079
313.046
313.014
312.982
312.951
312.921
312.891
312.86
312.827
312.789
312.748
312.706
312.667
312.633
312.604
312.578
312.552
312.526
312.497
312.468
312.438
312.41
312.384
312.362
312.343
312.328
312.317
312.307
312.299
312.296
312.302
312.322
312.356
312.398
312.434
312.449
312.434
312.392
312.336
312.282
312.245
312.227
312.224
312.229
312.237
312.245
312.256
312.271
312.29
312.311
312.33
312.348
312.363
312.379
312.4
312.426
312.457
312.49
312.525
312.562
312.602
312.649
312.704
312.761
312.813
312.857
312.89
312.919
312.949
312.986
313.031
313.08
313.132
313.182
313.232
313.308
313.483
313.834
314.306
314.836
314.581
314.423
314.3
314.272
314.302
314.33
314.341
314.34
314.332
314.318
314.3
314.28
314.26
314.239
314.217
314.195
314.172
314.148
314.121
314.09
314.056
314.02
313.986
313.957
313.933
313.911
313.89
313.867
313.842
313.816
313.789
313.762
313.737
313.716
313.698
313.684
313.673
313.664
313.658
313.658
313.669
313.693
313.727
313.763
313.787
313.787
313.762
313.716
313.664
313.621
313.595
313.585
313.585
313.589
313.594
313.601
313.61
313.624
313.635
313.65
313.667
313.684
313.704
313.722
313.742
313.766
313.796
313.829
313.863
313.897
313.93
313.967
314.009
314.058
314.107
314.154
314.194
314.229
314.264
314.301
314.343
314.389
314.436
314.483
314.525
314.575
314.676
314.889
315.19
315.587
315.148
315.129
315.16
315.218
315.28
315.323
315.349
315.365
315.372
315.373
315.369
315.362
315.354
315.343
315.332
315.319
315.306
315.291
315.273
315.252
315.226
315.198
315.171
315.147
315.127
315.109
315.091
315.072
315.049
315.025
314.999
314.973
314.949
314.929
314.912
314.898
314.888
314.88
314.877
314.88
314.895
314.921
314.953
314.981
314.992
314.981
314.949
314.905
314.861
314.829
314.811
314.806
314.807
314.809
314.813
314.819
314.828
314.84
314.848
314.859
314.875
314.89
314.911
314.931
314.949
314.97
314.997
315.028
315.06
315.091
315.118
315.146
315.178
315.216
315.259
315.304
315.347
315.387
315.424
315.463
315.503
315.545
315.588
315.632
315.673
315.714
315.77
315.871
316.014
316.274
315.463
315.508
315.597
315.682
315.754
315.807
315.845
315.872
315.89
315.9
315.905
315.907
315.905
315.901
315.896
315.889
315.881
315.872
315.86
315.844
315.823
315.799
315.776
315.755
315.737
315.72
315.703
315.684
315.662
315.637
315.611
315.585
315.561
315.54
315.523
315.509
315.499
315.493
315.492
315.499
315.514
315.536
315.558
315.572
315.571
315.551
315.519
315.484
315.454
315.434
315.424
315.421
315.42
315.422
315.425
315.431
315.44
315.452
315.459
315.47
315.484
315.497
315.517
315.535
315.55
315.568
315.591
315.618
315.646
315.672
315.694
315.714
315.735
315.762
315.795
315.833
315.874
315.915
315.956
315.996
316.036
316.075
316.115
316.155
316.196
316.237
316.279
316.328
316.396
316.569
314.498
314.009
313.302
312.743
312.445
312.31
312.245
312.208
312.184
312.17
312.158
312.141
312.111
312.063
312.003
311.941
311.89
311.859
311.846
311.843
311.841
311.834
311.82
311.802
311.784
311.765
311.741
311.709
311.667
311.612
311.554
311.499
311.454
311.422
311.4
311.385
311.367
311.352
311.342
311.334
311.328
311.322
311.317
311.317
311.333
311.36
311.396
311.432
311.457
311.456
311.427
311.377
311.321
311.278
311.257
311.257
311.268
311.282
311.339
311.37
311.374
311.37
311.323
311.298
311.299
311.313
311.346
311.408
311.5
311.603
311.693
311.746
311.753
311.724
311.681
311.65
311.644
311.667
311.71
311.762
311.814
311.865
311.921
311.997
312.128
312.387
312.883
313.641
314.474
315.292
314.606
314.126
313.435
312.891
312.605
312.48
312.424
312.393
312.372
312.357
312.34
312.315
312.278
312.227
312.17
312.117
312.078
312.056
312.048
312.046
312.042
312.032
312.015
311.997
311.979
311.96
311.935
311.902
311.857
311.802
311.747
311.698
311.659
311.631
311.611
311.595
311.577
311.564
311.554
311.545
311.534
311.523
311.517
311.521
311.548
311.59
311.637
311.672
311.679
311.653
311.6
311.537
311.483
311.451
311.444
311.452
311.467
311.483
311.544
311.581
311.591
311.593
311.551
311.53
311.533
311.545
311.568
311.615
311.69
311.786
311.883
311.955
311.986
311.977
311.945
311.912
311.897
311.91
311.946
311.995
312.046
312.097
312.151
312.223
312.346
312.596
313.079
313.823
314.645
315.445
314.758
314.294
313.625
313.103
312.836
312.727
312.681
312.657
312.639
312.622
312.6
312.569
312.529
312.48
312.429
312.386
312.356
312.34
312.334
312.33
312.322
312.308
312.289
312.269
312.25
312.23
312.204
312.168
312.123
312.071
312.021
311.978
311.945
311.919
311.899
311.883
311.866
311.853
311.844
311.834
311.822
311.81
311.806
311.818
311.855
311.906
311.955
311.982
311.971
311.923
311.854
311.785
311.736
311.716
311.718
311.732
311.747
311.764
311.822
311.863
311.878
311.885
311.852
311.835
311.842
311.854
311.871
311.904
311.961
312.042
312.133
312.214
312.264
312.276
312.259
312.23
312.211
312.215
312.243
312.287
312.337
312.387
312.438
312.504
312.618
312.853
313.319
314.043
314.847
315.624
314.953
314.513
313.877
313.388
313.15
313.063
313.032
313.015
313
312.982
312.957
312.925
312.885
312.841
312.799
312.765
312.741
312.729
312.722
312.714
312.702
312.683
312.661
312.639
312.618
312.597
312.569
312.533
312.489
312.441
312.397
312.359
312.33
312.306
312.285
312.269
312.253
312.241
312.232
312.222
312.21
312.201
312.203
312.224
312.269
312.323
312.366
312.378
312.349
312.285
312.208
312.141
312.101
312.091
312.099
312.114
312.129
312.145
312.197
312.236
312.255
312.266
312.243
312.233
312.242
312.256
312.27
312.293
312.333
312.395
312.473
312.552
312.613
312.643
312.644
312.625
312.608
312.605
312.625
312.663
312.71
312.758
312.806
312.866
312.967
313.183
313.623
314.319
315.095
315.844
315.194
314.787
314.199
313.761
313.566
313.509
313.496
313.489
313.479
313.462
313.438
313.408
313.374
313.338
313.304
313.278
313.259
313.248
313.239
313.229
313.212
313.19
313.166
313.142
313.12
313.096
313.068
313.033
312.992
312.95
312.91
312.877
312.849
312.826
312.806
312.789
312.775
312.764
312.754
312.744
312.735
312.732
312.743
312.774
312.823
312.874
312.904
312.897
312.851
312.778
312.702
312.644
312.614
312.611
312.621
312.635
312.648
312.664
312.706
312.741
312.761
312.774
312.763
312.76
312.771
312.786
312.801
312.819
312.846
312.89
312.951
313.02
313.083
313.126
313.143
313.139
313.127
313.124
313.138
313.169
313.211
313.256
313.301
313.353
313.438
313.627
314.029
314.683
315.422
316.134
315.495
315.134
314.62
314.26
314.126
314.108
314.115
314.119
314.115
314.104
314.085
314.062
314.036
314.01
313.985
313.965
313.951
313.94
313.931
313.918
313.899
313.876
313.851
313.827
313.804
313.78
313.753
313.721
313.685
313.648
313.614
313.584
313.557
313.535
313.515
313.5
313.487
313.476
313.467
313.458
313.452
313.457
313.478
313.518
313.566
313.607
313.62
313.594
313.536
313.461
313.392
313.346
313.327
313.327
313.337
313.348
313.36
313.375
313.407
313.436
313.455
313.47
313.469
313.472
313.485
313.502
313.518
313.534
313.554
313.584
313.627
313.682
313.74
313.788
313.818
313.828
313.827
313.827
313.838
313.864
313.901
313.942
313.983
314.025
314.091
314.243
314.589
315.18
315.862
316.53
315.889
315.598
315.199
314.952
314.898
314.921
314.949
314.965
314.971
314.968
314.959
314.946
314.931
314.914
314.898
314.885
314.874
314.866
314.857
314.844
314.826
314.804
314.78
314.757
314.736
314.714
314.691
314.663
314.632
314.602
314.571
314.543
314.518
314.496
314.478
314.464
314.452
314.442
314.433
314.426
314.426
314.439
314.469
314.512
314.556
314.582
314.576
314.536
314.47
314.4
314.343
314.31
314.299
314.301
314.308
314.317
314.327
314.341
314.363
314.385
314.404
314.419
314.427
314.436
314.449
314.465
314.483
314.5
314.517
314.537
314.565
314.604
314.652
314.699
314.736
314.759
314.769
314.776
314.788
314.81
314.842
314.879
314.915
314.949
314.994
315.101
315.369
315.862
316.455
317.062
316.411
316.225
315.994
315.894
315.922
315.982
316.028
316.059
316.078
316.088
316.092
316.091
316.088
316.082
316.074
316.067
316.062
316.057
316.052
316.042
316.027
316.009
315.989
315.97
315.952
315.933
315.914
315.891
315.866
315.84
315.813
315.786
315.763
315.742
315.725
315.711
315.701
315.692
315.684
315.68
315.686
315.706
315.741
315.783
315.817
315.828
315.806
315.755
315.69
315.628
315.585
315.563
315.558
315.56
315.565
315.571
315.58
315.592
315.606
315.623
315.639
315.654
315.668
315.681
315.694
315.71
315.727
315.745
315.761
315.775
315.793
315.818
315.853
315.894
315.933
315.964
315.985
315.999
316.015
316.036
316.064
316.096
316.129
316.158
316.187
316.248
316.423
316.779
317.232
317.742
317.031
316.986
316.954
316.995
317.086
317.171
317.233
317.279
317.314
317.34
317.359
317.371
317.38
317.385
317.387
317.388
317.39
317.393
317.394
317.391
317.383
317.371
317.356
317.342
317.329
317.315
317.3
317.282
317.261
317.238
317.213
317.188
317.166
317.146
317.13
317.118
317.108
317.1
317.095
317.095
317.106
317.131
317.167
317.203
317.225
317.221
317.188
317.134
317.074
317.025
316.994
316.981
316.978
316.979
316.982
316.987
316.995
317.007
317.015
317.027
317.042
317.056
317.073
317.087
317.1
317.114
317.131
317.149
317.164
317.176
317.187
317.202
317.224
317.256
317.292
317.326
317.354
317.376
317.397
317.419
317.444
317.473
317.502
317.529
317.551
317.583
317.672
317.874
318.146
318.519
317.575
317.662
317.785
317.912
318.033
318.13
318.206
318.268
318.318
318.358
318.39
318.415
318.434
318.449
318.46
318.47
318.481
318.493
318.504
318.51
318.51
318.505
318.497
318.488
318.479
318.47
318.459
318.445
318.427
318.405
318.382
318.358
318.337
318.318
318.303
318.291
318.283
318.276
318.273
318.278
318.294
318.321
318.354
318.383
318.393
318.377
318.338
318.285
318.235
318.197
318.176
318.168
318.166
318.167
318.169
318.173
318.18
318.192
318.197
318.207
318.22
318.233
318.251
318.265
318.276
318.289
318.304
318.32
318.335
318.345
318.351
318.357
318.369
318.39
318.42
318.453
318.485
318.513
318.537
318.561
318.585
318.61
318.635
318.661
318.684
318.708
318.747
318.83
318.943
319.18
317.831
317.974
318.146
318.295
318.423
318.528
318.614
318.686
318.745
318.794
318.833
318.864
318.888
318.908
318.923
318.938
318.954
318.971
318.987
318.998
319.003
319.002
318.997
318.991
318.984
318.976
318.966
318.952
318.934
318.912
318.888
318.864
318.842
318.823
318.808
318.795
318.787
318.782
318.782
318.79
318.807
318.83
318.853
318.866
318.861
318.836
318.799
318.757
318.722
318.698
318.685
318.679
318.676
318.675
318.677
318.682
318.69
318.701
318.707
318.716
318.728
318.739
318.754
318.766
318.775
318.785
318.797
318.81
318.821
318.828
318.829
318.828
318.83
318.84
318.86
318.887
318.919
318.95
318.979
319.006
319.031
319.054
319.076
319.099
319.123
319.148
319.174
319.206
319.25
319.402
)
;

boundaryField
{
    inlet
    {
        type            zeroGradient;
    }
    outlet
    {
        type            zeroGradient;
    }
    side
    {
        type            zeroGradient;
    }
    asphalt_to_soil1
    {
        type            compressible::turbulentTemperatureRadCoupledMixed;
        refValue        nonuniform List<scalar> 
990
(
310.335
309.713
308.987
308.454
308.147
307.962
307.829
307.717
307.621
307.536
307.46
307.387
307.309
307.221
307.124
307.025
306.934
306.856
306.794
306.742
306.696
306.651
306.608
306.569
306.535
306.507
306.474
306.438
306.394
306.34
306.285
306.233
306.194
306.163
306.141
306.126
306.112
306.1
306.089
306.08
306.072
306.066
306.063
306.066
306.081
306.111
306.154
306.201
306.24
306.256
306.243
306.208
306.163
306.127
306.111
306.114
306.127
306.144
306.249
306.308
306.318
306.316
306.227
306.183
306.196
306.231
306.29
306.381
306.502
306.638
306.761
306.851
306.898
306.909
306.905
306.907
306.932
306.983
307.054
307.137
307.222
307.308
307.397
307.499
307.633
307.853
308.25
308.883
309.658
310.439
310.42
309.806
309.089
308.567
308.268
308.091
307.964
307.857
307.763
307.678
307.599
307.519
307.434
307.344
307.251
307.161
307.08
307.012
306.955
306.905
306.856
306.809
306.764
306.724
306.69
306.661
306.627
306.588
306.542
306.488
306.437
306.39
306.352
306.324
306.303
306.288
306.271
306.258
306.247
306.236
306.224
306.215
306.211
306.219
306.248
306.293
306.346
306.39
306.413
306.404
306.369
306.322
306.28
306.255
306.252
306.265
306.283
306.303
306.41
306.474
306.491
306.494
306.416
306.378
306.391
306.423
306.471
306.546
306.651
306.779
306.907
307.013
307.08
307.109
307.113
307.114
307.131
307.172
307.237
307.316
307.4
307.486
307.573
307.672
307.802
308.015
308.403
309.027
309.794
310.564
310.539
309.935
309.234
308.727
308.442
308.275
308.155
308.054
307.963
307.877
307.793
307.709
307.622
307.533
307.446
307.365
307.294
307.233
307.178
307.127
307.075
307.024
306.976
306.934
306.898
306.867
306.832
306.791
306.745
306.693
306.646
306.605
306.572
306.546
306.527
306.51
306.492
306.478
306.467
306.456
306.443
306.433
306.432
306.448
306.488
306.543
306.598
306.635
306.64
306.612
306.562
306.51
306.474
306.461
306.469
306.487
306.507
306.529
306.627
306.691
306.712
306.722
306.659
306.63
306.646
306.677
306.718
306.779
306.867
306.98
307.103
307.216
307.299
307.345
307.362
307.367
307.38
307.413
307.47
307.544
307.626
307.711
307.797
307.891
308.015
308.22
308.596
309.206
309.959
310.714
310.695
310.108
309.431
308.948
308.683
308.531
308.422
308.327
308.238
308.151
308.066
307.98
307.894
307.811
307.732
307.66
307.596
307.539
307.484
307.43
307.374
307.318
307.266
307.221
307.183
307.15
307.113
307.072
307.027
306.979
306.936
306.9
306.87
306.846
306.826
306.809
306.79
306.776
306.765
306.753
306.742
306.735
306.74
306.764
306.813
306.871
306.921
306.946
306.934
306.892
306.836
306.787
306.76
306.757
306.771
306.791
306.812
306.833
306.918
306.977
307.001
307.015
306.971
306.952
306.971
307.003
307.041
307.092
307.165
307.261
307.372
307.483
307.575
307.637
307.668
307.681
307.694
307.723
307.772
307.84
307.919
308.001
308.084
308.175
308.291
308.483
308.842
309.432
310.166
310.899
310.897
310.336
309.695
309.248
309.013
308.882
308.785
308.697
308.612
308.528
308.443
308.361
308.281
308.205
308.135
308.071
308.012
307.955
307.899
307.841
307.781
307.722
307.667
307.619
307.579
307.544
307.507
307.467
307.424
307.381
307.342
307.308
307.28
307.257
307.236
307.218
307.201
307.186
307.175
307.164
307.155
307.154
307.167
307.199
307.251
307.306
307.345
307.354
307.328
307.278
307.223
307.182
307.164
307.169
307.186
307.205
307.225
307.245
307.313
307.364
307.39
307.407
307.381
307.373
307.395
307.428
307.466
307.512
307.573
307.653
307.749
307.852
307.946
308.017
308.062
308.086
308.104
308.13
308.174
308.236
308.309
308.388
308.469
308.554
308.66
308.835
309.168
309.728
310.432
311.138
311.157
310.634
310.05
309.66
309.467
309.363
309.282
309.203
309.124
309.044
308.966
308.889
308.817
308.751
308.689
308.63
308.575
308.519
308.461
308.4
308.337
308.276
308.219
308.171
308.13
308.094
308.059
308.021
307.982
307.944
307.909
307.878
307.851
307.827
307.806
307.789
307.772
307.758
307.746
307.736
307.731
307.735
307.756
307.795
307.845
307.891
307.914
307.906
307.869
307.817
307.768
307.738
307.729
307.738
307.754
307.772
307.789
307.809
307.86
307.901
307.926
307.945
307.936
307.938
307.962
307.996
308.034
308.079
308.133
308.2
308.281
308.372
308.461
308.537
308.593
308.629
308.654
308.682
308.722
308.778
308.846
308.92
308.997
309.075
309.168
309.319
309.615
310.129
310.788
311.457
311.499
311.037
310.544
310.237
310.101
310.028
309.964
309.896
309.826
309.756
309.686
309.619
309.556
309.498
309.443
309.39
309.337
309.283
309.224
309.163
309.099
309.037
308.981
308.934
308.894
308.86
308.827
308.794
308.76
308.727
308.695
308.666
308.64
308.616
308.596
308.579
308.563
308.549
308.537
308.529
308.527
308.538
308.565
308.605
308.649
308.681
308.688
308.666
308.622
308.573
308.533
308.513
308.512
308.521
308.536
308.55
308.566
308.583
308.619
308.651
308.673
308.693
308.697
308.709
308.734
308.767
308.806
308.851
308.901
308.959
309.028
309.105
309.186
309.262
309.323
309.369
309.404
309.436
309.476
309.527
309.589
309.659
309.73
309.802
309.881
310.001
310.243
310.685
311.273
311.888
311.959
311.593
311.237
311.042
310.969
310.927
310.88
310.826
310.769
310.71
310.652
310.596
310.543
310.494
310.446
310.398
310.349
310.298
310.242
310.182
310.121
310.062
310.009
309.964
309.928
309.896
309.868
309.839
309.81
309.78
309.751
309.724
309.699
309.676
309.656
309.639
309.624
309.611
309.6
309.594
309.596
309.612
309.641
309.679
309.714
309.731
309.722
309.69
309.646
309.603
309.574
309.563
309.566
309.575
309.586
309.598
309.612
309.628
309.651
309.674
309.694
309.712
309.727
309.744
309.769
309.801
309.841
309.885
309.934
309.987
310.045
310.111
310.181
310.251
310.315
310.367
310.41
310.449
310.491
310.54
310.598
310.661
310.728
310.794
310.86
310.949
311.124
311.462
311.934
312.466
312.534
312.303
312.12
312.042
312.024
312.007
311.978
311.94
311.898
311.854
311.808
311.765
311.723
311.684
311.645
311.605
311.563
311.518
311.468
311.415
311.36
311.308
311.26
311.221
311.188
311.16
311.136
311.111
311.085
311.058
311.031
311.005
310.98
310.958
310.939
310.923
310.909
310.896
310.887
310.883
310.889
310.908
310.937
310.969
310.992
310.995
310.976
310.941
310.9
310.866
310.847
310.843
310.848
310.856
310.864
310.874
310.886
310.9
310.914
310.931
310.948
310.965
310.985
311.006
311.03
311.06
311.098
311.142
311.189
311.239
311.291
311.346
311.406
311.468
311.528
311.583
311.632
311.677
311.722
311.771
311.825
311.885
311.947
312.009
312.068
312.132
312.243
312.459
312.773
313.179
313.101
313.009
312.975
312.98
312.994
312.995
312.982
312.961
312.935
312.906
312.875
312.844
312.815
312.787
312.759
312.729
312.697
312.66
312.62
312.576
312.53
312.485
312.445
312.411
312.382
312.358
312.336
312.313
312.289
312.264
312.238
312.213
312.189
312.168
312.149
312.133
312.119
312.108
312.101
312.1
312.109
312.129
312.156
312.18
312.192
312.184
312.159
312.124
312.089
312.065
312.055
312.055
312.06
312.066
312.074
312.082
312.093
312.106
312.115
312.128
312.143
312.159
312.181
312.202
312.224
312.252
312.286
312.327
312.372
312.418
312.463
312.51
312.559
312.611
312.665
312.718
312.769
312.817
312.864
312.913
312.966
313.022
313.079
313.137
313.194
313.249
313.318
313.431
313.595
313.867
313.452
313.429
313.458
313.492
313.52
313.532
313.531
313.523
313.509
313.49
313.469
313.448
313.428
313.408
313.387
313.363
313.337
313.307
313.272
313.234
313.193
313.153
313.116
313.085
313.058
313.036
313.014
312.992
312.969
312.943
312.917
312.892
312.868
312.846
312.827
312.811
312.798
312.788
312.783
312.784
312.794
312.811
312.829
312.841
312.841
312.826
312.8
312.772
312.749
312.736
312.732
312.734
312.738
312.743
312.75
312.758
312.769
312.782
312.79
312.801
312.815
312.83
312.85
312.87
312.89
312.913
312.943
312.979
313.018
313.059
313.099
313.138
313.176
313.217
313.261
313.308
313.355
313.403
313.452
313.501
313.552
313.605
313.658
313.712
313.767
313.821
313.875
313.939
314.025
314.214
)
;
        refGradient     uniform 0;
        valueFraction   nonuniform List<scalar> 
990
(
0.495766
0.495766
0.495766
0.495766
0.495766
0.495766
0.495766
0.495766
0.495766
0.495766
0.495766
0.495766
0.495766
0.495766
0.495766
0.495766
0.495766
0.495766
0.495766
0.495766
0.495766
0.495766
0.495766
0.495766
0.495766
0.495766
0.495766
0.495766
0.495766
0.495766
0.495766
0.495766
0.495766
0.495766
0.495766
0.495766
0.495766
0.495766
0.495766
0.495766
0.495766
0.495766
0.495766
0.495766
0.495766
0.495766
0.495766
0.495766
0.495766
0.495766
0.495766
0.495766
0.495766
0.495766
0.495766
0.495766
0.495766
0.495766
0.495766
0.495766
0.495766
0.495766
0.495766
0.495766
0.495766
0.495766
0.495766
0.495766
0.495766
0.495766
0.495766
0.495766
0.495766
0.495766
0.495766
0.495766
0.495766
0.495766
0.495766
0.495766
0.495766
0.495766
0.495766
0.495766
0.495766
0.495766
0.495766
0.495766
0.495766
0.495766
0.495766
0.495766
0.495766
0.495766
0.495766
0.495766
0.495766
0.495766
0.495766
0.495766
0.495766
0.495766
0.495766
0.495766
0.495766
0.495766
0.495766
0.495766
0.495766
0.495766
0.495766
0.495766
0.495766
0.495766
0.495766
0.495766
0.495766
0.495766
0.495766
0.495766
0.495766
0.495766
0.495766
0.495766
0.495766
0.495766
0.495766
0.495766
0.495766
0.495766
0.495766
0.495766
0.495766
0.495766
0.495766
0.495766
0.495766
0.495766
0.495766
0.495766
0.495766
0.495766
0.495766
0.495766
0.495766
0.495766
0.495766
0.495766
0.495766
0.495766
0.495766
0.495766
0.495766
0.495766
0.495766
0.495766
0.495766
0.495766
0.495766
0.495766
0.495766
0.495766
0.495766
0.495766
0.495766
0.495766
0.495766
0.495766
0.495766
0.495766
0.495766
0.495766
0.495766
0.495766
0.495766
0.495766
0.495766
0.495766
0.495766
0.495766
0.495766
0.495766
0.495766
0.495766
0.495766
0.495766
0.495766
0.495766
0.495766
0.495766
0.495766
0.495766
0.495766
0.495766
0.495766
0.495766
0.495766
0.495766
0.495766
0.495766
0.495766
0.495766
0.495766
0.495766
0.495766
0.495766
0.495766
0.495766
0.495766
0.495766
0.495766
0.495766
0.495766
0.495766
0.495766
0.495766
0.495766
0.495766
0.495766
0.495766
0.495766
0.495766
0.495766
0.495766
0.495766
0.495766
0.495766
0.495766
0.495766
0.495766
0.495766
0.495766
0.495766
0.495766
0.495766
0.495766
0.495766
0.495766
0.495766
0.495766
0.495766
0.495766
0.495766
0.495766
0.495766
0.495766
0.495766
0.495766
0.495766
0.495766
0.495766
0.495766
0.495766
0.495766
0.495766
0.495766
0.495766
0.495766
0.495766
0.495766
0.495766
0.495766
0.495766
0.495766
0.495766
0.495766
0.495766
0.495766
0.495766
0.495766
0.495766
0.495766
0.495766
0.495766
0.495766
0.495766
0.495766
0.495766
0.495766
0.495766
0.495766
0.495766
0.495766
0.495766
0.495766
0.495766
0.495766
0.495766
0.495766
0.495766
0.495766
0.495766
0.495766
0.495766
0.495766
0.495766
0.495766
0.495766
0.495766
0.495766
0.495766
0.495766
0.495766
0.495766
0.495766
0.495766
0.495766
0.495766
0.495766
0.495766
0.495766
0.495766
0.495766
0.495766
0.495766
0.495766
0.495766
0.495766
0.495766
0.495766
0.495766
0.495766
0.495766
0.495766
0.495766
0.495766
0.495766
0.495766
0.495766
0.495766
0.495766
0.495766
0.495766
0.495766
0.495766
0.495766
0.495766
0.495766
0.495766
0.495766
0.495766
0.495766
0.495766
0.495766
0.495766
0.495766
0.495766
0.495766
0.495766
0.495766
0.495766
0.495766
0.495766
0.495766
0.495766
0.495766
0.495766
0.495766
0.495766
0.495766
0.495766
0.495766
0.495766
0.495766
0.495766
0.495766
0.495766
0.495766
0.495766
0.495766
0.495766
0.495766
0.495766
0.495766
0.495766
0.495766
0.495766
0.495766
0.495766
0.495766
0.495766
0.495766
0.495766
0.495766
0.495766
0.495766
0.495766
0.495766
0.495766
0.495766
0.495766
0.495766
0.495766
0.495766
0.495766
0.495766
0.495766
0.495766
0.495766
0.495766
0.495766
0.495766
0.495766
0.495766
0.495766
0.495766
0.495766
0.495766
0.495766
0.495766
0.495766
0.495766
0.495766
0.495766
0.495766
0.495766
0.495766
0.495766
0.495766
0.495766
0.495766
0.495766
0.495766
0.495766
0.495766
0.495766
0.495766
0.495766
0.495766
0.495766
0.495766
0.495766
0.495766
0.495766
0.495766
0.495766
0.495766
0.495766
0.495766
0.495766
0.495766
0.495766
0.495766
0.495766
0.495766
0.495766
0.495766
0.495766
0.495766
0.495766
0.495766
0.495766
0.495766
0.495766
0.495766
0.495766
0.495766
0.495766
0.495766
0.495766
0.495766
0.495766
0.495766
0.495766
0.495766
0.495766
0.495766
0.495766
0.495766
0.495766
0.495766
0.495766
0.495766
0.495766
0.495766
0.495766
0.495766
0.495766
0.495766
0.495766
0.495766
0.495766
0.495766
0.495766
0.495766
0.495766
0.495766
0.495766
0.495766
0.495766
0.495766
0.495766
0.495766
0.495766
0.495766
0.495766
0.495766
0.495766
0.495766
0.495766
0.495766
0.495766
0.495766
0.495766
0.495766
0.495766
0.495766
0.495766
0.495766
0.495766
0.495766
0.495766
0.495766
0.495766
0.495766
0.495766
0.495766
0.495766
0.495766
0.495766
0.495766
0.495766
0.495766
0.495766
0.495766
0.495766
0.495766
0.495766
0.495766
0.495766
0.495766
0.495766
0.495766
0.495766
0.495766
0.495766
0.495766
0.495766
0.495766
0.495766
0.495766
0.495766
0.495766
0.495766
0.495766
0.495766
0.495766
0.495766
0.495766
0.495766
0.495766
0.495766
0.495766
0.495766
0.495766
0.495766
0.495766
0.495766
0.495766
0.495766
0.495766
0.495766
0.495766
0.495766
0.495766
0.495766
0.495766
0.495766
0.495766
0.495766
0.495766
0.495766
0.495766
0.495766
0.495766
0.495766
0.495766
0.495766
0.495766
0.495766
0.495766
0.495766
0.495766