/*--------------------------------*- C++ -*----------------------------------*\
| =========                 |                                                 |
| \\      /  F ield         | OpenFOAM: The Open Source CFD Toolbox           |
|  \\    /   O peration     | Version:  v2012                                 |
|   \\  /    A nd           | Website:  www.openfoam.com                      |
|    \\/     M anipulation  |                                                 |
\*---------------------------------------------------------------------------*/
FoamFile
{
    version     2.0;
    format      ascii;
    class       volScalarField;
    location    "100/asphalt";
    object      T;
}
// * * * * * * * * * * * * * * * * * * * * * * * * * * * * * * * * * * * * * //

dimensions      [0 0 0 1 0 0 0];


internalField   nonuniform List<scalar> 
1980
(
318.225
318.349
318.254
318.007
317.782
317.663
317.641
317.679
317.741
317.808
317.874
317.933
317.986
318.032
318.072
318.108
318.14
318.171
318.199
318.225
318.249
318.27
318.29
318.31
318.329
318.349
318.368
318.388
318.408
318.428
318.447
318.464
318.468
318.478
318.488
318.495
318.499
318.501
318.503
318.503
318.502
318.5
318.498
318.496
318.497
318.5
318.503
318.505
318.504
318.5
318.491
318.48
318.469
318.46
318.453
318.449
318.448
318.451
318.468
318.473
318.473
318.468
318.459
318.452
318.447
318.446
318.448
318.454
318.463
318.475
318.485
318.491
318.492
318.488
318.482
318.477
318.474
318.474
318.479
318.488
318.506
318.543
318.617
318.763
319.024
319.427
319.93
320.394
320.694
320.929
318.371
318.508
318.435
318.213
318.013
317.918
317.92
317.975
318.048
318.123
318.192
318.254
318.308
318.356
318.399
318.437
318.473
318.506
318.536
318.564
318.589
318.612
318.633
318.655
318.676
318.698
318.719
318.741
318.762
318.783
318.802
318.82
318.834
318.846
318.855
318.863
318.869
318.873
318.875
318.875
318.874
318.871
318.869
318.867
318.868
318.871
318.874
318.876
318.875
318.869
318.859
318.848
318.837
318.829
318.824
318.821
318.82
318.821
318.827
318.83
318.83
318.825
318.818
318.811
318.806
318.804
318.805
318.809
318.817
318.828
318.839
318.848
318.852
318.851
318.845
318.839
318.835
318.834
318.836
318.843
318.857
318.885
318.947
319.076
319.318
319.7
320.181
320.626
320.912
321.132
318.542
318.696
318.649
318.456
318.29
318.23
318.262
318.337
318.423
318.505
318.578
318.642
318.699
318.75
318.796
318.838
318.876
318.912
318.944
318.974
319
319.025
319.049
319.073
319.096
319.12
319.143
319.166
319.188
319.21
319.229
319.247
319.262
319.274
319.284
319.292
319.3
319.305
319.308
319.308
319.307
319.304
319.301
319.301
319.302
319.305
319.308
319.309
319.306
319.299
319.289
319.278
319.269
319.263
319.259
319.257
319.256
319.257
319.26
319.263
319.262
319.258
319.252
319.246
319.242
319.24
319.24
319.243
319.249
319.258
319.269
319.279
319.286
319.287
319.283
319.278
319.273
319.27
319.271
319.275
319.284
319.304
319.351
319.458
319.674
320.028
320.481
320.904
321.172
321.378
318.743
318.915
318.897
318.745
318.627
318.613
318.68
318.778
318.876
318.964
319.042
319.11
319.17
319.225
319.275
319.32
319.362
319.4
319.435
319.467
319.496
319.523
319.549
319.575
319.601
319.626
319.651
319.676
319.699
319.721
319.741
319.759
319.774
319.787
319.798
319.807
319.816
319.822
319.825
319.826
319.824
319.822
319.82
319.821
319.822
319.825
319.828
319.828
319.823
319.815
319.804
319.795
319.787
319.782
319.78
319.778
319.777
319.778
319.78
319.782
319.782
319.778
319.773
319.768
319.765
319.763
319.763
319.764
319.768
319.776
319.786
319.796
319.804
319.807
319.806
319.801
319.796
319.793
319.793
319.795
319.799
319.811
319.842
319.923
320.103
320.418
320.835
321.23
321.479
321.675
318.978
319.168
319.187
319.093
319.042
319.086
319.191
319.309
319.418
319.513
319.595
319.668
319.733
319.792
319.846
319.896
319.941
319.983
320.02
320.054
320.086
320.116
320.144
320.173
320.201
320.229
320.256
320.282
320.307
320.33
320.35
320.369
320.385
320.399
320.411
320.421
320.431
320.437
320.441
320.442
320.441
320.44
320.439
320.441
320.443
320.446
320.447
320.444
320.438
320.429
320.419
320.411
320.406
320.402
320.4
320.399
320.398
320.398
320.4
320.401
320.4
320.397
320.393
320.389
320.387
320.385
320.385
320.386
320.389
320.394
320.402
320.412
320.42
320.425
320.426
320.423
320.419
320.415
320.414
320.415
320.417
320.421
320.437
320.49
320.625
320.885
321.251
321.609
321.837
322.028
319.25
319.46
319.531
319.518
319.551
319.658
319.797
319.932
320.049
320.149
320.237
320.316
320.387
320.451
320.51
320.565
320.614
320.659
320.699
320.737
320.771
320.804
320.836
320.867
320.898
320.928
320.958
320.986
321.012
321.036
321.058
321.078
321.096
321.111
321.125
321.136
321.146
321.154
321.158
321.16
321.16
321.16
321.161
321.163
321.166
321.168
321.167
321.162
321.154
321.144
321.136
321.13
321.126
321.124
321.122
321.121
321.12
321.12
321.121
321.121
321.121
321.118
321.115
321.112
321.11
321.109
321.109
321.11
321.111
321.115
321.121
321.129
321.137
321.143
321.146
321.145
321.141
321.138
321.137
321.137
321.138
321.139
321.143
321.168
321.253
321.444
321.736
322.041
322.243
322.434
319.553
319.788
319.93
320.018
320.141
320.301
320.465
320.609
320.733
320.84
320.934
321.019
321.097
321.167
321.231
321.29
321.344
321.392
321.437
321.478
321.516
321.553
321.588
321.622
321.656
321.689
321.721
321.751
321.779
321.805
321.829
321.851
321.87
321.887
321.903
321.916
321.927
321.935
321.94
321.943
321.944
321.946
321.948
321.952
321.954
321.954
321.951
321.944
321.935
321.926
321.92
321.915
321.913
321.912
321.911
321.91
321.909
321.908
321.908
321.908
321.907
321.906
321.903
321.901
321.899
321.899
321.899
321.9
321.901
321.904
321.908
321.914
321.921
321.927
321.931
321.931
321.93
321.927
321.926
321.926
321.927
321.927
321.926
321.932
321.972
322.086
322.286
322.515
322.679
322.874
319.853
320.122
320.346
320.534
320.729
320.924
321.099
321.249
321.378
321.492
321.594
321.686
321.769
321.845
321.914
321.977
322.035
322.088
322.136
322.181
322.223
322.263
322.302
322.34
322.377
322.412
322.447
322.479
322.51
322.538
322.564
322.588
322.609
322.629
322.646
322.661
322.674
322.683
322.69
322.695
322.698
322.702
322.706
322.71
322.711
322.71
322.705
322.696
322.687
322.68
322.675
322.673
322.672
322.672
322.671
322.67
322.669
322.668
322.668
322.667
322.666
322.665
322.663
322.662
322.661
322.66
322.661
322.662
322.663
322.665
322.668
322.672
322.678
322.683
322.687
322.689
322.688
322.687
322.686
322.687
322.688
322.689
322.688
322.687
322.698
322.747
322.854
322.992
323.105
323.301
320.091
320.397
320.692
320.949
321.183
321.391
321.569
321.724
321.859
321.979
322.086
322.183
322.272
322.352
322.426
322.493
322.554
322.611
322.663
322.711
322.757
322.8
322.842
322.883
322.922
322.96
322.997
323.032
323.064
323.095
323.123
323.149
323.172
323.194
323.213
323.23
323.244
323.256
323.265
323.272
323.278
323.284
323.29
323.294
323.296
323.293
323.287
323.278
323.27
323.265
323.262
323.262
323.262
323.262
323.262
323.262
323.261
323.261
323.26
323.26
323.259
323.258
323.257
323.256
323.256
323.256
323.257
323.258
323.26
323.261
323.264
323.266
323.27
323.274
323.278
323.28
323.281
323.281
323.281
323.282
323.283
323.285
323.287
323.286
323.287
323.3
323.339
323.399
323.462
323.654
320.224
320.556
320.89
321.174
321.419
321.629
321.811
321.97
322.11
322.235
322.347
322.448
322.54
322.624
322.7
322.771
322.835
322.895
322.95
323.002
323.05
323.096
323.141
323.184
323.225
323.266
323.304
323.34
323.375
323.407
323.437
323.464
323.49
323.514
323.535
323.554
323.569
323.583
323.593
323.603
323.612
323.62
323.627
323.632
323.634
323.63
323.624
323.617
323.611
323.608
323.608
323.609
323.61
323.611
323.611
323.612
323.612
323.612
323.612
323.611
323.611
323.611
323.611
323.611
323.611
323.612
323.613
323.614
323.617
323.619
323.621
323.623
323.626
323.629
323.632
323.634
323.636
323.637
323.637
323.638
323.639
323.642
323.644
323.646
323.647
323.649
323.658
323.676
323.712
323.898
320.279
320.625
320.972
321.265
321.516
321.733
321.922
322.087
322.234
322.365
322.483
322.59
322.687
322.776
322.858
322.933
323.002
323.066
323.126
323.181
323.234
323.284
323.332
323.378
323.423
323.466
323.507
323.546
323.583
323.618
323.65
323.681
323.709
323.735
323.758
323.779
323.796
323.811
323.824
323.836
323.846
323.855
323.863
323.867
323.868
323.864
323.859
323.853
323.849
323.847
323.847
323.848
323.849
323.85
323.851
323.851
323.851
323.851
323.851
323.851
323.85
323.85
323.85
323.849
323.849
323.849
323.85
323.851
323.852
323.854
323.856
323.857
323.858
323.86
323.861
323.862
323.864
323.864
323.865
323.866
323.867
323.868
323.869
323.871
323.872
323.873
323.875
323.881
323.911
324.081
319.864
320.082
320.065
319.858
319.643
319.524
319.508
319.557
319.636
319.721
319.804
319.879
319.947
320.008
320.062
320.111
320.156
320.198
320.236
320.271
320.302
320.331
320.358
320.384
320.411
320.437
320.463
320.49
320.518
320.547
320.575
320.6
320.616
320.634
320.65
320.664
320.673
320.681
320.688
320.693
320.696
320.697
320.696
320.696
320.699
320.701
320.703
320.704
320.702
320.697
320.689
320.679
320.669
320.661
320.655
320.65
320.648
320.649
320.661
320.663
320.662
320.658
320.652
320.646
320.641
320.638
320.637
320.639
320.643
320.648
320.652
320.653
320.651
320.646
320.638
320.631
320.625
320.622
320.622
320.627
320.643
320.681
320.765
320.932
321.225
321.661
322.174
322.609
322.854
323.064
320.022
320.255
320.262
320.081
319.893
319.803
319.814
319.885
319.977
320.071
320.158
320.237
320.307
320.37
320.427
320.479
320.526
320.57
320.61
320.647
320.68
320.711
320.74
320.768
320.796
320.825
320.853
320.882
320.912
320.941
320.97
320.996
321.018
321.037
321.053
321.067
321.079
321.089
321.096
321.101
321.104
321.105
321.104
321.104
321.105
321.107
321.109
321.11
321.108
321.103
321.095
321.085
321.076
321.069
321.064
321.06
321.057
321.057
321.059
321.06
321.059
321.055
321.05
321.044
321.039
321.036
321.035
321.035
321.038
321.043
321.048
321.051
321.051
321.047
321.04
321.033
321.026
321.021
321.019
321.021
321.031
321.059
321.128
321.274
321.545
321.957
322.446
322.861
323.092
323.287
320.205
320.455
320.488
320.338
320.188
320.137
320.183
320.278
320.386
320.488
320.58
320.662
320.735
320.801
320.861
320.916
320.967
321.013
321.055
321.094
321.129
321.162
321.193
321.224
321.255
321.286
321.316
321.347
321.378
321.408
321.437
321.462
321.485
321.504
321.521
321.536
321.55
321.561
321.57
321.575
321.577
321.578
321.578
321.578
321.578
321.58
321.582
321.583
321.58
321.574
321.566
321.558
321.55
321.544
321.539
321.536
321.534
321.533
321.534
321.534
321.533
321.529
321.524
321.519
321.515
321.512
321.51
321.509
321.511
321.515
321.52
321.525
321.526
321.524
321.519
321.511
321.504
321.498
321.495
321.494
321.498
321.515
321.565
321.686
321.926
322.307
322.767
323.158
323.372
323.555
320.416
320.683
320.744
320.637
320.539
320.542
320.629
320.751
320.872
320.982
321.079
321.165
321.242
321.311
321.375
321.434
321.488
321.537
321.582
321.623
321.66
321.696
321.73
321.764
321.797
321.83
321.863
321.895
321.927
321.958
321.987
322.012
322.035
322.055
322.074
322.09
322.105
322.118
322.126
322.132
322.135
322.136
322.136
322.137
322.137
322.139
322.14
322.14
322.136
322.13
322.122
322.115
322.108
322.104
322.1
322.097
322.095
322.094
322.094
322.093
322.092
322.088
322.084
322.079
322.076
322.073
322.071
322.07
322.07
322.073
322.078
322.082
322.085
322.085
322.081
322.074
322.067
322.061
322.056
322.053
322.053
322.06
322.09
322.179
322.378
322.715
323.137
323.501
323.697
323.872
320.659
320.942
321.039
320.992
320.968
321.035
321.166
321.312
321.445
321.561
321.663
321.753
321.835
321.91
321.978
322.041
322.098
322.15
322.198
322.242
322.283
322.321
322.359
322.395
322.431
322.467
322.502
322.536
322.57
322.601
322.63
322.657
322.68
322.702
322.722
322.739
322.756
322.769
322.778
322.784
322.787
322.789
322.79
322.792
322.793
322.795
322.795
322.793
322.788
322.781
322.774
322.768
322.763
322.76
322.757
322.754
322.752
322.751
322.75
322.749
322.747
322.744
322.74
322.736
322.733
322.731
322.729
322.728
322.727
322.729
322.732
322.736
322.739
322.74
322.738
322.733
322.726
322.72
322.715
322.711
322.708
322.706
322.718
322.773
322.919
323.195
323.562
323.891
324.069
324.243
320.938
321.237
321.383
321.42
321.488
321.625
321.794
321.956
322.098
322.22
322.327
322.424
322.511
322.591
322.664
322.731
322.792
322.849
322.9
322.947
322.992
323.034
323.074
323.114
323.153
323.191
323.229
323.265
323.3
323.333
323.363
323.391
323.416
323.44
323.461
323.48
323.497
323.512
323.522
323.528
323.533
323.535
323.538
323.541
323.542
323.543
323.542
323.538
323.532
323.525
323.519
323.515
323.511
323.509
323.506
323.504
323.502
323.5
323.499
323.498
323.496
323.493
323.49
323.486
323.484
323.482
323.48
323.479
323.478
323.478
323.48
323.483
323.486
323.488
323.487
323.483
323.477
323.471
323.466
323.462
323.458
323.453
323.451
323.474
323.562
323.759
324.049
324.325
324.483
324.662
321.239
321.559
321.772
321.913
322.076
322.271
322.465
322.637
322.784
322.912
323.026
323.129
323.222
323.308
323.386
323.458
323.523
323.584
323.639
323.69
323.738
323.784
323.829
323.872
323.914
323.955
323.995
324.033
324.07
324.104
324.137
324.166
324.194
324.219
324.243
324.264
324.282
324.297
324.309
324.317
324.322
324.327
324.331
324.334
324.336
324.336
324.333
324.328
324.321
324.315
324.31
324.307
324.305
324.303
324.301
324.299
324.297
324.295
324.294
324.292
324.29
324.288
324.285
324.282
324.28
324.278
324.277
324.276
324.275
324.274
324.275
324.277
324.279
324.281
324.281
324.278
324.273
324.268
324.264
324.26
324.256
324.251
324.244
324.245
324.282
324.394
324.585
324.787
324.913
325.102
321.522
321.87
322.161
322.401
322.638
322.866
323.07
323.246
323.398
323.532
323.653
323.762
323.861
323.952
324.035
324.111
324.181
324.245
324.304
324.359
324.411
324.461
324.509
324.555
324.6
324.644
324.686
324.727
324.766
324.803
324.837
324.869
324.899
324.927
324.952
324.975
324.995
325.012
325.026
325.036
325.044
325.051
325.056
325.061
325.063
325.062
325.058
325.051
325.045
325.04
325.036
325.035
325.034
325.033
325.031
325.029
325.027
325.026
325.024
325.023
325.021
325.019
325.016
325.014
325.012
325.011
325.01
325.009
325.008
325.007
325.007
325.008
325.009
325.01
325.011
325.009
325.005
325.001
324.997
324.993
324.991
324.987
324.981
324.974
324.979
325.023
325.117
325.232
325.313
325.512
321.726
322.105
322.46
322.763
323.034
323.273
323.478
323.657
323.813
323.953
324.079
324.193
324.297
324.391
324.478
324.558
324.631
324.698
324.761
324.819
324.875
324.927
324.978
325.027
325.075
325.121
325.165
325.208
325.249
325.287
325.324
325.358
325.39
325.421
325.448
325.473
325.495
325.514
325.53
325.543
325.554
325.564
325.572
325.578
325.58
325.579
325.574
325.568
325.563
325.56
325.558
325.558
325.558
325.558
325.557
325.556
325.555
325.553
325.552
325.551
325.549
325.548
325.546
325.545
325.543
325.542
325.542
325.541
325.541
325.54
325.54
325.54
325.54
325.541
325.541
325.54
325.537
325.534
325.53
325.527
325.525
325.523
325.52
325.515
325.51
325.517
325.545
325.587
325.628
325.833
321.821
322.22
322.605
322.929
323.207
323.446
323.653
323.835
323.996
324.14
324.27
324.387
324.494
324.591
324.681
324.763
324.839
324.909
324.975
325.036
325.094
325.149
325.202
325.253
325.302
325.35
325.397
325.441
325.483
325.524
325.562
325.598
325.633
325.665
325.695
325.722
325.746
325.766
325.784
325.799
325.813
325.825
325.836
325.843
325.846
325.846
325.842
325.838
325.835
325.834
325.835
325.836
325.837
325.838
325.838
325.838
325.837
325.836
325.836
325.835
325.834
325.834
325.833
325.833
325.832
325.832
325.832
325.832
325.833
325.833
325.833
325.833
325.833
325.833
325.833
325.832
325.831
325.829
325.826
325.823
325.821
325.819
325.817
325.815
325.812
325.81
325.811
325.819
325.843
326.049
321.851
322.262
322.657
322.988
323.271
323.517
323.732
323.921
324.089
324.24
324.375
324.499
324.611
324.714
324.809
324.896
324.977
325.052
325.122
325.188
325.25
325.31
325.367
325.422
325.475
325.526
325.575
325.623
325.668
325.712
325.753
325.793
325.831
325.866
325.898
325.928
325.954
325.978
325.998
326.016
326.032
326.046
326.057
326.065
326.068
326.068
326.066
326.063
326.062
326.061
326.062
326.064
326.065
326.066
326.066
326.067
326.066
326.066
326.065
326.065
326.064
326.063
326.063
326.062
326.061
326.061
326.06
326.06
326.061
326.061
326.06
326.06
326.059
326.057
326.056
326.054
326.052
326.05
326.047
326.044
326.041
326.039
326.036
326.034
326.031
326.028
326.025
326.025
326.048
326.236
)
;

boundaryField
{
    inlet
    {
        type            zeroGradient;
    }
    outlet
    {
        type            zeroGradient;
    }
    side
    {
        type            zeroGradient;
    }
    asphalt_to_soil1
    {
        type            compressible::turbulentTemperatureRadCoupledMixed;
        refValue        nonuniform List<scalar> 
990
(
316.708
316.757
316.606
316.336
316.109
315.99
315.964
315.989
316.036
316.089
316.139
316.185
316.224
316.258
316.286
316.31
316.332
316.353
316.373
316.391
316.408
316.424
316.438
316.451
316.465
316.479
316.493
316.507
316.52
316.533
316.544
316.553
316.548
316.552
316.556
316.559
316.558
316.556
316.555
316.552
316.548
316.544
316.54
316.537
316.538
316.541
316.544
316.547
316.548
316.544
316.536
316.524
316.511
316.501
316.494
316.491
316.49
316.495
316.517
316.524
316.524
316.519
316.508
316.499
316.495
316.495
316.5
316.51
316.524
316.541
316.556
316.566
316.57
316.568
316.563
316.559
316.558
316.562
316.57
316.584
316.604
316.64
316.708
316.837
317.071
317.441
317.924
318.398
318.734
318.987
316.842
316.904
316.773
316.526
316.321
316.224
316.217
316.257
316.314
316.372
316.425
316.472
316.513
316.548
316.579
316.606
316.631
316.655
316.677
316.697
316.715
316.731
316.747
316.762
316.778
316.793
316.809
316.824
316.838
316.851
316.863
316.874
316.881
316.887
316.891
316.894
316.895
316.895
316.893
316.89
316.886
316.881
316.876
316.874
316.875
316.879
316.883
316.886
316.886
316.879
316.869
316.856
316.845
316.836
316.831
316.828
316.828
316.831
316.84
316.845
316.845
316.84
316.831
316.823
316.819
316.818
316.821
316.829
316.841
316.857
316.873
316.886
316.894
316.895
316.891
316.887
316.884
316.886
316.893
316.903
316.92
316.949
317.007
317.122
317.339
317.691
318.154
318.611
318.933
319.172
317.002
317.079
316.973
316.754
316.579
316.513
316.531
316.589
316.656
316.72
316.777
316.826
316.869
316.907
316.941
316.971
317
317.026
317.05
317.072
317.091
317.109
317.126
317.143
317.161
317.178
317.195
317.211
317.226
317.24
317.253
317.263
317.271
317.278
317.282
317.286
317.288
317.289
317.287
317.284
317.28
317.275
317.271
317.27
317.271
317.276
317.28
317.282
317.279
317.271
317.259
317.247
317.237
317.23
317.227
317.225
317.225
317.228
317.234
317.239
317.239
317.235
317.228
317.221
317.217
317.217
317.219
317.224
317.234
317.247
317.263
317.278
317.288
317.292
317.291
317.287
317.284
317.284
317.289
317.297
317.31
317.332
317.377
317.475
317.669
317.996
318.433
318.869
319.173
319.398
317.192
317.287
317.21
317.029
316.898
316.872
316.92
316.998
317.075
317.145
317.206
317.259
317.305
317.347
317.384
317.419
317.45
317.479
317.505
317.529
317.55
317.57
317.589
317.608
317.627
317.646
317.665
317.682
317.698
317.713
317.726
317.737
317.745
317.752
317.758
317.762
317.765
317.766
317.765
317.762
317.758
317.754
317.751
317.751
317.753
317.758
317.762
317.762
317.756
317.746
317.734
317.723
317.715
317.71
317.708
317.707
317.707
317.709
317.714
317.718
317.719
317.715
317.709
317.704
317.701
317.701
317.702
317.706
317.713
317.725
317.739
317.754
317.766
317.773
317.774
317.771
317.768
317.767
317.77
317.777
317.786
317.801
317.833
317.908
318.072
318.364
318.768
319.176
319.461
319.674
317.416
317.531
317.492
317.365
317.294
317.319
317.401
317.497
317.584
317.66
317.725
317.783
317.834
317.88
317.922
317.96
317.995
318.027
318.055
318.081
318.105
318.127
318.148
318.169
318.191
318.212
318.232
318.251
318.268
318.284
318.297
318.309
318.319
318.326
318.333
318.337
318.341
318.343
318.342
318.34
318.336
318.333
318.332
318.333
318.336
318.34
318.342
318.339
318.332
318.321
318.309
318.3
318.294
318.291
318.289
318.289
318.289
318.291
318.294
318.297
318.298
318.295
318.291
318.286
318.285
318.285
318.286
318.289
318.294
318.303
318.315
318.329
318.341
318.35
318.354
318.353
318.351
318.35
318.352
318.357
318.363
318.373
318.392
318.443
318.568
318.812
319.168
319.539
319.801
320.006
317.68
317.816
317.829
317.779
317.786
317.866
317.98
318.09
318.186
318.268
318.339
318.401
318.458
318.509
318.556
318.599
318.638
318.673
318.704
318.733
318.759
318.784
318.808
318.832
318.856
318.879
318.901
318.922
318.941
318.958
318.973
318.986
318.996
319.006
319.013
319.019
319.023
319.025
319.025
319.023
319.021
319.019
319.019
319.022
319.025
319.028
319.027
319.022
319.012
319.001
318.99
318.983
318.979
318.977
318.977
318.976
318.976
318.977
318.98
318.982
318.982
318.98
318.977
318.974
318.973
318.973
318.975
318.977
318.982
318.988
318.998
319.01
319.022
319.031
319.037
319.038
319.038
319.037
319.039
319.043
319.048
319.054
319.063
319.091
319.172
319.354
319.643
319.961
320.194
320.396
317.979
318.144
318.227
318.274
318.364
318.494
318.631
318.752
318.854
318.943
319.02
319.09
319.153
319.21
319.262
319.309
319.352
319.391
319.426
319.458
319.487
319.515
319.543
319.57
319.596
319.622
319.646
319.669
319.69
319.709
319.726
319.74
319.753
319.764
319.772
319.779
319.785
319.788
319.788
319.787
319.786
319.786
319.787
319.791
319.794
319.794
319.791
319.783
319.772
319.761
319.753
319.748
319.746
319.745
319.745
319.744
319.744
319.745
319.746
319.747
319.747
319.746
319.744
319.742
319.742
319.742
319.744
319.747
319.75
319.755
319.763
319.772
319.783
319.792
319.799
319.803
319.804
319.804
319.806
319.809
319.814
319.819
319.823
319.834
319.876
319.989
320.191
320.435
320.627
320.827
318.286
318.488
318.656
318.8
318.96
319.125
319.274
319.401
319.511
319.606
319.691
319.767
319.836
319.899
319.956
320.008
320.055
320.098
320.137
320.173
320.206
320.238
320.269
320.299
320.328
320.357
320.384
320.409
320.432
320.453
320.472
320.489
320.503
320.516
320.526
320.535
320.541
320.545
320.547
320.548
320.548
320.55
320.553
320.557
320.558
320.557
320.551
320.541
320.53
320.521
320.515
320.512
320.512
320.512
320.511
320.511
320.511
320.511
320.512
320.512
320.512
320.511
320.51
320.509
320.509
320.51
320.512
320.515
320.518
320.522
320.528
320.535
320.544
320.553
320.56
320.565
320.567
320.569
320.571
320.574
320.579
320.585
320.588
320.592
320.607
320.661
320.774
320.928
321.065
321.259
318.546
318.789
319.032
319.248
319.449
319.628
319.783
319.915
320.031
320.133
320.224
320.306
320.38
320.448
320.51
320.566
320.617
320.664
320.707
320.746
320.783
320.819
320.853
320.886
320.918
320.949
320.979
321.006
321.032
321.055
321.075
321.094
321.11
321.125
321.138
321.148
321.156
321.161
321.165
321.168
321.171
321.174
321.179
321.182
321.183
321.179
321.172
321.162
321.152
321.145
321.142
321.141
321.141
321.142
321.142
321.142
321.142
321.143
321.143
321.143
321.143
321.143
321.142
321.142
321.142
321.143
321.146
321.148
321.152
321.156
321.16
321.166
321.172
321.179
321.186
321.192
321.196
321.198
321.201
321.205
321.21
321.215
321.22
321.224
321.229
321.248
321.295
321.368
321.448
321.632
318.707
318.981
319.268
319.516
319.73
319.914
320.073
320.211
320.332
320.439
320.536
320.622
320.701
320.772
320.838
320.898
320.952
321.002
321.048
321.091
321.131
321.17
321.206
321.242
321.276
321.31
321.341
321.37
321.398
321.422
321.445
321.465
321.484
321.5
321.514
321.526
321.535
321.543
321.548
321.553
321.558
321.564
321.569
321.573
321.572
321.568
321.559
321.55
321.543
321.538
321.537
321.537
321.539
321.54
321.541
321.541
321.542
321.543
321.543
321.543
321.543
321.544
321.544
321.544
321.545
321.546
321.549
321.552
321.555
321.559
321.563
321.567
321.572
321.578
321.584
321.589
321.593
321.597
321.601
321.604
321.609
321.614
321.62
321.625
321.63
321.637
321.652
321.679
321.724
321.895
318.783
319.072
319.375
319.633
319.855
320.045
320.211
320.355
320.483
320.596
320.698
320.79
320.874
320.95
321.02
321.084
321.143
321.197
321.247
321.294
321.338
321.38
321.42
321.458
321.496
321.531
321.565
321.597
321.626
321.653
321.678
321.7
321.72
321.739
321.755
321.768
321.779
321.787
321.795
321.801
321.807
321.814
321.818
321.821
321.819
321.813
321.806
321.798
321.792
321.788
321.787
321.788
321.789
321.79
321.791
321.792
321.793
321.793
321.793
321.793
321.793
321.793
321.793
321.793
321.794
321.794
321.796
321.798
321.801
321.804
321.807
321.81
321.814
321.818
321.822
321.826
321.83
321.833
321.837
321.84
321.844
321.849
321.854
321.858
321.863
321.868
321.875
321.886
321.922
322.076
)
;
        refGradient     uniform 0;
        valueFraction   nonuniform List<scalar> 
990
(
0.495766
0.495766
0.495766
0.495766
0.495766
0.495766
0.495766
0.495766
0.495766
0.495766
0.495766
0.495766
0.495766
0.495766
0.495766
0.495766
0.495766
0.495766
0.495766
0.495766
0.495766
0.495766
0.495766
0.495766
0.495766
0.495766
0.495766
0.495766
0.495766
0.495766
0.495766
0.495766
0.495766
0.495766
0.495766
0.495766
0.495766
0.495766
0.495766
0.495766
0.495766
0.495766
0.495766
0.495766
0.495766
0.495766
0.495766
0.495766
0.495766
0.495766
0.495766
0.495766
0.495766
0.495766
0.495766
0.495766
0.495766
0.495766
0.495766
0.495766
0.495766
0.495766
0.495766
0.495766
0.495766
0.495766
0.495766
0.495766
0.495766
0.495766
0.495766
0.495766
0.495766
0.495766
0.495766
0.495766
0.495766
0.495766
0.495766
0.495766
0.495766
0.495766
0.495766
0.495766
0.495766
0.495766
0.495766
0.495766
0.495766
0.495766
0.495766
0.495766
0.495766
0.495766
0.495766
0.495766
0.495766
0.495766
0.495766
0.495766
0.495766
0.495766
0.495766
0.495766
0.495766
0.495766
0.495766
0.495766
0.495766
0.495766
0.495766
0.495766
0.495766
0.495766
0.495766
0.495766
0.495766
0.495766
0.495766
0.495766
0.495766
0.495766
0.495766
0.495766
0.495766
0.495766
0.495766
0.495766
0.495766
0.495766
0.495766
0.495766
0.495766
0.495766
0.495766
0.495766
0.495766
0.495766
0.495766
0.495766
0.495766
0.495766
0.495766
0.495766
0.495766
0.495766
0.495766
0.495766
0.495766
0.495766
0.495766
0.495766
0.495766
0.495766
0.495766
0.495766
0.495766
0.495766
0.495766
0.495766
0.495766
0.495766
0.495766
0.495766
0.495766
0.495766
0.495766
0.495766
0.495766
0.495766
0.495766
0.495766
0.495766
0.495766
0.495766
0.495766
0.495766
0.495766
0.495766
0.495766
0.495766
0.495766
0.495766
0.495766
0.495766
0.495766
0.495766
0.495766
0.495766
0.495766
0.495766
0.495766
0.495766
0.495766
0.495766
0.495766
0.495766
0.495766
0.495766
0.495766
0.495766
0.495766
0.495766
0.495766
0.495766
0.495766
0.495766
0.495766
0.495766
0.495766
0.495766
0.495766
0.495766
0.495766
0.495766
0.495766
0.495766
0.495766
0.495766
0.495766
0.495766
0.495766
0.495766
0.495766
0.495766
0.495766
0.495766
0.495766
0.495766
0.495766
0.495766
0.495766
0.495766
0.495766
0.495766
0.495766
0.495766
0.495766
0.495766
0.495766
0.495766
0.495766
0.495766
0.495766
0.495766
0.495766
0.495766
0.495766
0.495766
0.495766
0.495766
0.495766
0.495766
0.495766
0.495766
0.495766
0.495766
0.495766
0.495766
0.495766
0.495766
0.495766
0.495766
0.495766
0.495766
0.495766
0.495766
0.495766
0.495766
0.495766
0.495766
0.495766
0.495766
0.495766
0.495766
0.495766
0.495766
0.495766
0.495766
0.495766
0.495766
0.495766
0.495766
0.495766
0.495766
0.495766
0.495766
0.495766
0.495766
0.495766
0.495766
0.495766
0.495766
0.495766
0.495766
0.495766
0.495766
0.495766
0.495766
0.495766
0.495766
0.495766
0.495766
0.495766
0.495766
0.495766
0.495766
0.495766
0.495766
0.495766
0.495766
0.495766
0.495766
0.495766
0.495766
0.495766
0.495766
0.495766
0.495766
0.495766
0.495766
0.495766
0.495766
0.495766
0.495766
0.495766
0.495766
0.495766
0.495766
0.495766
0.495766
0.495766
0.495766
0.495766
0.495766
0.495766
0.495766
0.495766
0.495766
0.495766
0.495766
0.495766
0.495766
0.495766
0.495766
0.495766
0.495766
0.495766
0.495766
0.495766
0.495766
0.495766
0.495766
0.495766
0.495766
0.495766
0.495766
0.495766
0.495766
0.495766
0.495766
0.495766
0.495766
0.495766
0.495766
0.495766
0.495766
0.495766
0.495766
0.495766
0.495766
0.495766
0.495766
0.495766
0.495766
0.495766
0.495766
0.495766
0.495766
0.495766
0.495766
0.495766
0.495766
0.495766
0.495766
0.495766
0.495766
0.495766
0.495766
0.495766
0.495766
0.495766
0.495766
0.495766
0.495766
0.495766
0.495766
0.495766
0.495766
0.495766
0.495766
0.495766
0.495766
0.495766
0.495766
0.495766
0.495766
0.495766
0.495766
0.495766
0.495766
0.495766
0.495766
0.495766
0.495766
0.495766
0.495766
0.495766
0.495766
0.495766
0.495766
0.495766
0.495766
0.495766
0.495766
0.495766
0.495766
0.495766
0.495766
0.495766
0.495766
0.495766
0.495766
0.495766
0.495766
0.495766
0.495766
0.495766
0.495766
0.495766
0.495766
0.495766
0.495766
0.495766
0.495766
0.495766
0.495766
0.495766
0.495766
0.495766
0.495766
0.495766
0.495766
0.495766
0.495766
0.495766
0.495766
0.495766
0.495766
0.495766
0.495766
0.495766
0.495766
0.495766
0.495766
0.495766
0.495766
0.495766
0.495766
0.495766
0.495766
0.495766
0.495766
0.495766
0.495766
0.495766
0.495766
0.495766
0.495766
0.495766
0.495766
0.495766
0.495766
0.495766
0.495766
0.495766
0.495766
0.495766
0.495766
0.495766
0.495766
0.495766
0.495766
0.495766
0.495766
0.495766
0.495766
0.495766
0.495766
0.495766
0.495766
0.495766
0.495766
0.495766
0.495766
0.495766
0.495766
0.495766
0.495766
0.495766
0.495766
0.495766
0.495766
0.495766
0.495766
0.495766
0.495766
0.495766
0.495766
0.495766
0.495766
0.495766
0.495766
0.495766
0.495766
0.495766
0.495766
0.495766
0.495766
0.495766
0.495766
0.495766
0.495766
0.495766
0.495766
0.495766
0.495766
0.495766
0.495766
0.495766
0.495766
0.495766
0.495766
0.495766
0.495766
0.495766
0.495766
0.495766
0.495766
0.495766
0.495766
0.495766
0.495766
0.495766
0.495766
0.495766
0.495766
0.495766
0.495766
0.495766
0.495766
0.495766
0.495766
0.495766
0.495766
0.495766
0.495766
0.495766
0.495766
0.495766
0.495766
0.495766
0.495766
0.495766
0.495766
0.495766
0.495766
0.495766
0.495766
0.495766
0.495766
0.495766