/*--------------------------------*- C++ -*----------------------------------*\
| =========                 |                                                 |
| \\      /  F ield         | OpenFOAM: The Open Source CFD Toolbox           |
|  \\    /   O peration     | Version:  v2012                                 |
|   \\  /    A nd           | Website:  www.openfoam.com                      |
|    \\/     M anipulation  |                                                 |
\*---------------------------------------------------------------------------*/
FoamFile
{
    version     2.0;
    format      ascii;
    class       volScalarField;
    location    "150/soil1";
    object      T;
}
// * * * * * * * * * * * * * * * * * * * * * * * * * * * * * * * * * * * * * //

dimensions      [0 0 0 1 0 0 0];


internalField   nonuniform List<scalar> 
57600
(
302.792
302.819
302.846
302.861
302.866
302.868
302.871
302.878
302.888
302.902
302.916
302.931
302.944
302.957
302.969
302.98
302.989
302.998
303.007
303.015
303.022
303.029
303.036
303.042
303.048
303.053
303.059
303.064
303.068
303.073
303.078
303.083
303.088
303.093
303.097
303.102
303.106
303.11
303.114
303.118
303.122
303.126
303.13
303.134
303.137
303.141
303.145
303.148
303.151
303.154
303.157
303.16
303.163
303.165
303.168
303.17
303.173
303.175
303.177
303.18
303.182
303.185
303.188
303.191
303.194
303.198
303.202
303.206
303.21
303.215
303.22
303.225
303.23
303.234
303.238
303.241
303.244
303.247
303.25
303.256
303.265
303.278
303.299
303.327
303.363
303.403
303.441
303.475
303.508
303.541
302.77
302.796
302.822
302.836
302.84
302.84
302.843
302.849
302.859
302.872
302.886
302.9
302.913
302.926
302.937
302.947
302.956
302.965
302.973
302.981
302.988
302.994
303.001
303.007
303.012
303.018
303.022
303.027
303.032
303.036
303.041
303.045
303.05
303.055
303.059
303.063
303.067
303.071
303.075
303.079
303.082
303.086
303.089
303.093
303.097
303.1
303.103
303.107
303.11
303.113
303.115
303.118
303.121
303.123
303.125
303.128
303.13
303.132
303.134
303.137
303.139
303.142
303.145
303.148
303.151
303.154
303.158
303.162
303.167
303.172
303.176
303.181
303.186
303.19
303.194
303.197
303.2
303.203
303.206
303.212
303.22
303.234
303.254
303.283
303.319
303.358
303.397
303.432
303.466
303.499
302.741
302.767
302.792
302.804
302.807
302.807
302.809
302.814
302.824
302.836
302.85
302.863
302.876
302.888
302.899
302.909
302.918
302.926
302.934
302.941
302.948
302.954
302.96
302.966
302.971
302.976
302.981
302.985
302.989
302.994
302.998
303.002
303.007
303.011
303.016
303.02
303.024
303.027
303.031
303.035
303.038
303.041
303.045
303.048
303.051
303.054
303.058
303.061
303.064
303.066
303.069
303.072
303.074
303.076
303.078
303.081
303.083
303.085
303.087
303.089
303.092
303.094
303.097
303.1
303.103
303.107
303.11
303.114
303.119
303.123
303.128
303.133
303.137
303.142
303.145
303.149
303.151
303.154
303.157
303.163
303.171
303.185
303.205
303.233
303.269
303.309
303.348
303.383
303.417
303.451
302.711
302.736
302.759
302.771
302.773
302.772
302.773
302.778
302.787
302.799
302.812
302.825
302.838
302.849
302.86
302.87
302.878
302.886
302.894
302.901
302.907
302.913
302.919
302.925
302.93
302.935
302.939
302.943
302.948
302.952
302.956
302.96
302.965
302.969
302.973
302.977
302.981
302.984
302.988
302.991
302.994
302.998
303.001
303.004
303.007
303.01
303.013
303.016
303.019
303.021
303.024
303.026
303.029
303.031
303.033
303.035
303.037
303.039
303.041
303.043
303.046
303.048
303.051
303.054
303.057
303.06
303.064
303.068
303.072
303.076
303.081
303.086
303.09
303.095
303.098
303.101
303.104
303.106
303.11
303.115
303.123
303.137
303.157
303.186
303.221
303.261
303.3
303.335
303.369
303.402
302.68
302.704
302.727
302.737
302.739
302.737
302.738
302.742
302.751
302.762
302.775
302.787
302.8
302.811
302.821
302.83
302.839
302.847
302.854
302.861
302.867
302.873
302.879
302.884
302.889
302.894
302.898
302.902
302.907
302.911
302.915
302.919
302.923
302.927
302.931
302.935
302.939
302.942
302.946
302.949
302.952
302.955
302.958
302.961
302.964
302.967
302.969
302.972
302.975
302.977
302.98
302.982
302.984
302.987
302.989
302.99
302.992
302.994
302.996
302.998
303.001
303.003
303.006
303.008
303.011
303.015
303.018
303.022
303.026
303.031
303.035
303.04
303.044
303.048
303.052
303.055
303.057
303.06
303.063
303.068
303.077
303.09
303.111
303.139
303.175
303.215
303.254
303.288
303.322
303.355
302.649
302.673
302.695
302.704
302.705
302.702
302.702
302.706
302.714
302.725
302.737
302.75
302.762
302.772
302.782
302.792
302.8
302.807
302.814
302.821
302.827
302.833
302.839
302.844
302.849
302.853
302.858
302.862
302.867
302.871
302.875
302.879
302.882
302.886
302.89
302.893
302.897
302.9
302.904
302.907
302.91
302.912
302.915
302.918
302.921
302.924
302.926
302.929
302.932
302.934
302.937
302.939
302.941
302.943
302.945
302.946
302.948
302.95
302.952
302.954
302.956
302.959
302.961
302.964
302.967
302.97
302.973
302.977
302.981
302.986
302.99
302.995
302.999
303.003
303.007
303.01
303.012
303.015
303.018
303.023
303.031
303.045
303.065
303.094
303.129
303.169
303.209
303.243
303.277
303.309
302.619
302.642
302.663
302.672
302.671
302.668
302.667
302.671
302.678
302.688
302.7
302.712
302.723
302.734
302.743
302.752
302.76
302.768
302.775
302.781
302.788
302.793
302.799
302.804
302.808
302.813
302.817
302.822
302.827
302.832
302.836
302.84
302.843
302.846
302.849
302.852
302.856
302.859
302.862
302.865
302.868
302.87
302.873
302.876
302.878
302.881
302.884
302.886
302.889
302.891
302.893
302.895
302.897
302.899
302.9
302.902
302.904
302.906
302.908
302.91
302.912
302.914
302.916
302.919
302.922
302.925
302.928
302.932
302.936
302.941
302.945
302.95
302.954
302.958
302.962
302.964
302.967
302.969
302.973
302.978
302.986
303
303.021
303.049
303.085
303.125
303.164
303.199
303.232
303.264
302.589
302.611
302.631
302.639
302.638
302.635
302.633
302.636
302.643
302.651
302.66
302.67
302.681
302.691
302.701
302.71
302.718
302.726
302.733
302.74
302.746
302.752
302.757
302.762
302.767
302.771
302.776
302.782
302.787
302.793
302.798
302.801
302.804
302.806
302.808
302.811
302.814
302.816
302.819
302.822
302.824
302.827
302.829
302.832
302.834
302.837
302.839
302.842
302.844
302.846
302.847
302.849
302.851
302.852
302.854
302.856
302.857
302.859
302.861
302.863
302.865
302.867
302.869
302.872
302.875
302.878
302.881
302.885
302.889
302.893
302.898
302.902
302.906
302.91
302.914
302.917
302.919
302.921
302.925
302.93
302.939
302.954
302.975
303.004
303.04
303.08
303.12
303.154
303.188
303.219
302.56
302.581
302.601
302.608
302.606
302.602
302.6
302.602
302.606
302.61
302.611
302.615
302.623
302.633
302.643
302.653
302.663
302.672
302.68
302.688
302.695
302.702
302.708
302.714
302.719
302.723
302.728
302.734
302.741
302.747
302.753
302.757
302.759
302.76
302.761
302.762
302.764
302.767
302.769
302.772
302.774
302.776
302.778
302.78
302.783
302.785
302.787
302.789
302.791
302.792
302.794
302.795
302.796
302.797
302.799
302.8
302.802
302.803
302.805
302.807
302.809
302.811
302.813
302.815
302.818
302.821
302.824
302.828
302.832
302.836
302.84
302.844
302.849
302.852
302.856
302.858
302.861
302.863
302.867
302.873
302.885
302.902
302.925
302.955
302.992
303.033
303.073
303.108
303.141
303.173
302.531
302.552
302.571
302.577
302.574
302.57
302.567
302.567
302.567
302.558
302.53
302.517
302.519
302.529
302.542
302.556
302.569
302.583
302.595
302.606
302.616
302.626
302.634
302.64
302.646
302.652
302.657
302.663
302.67
302.678
302.685
302.689
302.691
302.691
302.69
302.69
302.691
302.692
302.694
302.696
302.698
302.7
302.702
302.704
302.706
302.709
302.711
302.712
302.713
302.714
302.715
302.715
302.716
302.718
302.719
302.72
302.721
302.723
302.724
302.726
302.727
302.729
302.731
302.733
302.736
302.739
302.742
302.745
302.749
302.753
302.757
302.761
302.765
302.769
302.772
302.774
302.776
302.778
302.783
302.792
302.812
302.837
302.867
302.901
302.941
302.983
303.024
303.06
303.094
303.126
302.503
302.523
302.541
302.547
302.543
302.538
302.534
302.532
302.525
302.49
302.397
302.351
302.345
302.358
302.379
302.401
302.423
302.444
302.462
302.479
302.494
302.507
302.517
302.526
302.533
302.539
302.544
302.55
302.556
302.564
302.571
302.576
302.578
302.576
302.573
302.571
302.57
302.571
302.572
302.573
302.575
302.577
302.579
302.581
302.583
302.585
302.587
302.588
302.589
302.589
302.589
302.59
302.591
302.592
302.594
302.595
302.596
302.597
302.599
302.6
302.602
302.604
302.606
302.608
302.611
302.613
302.616
302.62
302.623
302.627
302.631
302.635
302.638
302.642
302.644
302.647
302.648
302.65
302.656
302.672
302.711
302.754
302.796
302.839
302.884
302.93
302.973
303.01
303.045
303.078
302.475
302.495
302.512
302.517
302.513
302.507
302.502
302.499
302.488
302.441
302.324
302.263
302.253
302.268
302.292
302.317
302.343
302.366
302.388
302.407
302.424
302.438
302.45
302.46
302.467
302.473
302.478
302.483
302.489
302.497
302.505
302.511
302.513
302.511
302.507
302.503
302.5
302.499
302.499
302.5
302.502
302.504
302.507
302.509
302.512
302.514
302.517
302.518
302.518
302.519
302.519
302.52
302.521
302.523
302.524
302.525
302.527
302.528
302.529
302.531
302.532
302.534
302.536
302.538
302.54
302.543
302.545
302.548
302.552
302.555
302.558
302.562
302.565
302.568
302.57
302.572
302.573
302.575
302.581
302.599
302.644
302.693
302.739
302.784
302.831
302.878
302.922
302.96
302.996
303.029
302.448
302.467
302.483
302.487
302.483
302.476
302.471
302.467
302.455
302.405
302.283
302.219
302.208
302.222
302.246
302.273
302.299
302.323
302.345
302.364
302.382
302.396
302.408
302.418
302.426
302.431
302.436
302.44
302.446
302.454
302.462
302.469
302.472
302.471
302.466
302.46
302.456
302.453
302.452
302.453
302.455
302.458
302.461
302.463
302.465
302.468
302.47
302.471
302.471
302.472
302.472
302.473
302.474
302.475
302.477
302.478
302.479
302.481
302.482
302.483
302.485
302.486
302.488
302.49
302.492
302.494
302.496
302.499
302.502
302.505
302.508
302.512
302.515
302.517
302.519
302.521
302.522
302.523
302.528
302.547
302.593
302.643
302.689
302.735
302.783
302.83
302.875
302.913
302.949
302.982
302.421
302.439
302.455
302.458
302.453
302.446
302.44
302.436
302.423
302.373
302.252
302.188
302.177
302.191
302.215
302.241
302.266
302.29
302.312
302.331
302.348
302.363
302.375
302.384
302.392
302.398
302.402
302.406
302.412
302.419
302.427
302.434
302.439
302.438
302.434
302.428
302.422
302.418
302.416
302.416
302.418
302.421
302.424
302.426
302.429
302.431
302.433
302.433
302.433
302.433
302.434
302.435
302.436
302.437
302.438
302.439
302.44
302.442
302.443
302.444
302.445
302.447
302.449
302.45
302.452
302.454
302.457
302.459
302.462
302.465
302.468
302.471
302.474
302.477
302.479
302.48
302.481
302.482
302.487
302.505
302.551
302.601
302.648
302.694
302.741
302.789
302.833
302.872
302.908
302.941
302.394
302.412
302.427
302.429
302.424
302.416
302.41
302.405
302.392
302.343
302.224
302.161
302.15
302.164
302.187
302.213
302.238
302.261
302.282
302.301
302.318
302.332
302.343
302.353
302.36
302.366
302.371
302.375
302.38
302.386
302.394
302.401
302.407
302.408
302.405
302.399
302.392
302.386
302.382
302.382
302.384
302.387
302.391
302.393
302.395
302.397
302.399
302.399
302.399
302.399
302.4
302.4
302.401
302.402
302.404
302.405
302.406
302.407
302.408
302.409
302.411
302.412
302.414
302.415
302.417
302.419
302.421
302.424
302.427
302.43
302.433
302.436
302.439
302.441
302.443
302.445
302.445
302.447
302.452
302.469
302.515
302.564
302.611
302.656
302.704
302.751
302.796
302.835
302.87
302.903
302.368
302.385
302.399
302.401
302.395
302.386
302.38
302.375
302.362
302.314
302.197
302.135
302.124
302.138
302.161
302.186
302.211
302.234
302.254
302.273
302.288
302.302
302.313
302.322
302.33
302.336
302.342
302.346
302.351
302.356
302.363
302.37
302.375
302.377
302.375
302.37
302.363
302.355
302.35
302.349
302.351
302.354
302.359
302.361
302.363
302.365
302.367
302.367
302.368
302.368
302.368
302.369
302.369
302.37
302.371
302.372
302.373
302.375
302.376
302.377
302.378
302.379
302.381
302.383
302.384
302.386
302.389
302.391
302.394
302.397
302.4
302.403
302.406
302.408
302.41
302.411
302.412
302.413
302.418
302.436
302.481
302.529
302.576
302.621
302.668
302.716
302.76
302.799
302.834
302.866
302.342
302.359
302.372
302.373
302.366
302.357
302.35
302.345
302.332
302.285
302.171
302.111
302.1
302.113
302.135
302.16
302.185
302.208
302.228
302.246
302.26
302.273
302.283
302.292
302.299
302.306
302.313
302.318
302.323
302.329
302.334
302.34
302.344
302.347
302.346
302.342
302.335
302.326
302.319
302.317
302.318
302.323
302.328
302.33
302.332
302.334
302.336
302.337
302.338
302.339
302.339
302.339
302.339
302.34
302.341
302.342
302.343
302.344
302.345
302.346
302.347
302.349
302.35
302.352
302.353
302.355
302.357
302.36
302.363
302.365
302.368
302.371
302.374
302.377
302.379
302.38
302.381
302.382
302.387
302.404
302.448
302.496
302.542
302.587
302.634
302.682
302.726
302.764
302.799
302.831
302.317
302.332
302.345
302.345
302.338
302.328
302.321
302.316
302.303
302.257
302.147
302.089
302.079
302.091
302.113
302.138
302.162
302.185
302.205
302.222
302.235
302.246
302.255
302.262
302.269
302.277
302.284
302.291
302.298
302.303
302.308
302.312
302.315
302.317
302.317
302.313
302.307
302.297
302.289
302.286
302.287
302.292
302.298
302.301
302.303
302.306
302.309
302.311
302.312
302.313
302.313
302.313
302.313
302.313
302.314
302.315
302.316
302.317
302.318
302.319
302.32
302.321
302.322
302.324
302.325
302.327
302.329
302.332
302.334
302.337
302.34
302.343
302.346
302.348
302.35
302.351
302.352
302.353
302.358
302.375
302.418
302.466
302.511
302.556
302.602
302.65
302.694
302.733
302.767
302.799
302.291
302.307
302.318
302.318
302.31
302.3
302.292
302.287
302.275
302.234
302.131
302.078
302.069
302.081
302.102
302.125
302.148
302.17
302.189
302.205
302.217
302.226
302.232
302.237
302.243
302.25
302.258
302.266
302.275
302.282
302.287
302.29
302.292
302.292
302.291
302.288
302.283
302.274
302.265
302.261
302.262
302.267
302.273
302.277
302.28
302.284
302.288
302.291
302.293
302.294
302.294
302.294
302.294
302.295
302.296
302.297
302.298
302.299
302.299
302.3
302.301
302.302
302.303
302.305
302.306
302.308
302.31
302.312
302.315
302.318
302.32
302.323
302.326
302.328
302.33
302.331
302.332
302.333
302.338
302.354
302.395
302.441
302.485
302.529
302.576
302.623
302.667
302.705
302.74
302.771
302.267
302.281
302.292
302.291
302.282
302.272
302.264
302.259
302.25
302.219
302.14
302.1
302.095
302.106
302.123
302.143
302.163
302.182
302.2
302.213
302.222
302.227
302.229
302.231
302.235
302.241
302.249
302.26
302.27
302.28
302.287
302.291
302.292
302.292
302.29
302.288
302.283
302.276
302.268
302.263
302.263
302.267
302.272
302.275
302.279
302.284
302.289
302.293
302.296
302.297
302.297
302.296
302.296
302.297
302.298
302.3
302.301
302.302
302.303
302.304
302.305
302.306
302.307
302.309
302.31
302.312
302.314
302.316
302.319
302.322
302.324
302.327
302.33
302.332
302.334
302.336
302.337
302.338
302.342
302.356
302.391
302.431
302.471
302.512
302.557
302.603
302.646
302.683
302.717
302.747
302.242
302.256
302.266
302.265
302.255
302.244
302.236
302.232
302.229
302.22
302.196
302.185
302.187
302.195
302.205
302.218
302.231
302.246
302.259
302.269
302.275
302.277
302.276
302.275
302.276
302.282
302.292
302.305
302.319
302.332
302.343
302.349
302.352
302.352
302.351
302.35
302.349
302.344
302.339
302.334
302.331
302.33
302.33
302.328
302.327
302.33
302.333
302.336
302.336
302.335
302.334
302.334
302.334
302.335
302.337
302.339
302.341
302.343
302.345
302.346
302.348
302.35
302.352
302.354
302.356
302.358
302.361
302.363
302.366
302.37
302.373
302.377
302.38
302.383
302.385
302.387
302.389
302.391
302.394
302.403
302.421
302.444
302.472
302.506
302.546
302.588
302.629
302.664
302.695
302.724
302.218
302.232
302.241
302.239
302.229
302.217
302.209
302.205
302.205
302.206
302.205
302.207
302.213
302.219
302.227
302.236
302.246
302.258
302.271
302.28
302.286
302.286
302.283
302.28
302.28
302.284
302.294
302.308
302.324
302.339
302.352
302.361
302.366
302.368
302.369
302.371
302.374
302.376
302.376
302.372
302.365
302.358
302.349
302.341
302.336
302.335
302.337
302.338
302.338
302.337
302.336
302.335
302.336
302.338
302.34
302.343
302.345
302.347
302.349
302.351
302.353
302.355
302.357
302.359
302.362
302.364
302.367
302.37
302.373
302.377
302.38
302.384
302.388
302.391
302.394
302.396
302.398
302.399
302.402
302.408
302.418
302.434
302.456
302.486
302.523
302.563
302.602
302.636
302.666
302.694
302.195
302.208
302.217
302.214
302.203
302.191
302.182
302.178
302.179
302.183
302.188
302.194
302.201
302.207
302.213
302.22
302.229
302.241
302.253
302.264
302.271
302.272
302.268
302.264
302.261
302.264
302.273
302.286
302.302
302.318
302.333
302.344
302.351
302.356
302.361
302.369
302.379
302.388
302.396
302.394
302.384
302.369
302.349
302.333
302.321
302.316
302.316
302.316
302.316
302.314
302.313
302.313
302.315
302.317
302.319
302.322
302.324
302.326
302.329
302.331
302.333
302.334
302.336
302.338
302.34
302.343
302.345
302.348
302.351
302.354
302.358
302.361
302.365
302.368
302.37
302.372
302.373
302.375
302.377
302.381
302.389
302.402
302.422
302.45
302.485
302.524
302.562
302.595
302.624
302.651
302.172
302.184
302.192
302.188
302.177
302.165
302.155
302.151
302.152
302.156
302.162
302.169
302.176
302.182
302.187
302.194
302.202
302.213
302.225
302.237
302.246
302.248
302.245
302.24
302.236
302.238
302.245
302.257
302.272
302.288
302.302
302.314
302.323
302.331
302.342
302.359
302.38
302.399
302.416
302.417
302.403
302.377
302.345
302.318
302.296
302.285
302.282
302.282
302.281
302.279
302.278
302.279
302.28
302.282
302.285
302.287
302.289
302.291
302.293
302.295
302.297
302.298
302.3
302.301
302.302
302.304
302.306
302.308
302.31
302.313
302.315
302.318
302.321
302.323
302.325
302.326
302.327
302.327
302.329
302.333
302.339
302.351
302.37
302.397
302.432
302.471
302.508
302.54
302.569
302.595
302.147
302.159
302.166
302.162
302.15
302.137
302.127
302.123
302.123
302.127
302.134
302.14
302.147
302.153
302.158
302.163
302.17
302.18
302.192
302.205
302.215
302.219
302.218
302.213
302.209
302.209
302.215
302.227
302.241
302.255
302.269
302.28
302.29
302.301
302.319
302.346
302.381
302.411
302.439
302.445
302.424
302.383
302.335
302.294
302.26
302.242
302.235
302.233
302.232
302.231
302.23
302.23
302.231
302.232
302.234
302.236
302.237
302.239
302.24
302.241
302.242
302.243
302.243
302.244
302.244
302.245
302.246
302.247
302.248
302.25
302.252
302.255
302.257
302.259
302.26
302.261
302.262
302.263
302.265
302.269
302.276
302.288
302.307
302.334
302.369
302.408
302.446
302.478
302.507
302.532
302.121
302.132
302.138
302.133
302.121
302.107
302.097
302.092
302.092
302.096
302.102
302.108
302.115
302.12
302.126
302.131
302.137
302.145
302.157
302.169
302.18
302.186
302.186
302.183
302.179
302.179
302.184
302.195
302.209
302.222
302.235
302.246
302.255
302.267
302.29
302.328
302.377
302.421
302.462
302.472
302.439
302.375
302.303
302.246
302.199
302.172
302.162
302.16
302.158
302.157
302.156
302.156
302.156
302.156
302.157
302.159
302.16
302.162
302.163
302.163
302.164
302.164
302.164
302.165
302.165
302.165
302.166
302.167
302.169
302.172
302.174
302.177
302.18
302.183
302.186
302.188
302.19
302.192
302.195
302.2
302.209
302.222
302.242
302.27
302.305
302.345
302.383
302.416
302.445
302.47
302.093
302.103
302.109
302.103
302.089
302.075
302.064
302.059
302.058
302.062
302.067
302.074
302.08
302.086
302.091
302.096
302.102
302.11
302.119
302.131
302.141
302.149
302.151
302.149
302.146
302.146
302.15
302.161
302.175
302.189
302.201
302.211
302.219
302.231
302.257
302.303
302.364
302.417
302.464
302.468
302.414
302.323
302.226
302.156
302.1
302.07
302.059
302.058
302.058
302.059
302.059
302.06
302.06
302.061
302.063
302.065
302.067
302.069
302.071
302.072
302.073
302.075
302.076
302.077
302.078
302.08
302.082
302.085
302.088
302.092
302.096
302.101
302.105
302.11
302.114
302.118
302.121
302.125
302.129
302.135
302.145
302.159
302.18
302.209
302.244
302.284
302.323
302.357
302.386
302.412
302.064
302.073
302.078
302.071
302.057
302.042
302.03
302.024
302.024
302.027
302.032
302.037
302.043
302.049
302.055
302.061
302.067
302.075
302.083
302.093
302.103
302.11
302.114
302.114
302.112
302.111
302.115
302.125
302.14
302.154
302.167
302.176
302.184
302.196
302.222
302.271
302.336
302.386
302.422
302.402
302.327
302.218
302.109
302.038
301.986
301.96
301.954
301.957
301.961
301.965
301.967
301.968
301.969
301.97
301.972
301.975
301.978
301.981
301.983
301.986
301.988
301.991
301.993
301.996
301.999
302.002
302.006
302.01
302.015
302.02
302.026
302.032
302.038
302.044
302.049
302.054
302.059
302.064
302.069
302.077
302.087
302.102
302.124
302.153
302.189
302.229
302.269
302.302
302.332
302.358
302.036
302.044
302.048
302.04
302.025
302.01
301.998
301.991
301.99
301.992
301.997
302.002
302.008
302.014
302.021
302.028
302.035
302.042
302.051
302.059
302.068
302.075
302.079
302.08
302.08
302.08
302.083
302.092
302.106
302.121
302.134
302.144
302.152
302.165
302.19
302.235
302.286
302.286
302.205
302.128
302.049
301.98
301.955
301.927
301.894
301.879
301.877
301.883
301.889
301.894
301.896
301.898
301.898
301.898
301.899
301.901
301.904
301.907
301.91
301.914
301.917
301.921
301.925
301.929
301.934
301.938
301.943
301.949
301.955
301.961
301.967
301.974
301.981
301.988
301.995
302.001
302.006
302.012
302.018
302.026
302.037
302.053
302.074
302.104
302.14
302.181
302.22
302.254
302.284
302.31
302.011
302.019
302.022
302.014
301.998
301.982
301.969
301.962
301.961
301.963
301.967
301.972
301.978
301.983
301.99
301.998
302.007
302.015
302.024
302.032
302.039
302.045
302.05
302.052
302.054
302.056
302.061
302.069
302.08
302.093
302.105
302.115
302.126
302.142
302.167
302.203
302.226
302.137
301.855
301.708
301.642
301.653
301.802
301.85
301.842
301.834
301.833
301.836
301.841
301.845
301.848
301.848
301.848
301.847
301.847
301.847
301.849
301.853
301.857
301.861
301.865
301.87
301.874
301.879
301.885
301.89
301.896
301.902
301.908
301.915
301.922
301.929
301.937
301.944
301.952
301.958
301.964
301.97
301.977
301.985
301.997
302.013
302.035
302.064
302.101
302.142
302.181
302.215
302.245
302.271
301.993
302
302.003
301.994
301.978
301.961
301.948
301.941
301.939
301.941
301.945
301.95
301.955
301.961
301.967
301.976
301.985
301.995
302.005
302.013
302.02
302.026
302.031
302.035
302.04
302.047
302.055
302.063
302.072
302.08
302.087
302.097
302.11
302.13
302.156
302.183
302.174
301.997
301.524
301.312
301.264
301.363
301.687
301.813
301.829
301.824
301.817
301.814
301.815
301.818
301.82
301.821
301.821
301.819
301.817
301.815
301.816
301.819
301.823
301.828
301.832
301.837
301.842
301.847
301.853
301.859
301.865
301.871
301.877
301.884
301.891
301.898
301.906
301.914
301.921
301.928
301.935
301.941
301.948
301.956
301.968
301.984
302.006
302.036
302.073
302.114
302.153
302.187
302.217
302.243
301.982
301.989
301.991
301.982
301.966
301.949
301.935
301.928
301.926
301.928
301.932
301.937
301.942
301.947
301.953
301.962
301.972
301.982
301.993
302.002
302.009
302.016
302.023
302.032
302.043
302.056
302.07
302.079
302.084
302.086
302.085
302.09
302.104
302.129
302.158
302.177
302.144
301.906
301.312
301.056
301.024
301.193
301.651
301.834
301.863
301.852
301.832
301.818
301.812
301.812
301.813
301.815
301.814
301.811
301.807
301.803
301.802
301.804
301.809
301.814
301.818
301.822
301.827
301.832
301.838
301.843
301.849
301.855
301.86
301.867
301.874
301.881
301.889
301.897
301.904
301.911
301.918
301.924
301.931
301.94
301.951
301.967
301.99
302.02
302.056
302.097
302.137
302.171
302.201
302.227
301.979
301.985
301.987
301.978
301.961
301.944
301.931
301.924
301.922
301.924
301.928
301.933
301.938
301.943
301.949
301.956
301.966
301.976
301.987
301.997
302.006
302.015
302.026
302.042
302.061
302.083
302.105
302.117
302.119
302.111
302.1
302.096
302.103
302.13
302.164
302.18
302.139
301.878
301.235
300.956
300.935
301.158
301.715
301.932
301.954
301.924
301.882
301.85
301.833
301.826
301.825
301.825
301.823
301.818
301.811
301.805
301.801
301.802
301.811
301.817
301.82
301.823
301.827
301.831
301.836
301.841
301.846
301.851
301.857
301.863
301.869
301.876
301.884
301.892
301.899
301.906
301.913
301.919
301.926
301.935
301.946
301.962
301.985
302.014
302.051
302.092
302.132
302.166
302.196
302.222
301.981
301.987
301.989
301.98
301.964
301.947
301.933
301.926
301.924
301.926
301.93
301.935
301.94
301.945
301.95
301.957
301.965
301.975
301.986
301.997
302.007
302.019
302.037
302.063
302.094
302.125
302.157
302.173
302.17
302.152
302.127
302.111
302.109
302.136
302.171
302.189
302.153
301.898
301.259
300.981
300.968
301.217
301.822
302.051
302.06
302.012
301.95
301.901
301.873
301.861
301.856
301.854
301.85
301.843
301.834
301.824
301.817
301.816
301.825
301.83
301.832
301.834
301.837
301.841
301.845
301.85
301.854
301.859
301.863
301.869
301.875
301.882
301.889
301.897
301.904
301.911
301.917
301.923
301.93
301.939
301.95
301.966
301.988
302.018
302.055
302.096
302.136
302.17
302.201
302.227
301.987
301.994
301.996
301.987
301.97
301.953
301.94
301.933
301.931
301.932
301.937
301.942
301.947
301.952
301.957
301.962
301.969
301.978
301.988
301.998
302.009
302.025
302.05
302.088
302.133
302.177
302.22
302.242
302.234
302.201
302.157
302.126
302.11
302.128
302.156
302.16
302.104
301.851
301.239
300.974
300.969
301.228
301.846
302.089
302.107
302.057
301.983
301.924
301.892
301.88
301.876
301.874
301.871
301.865
301.856
301.845
301.837
301.835
301.844
301.848
301.85
301.851
301.854
301.857
301.861
301.865
301.869
301.873
301.877
301.881
301.887
301.893
301.9
301.908
301.914
301.921
301.927
301.933
301.94
301.948
301.96
301.976
301.998
302.028
302.065
302.106
302.146
302.181
302.211
302.237
301.995
302.001
302.004
301.995
301.979
301.962
301.949
301.941
301.939
301.941
301.945
301.95
301.956
301.961
301.965
301.97
301.976
301.982
301.991
302
302.011
302.029
302.061
302.11
302.17
302.229
302.288
302.317
302.301
302.247
302.177
302.125
302.092
302.095
302.094
302.018
301.792
301.502
300.999
300.787
300.789
301.017
301.564
301.861
302.034
302.045
301.978
301.915
301.882
301.872
301.872
301.874
301.875
301.873
301.867
301.859
301.853
301.852
301.86
301.865
301.867
301.87
301.873
301.876
301.88
301.883
301.887
301.89
301.893
301.897
301.902
301.908
301.915
301.921
301.928
301.934
301.94
301.946
301.953
301.961
301.972
301.988
302.011
302.041
302.078
302.119
302.159
302.193
302.224
302.25
302.002
302.009
302.011
302.003
301.987
301.97
301.957
301.95
301.948
301.95
301.954
301.96
301.965
301.97
301.974
301.979
301.984
301.989
301.996
302.004
302.014
302.032
302.067
302.125
302.197
302.268
302.341
302.372
302.342
302.262
302.167
302.099
302.054
302.042
301.987
301.701
300.953
300.525
300.241
300.13
300.131
300.251
300.552
300.976
301.695
301.935
301.934
301.889
301.861
301.853
301.856
301.862
301.867
301.87
301.869
301.865
301.861
301.862
301.872
301.877
301.881
301.884
301.888
301.892
301.896
301.899
301.902
301.905
301.908
301.912
301.917
301.922
301.928
301.935
301.941
301.947
301.953
301.958
301.965
301.973
301.984
302
302.023
302.053
302.09
302.131
302.171
302.206
302.236
302.263
302.008
302.015
302.018
302.009
301.993
301.977
301.964
301.957
301.955
301.957
301.962
301.967
301.972
301.978
301.982
301.987
301.992
301.997
302.002
302.009
302.017
302.034
302.068
302.126
302.201
302.274
302.35
302.37
302.323
302.225
302.114
302.046
302.007
301.999
301.928
301.542
300.556
300.053
299.851
299.787
299.787
299.852
300.053
300.542
301.502
301.862
301.903
301.872
301.848
301.841
301.843
301.849
301.856
301.862
301.866
301.867
301.866
301.869
301.879
301.886
301.89
301.894
301.899
301.903
301.908
301.911
301.915
301.918
301.921
301.925
301.929
301.934
301.94
301.946
301.952
301.958
301.963
301.969
301.975
301.983
301.994
302.01
302.033
302.063
302.1
302.141
302.181
302.216
302.246
302.273
302.012
302.019
302.022
302.013
301.998
301.981
301.969
301.962
301.96
301.962
301.967
301.972
301.978
301.983
301.988
301.993
301.998
302.003
302.008
302.013
302.021
302.034
302.062
302.111
302.168
302.192
302.16
302.125
302.071
302.011
301.989
301.971
301.959
301.969
301.904
301.494
300.434
299.903
299.721
299.67
299.67
299.717
299.892
300.402
301.431
301.829
301.887
301.864
301.844
301.838
301.84
301.846
301.853
301.861
301.868
301.872
301.874
301.878
301.89
301.897
301.902
301.906
301.911
301.915
301.92
301.923
301.927
301.93
301.933
301.937
301.941
301.945
301.95
301.956
301.962
301.967
301.972
301.978
301.984
301.992
302.003
302.018
302.041
302.071
302.108
302.149
302.189
302.224
302.254
302.28
302.014
302.022
302.025
302.016
302.001
301.984
301.972
301.965
301.963
301.965
301.97
301.975
301.981
301.987
301.992
301.997
302.002
302.007
302.012
302.017
302.024
302.034
302.053
302.083
302.101
302.027
301.782
301.665
301.621
301.649
301.821
301.892
301.916
301.943
301.889
301.48
300.402
299.864
299.685
299.638
299.637
299.68
299.849
300.365
301.409
301.817
301.884
301.867
301.852
301.848
301.851
301.857
301.864
301.872
301.88
301.885
301.889
301.896
301.911
301.918
301.922
301.925
301.928
301.931
301.934
301.937
301.941
301.943
301.946
301.949
301.953
301.957
301.961
301.966
301.971
301.976
301.981
301.986
301.992
302
302.01
302.026
302.048
302.078
302.115
302.156
302.196
302.231
302.261
302.287
302.016
302.024
302.027
302.018
302.003
301.986
301.974
301.967
301.965
301.967
301.972
301.978
301.983
301.989
301.994
302
302.005
302.01
302.015
302.021
302.026
302.033
302.043
302.052
302.023
301.84
301.375
301.177
301.149
301.277
301.653
301.819
301.877
301.913
301.862
301.46
300.389
299.853
299.676
299.63
299.629
299.671
299.839
300.356
301.405
301.818
301.892
301.883
301.873
301.871
301.874
301.879
301.886
301.893
301.9
301.907
301.913
301.925
301.943
301.952
301.954
301.954
301.951
301.951
301.952
301.954
301.956
301.959
301.961
301.964
301.966
301.969
301.973
301.977
301.982
301.986
301.991
301.996
302.001
302.008
302.019
302.034
302.056
302.085
302.122
302.164
302.203
302.238
302.267
302.293
302.018