/*--------------------------------*- C++ -*----------------------------------*\
| =========                 |                                                 |
| \\      /  F ield         | OpenFOAM: The Open Source CFD Toolbox           |
|  \\    /   O peration     | Version:  v2012                                 |
|   \\  /    A nd           | Website:  www.openfoam.com                      |
|    \\/     M anipulation  |                                                 |
\*---------------------------------------------------------------------------*/
FoamFile
{
    version     2.0;
    format      ascii;
    class       volScalarField;
    location    "250/asphalt";
    object      T;
}
// * * * * * * * * * * * * * * * * * * * * * * * * * * * * * * * * * * * * * //

dimensions      [0 0 0 1 0 0 0];


internalField   nonuniform List<scalar> 
1980
(
321.612
322.029
322.44
322.79
323.09
323.348
323.572
323.769
323.946
324.106
324.251
324.383
324.504
324.615
324.717
324.812
324.899
324.98
325.054
325.123
325.186
325.245
325.3
325.353
325.403
325.452
325.499
325.546
325.592
325.639
325.683
325.723
325.749
325.783
325.817
325.85
325.881
325.912
325.943
325.974
326.004
326.034
326.063
326.091
326.121
326.15
326.178
326.205
326.231
326.255
326.279
326.302
326.325
326.349
326.373
326.398
326.424
326.454
326.495
326.525
326.552
326.577
326.603
326.627
326.651
326.674
326.696
326.719
326.742
326.764
326.786
326.808
326.83
326.852
326.873
326.894
326.913
326.931
326.95
326.969
326.987
327.006
327.024
327.043
327.065
327.091
327.12
327.163
327.262
327.56
321.621
322.039
322.45
322.801
323.102
323.361
323.586
323.785
323.964
324.125
324.271
324.404
324.525
324.636
324.738
324.833
324.92
325.001
325.075
325.144
325.208
325.267
325.323
325.377
325.428
325.477
325.526
325.573
325.621
325.667
325.712
325.754
325.792
325.828
325.862
325.896
325.929
325.961
325.993
326.024
326.055
326.085
326.114
326.143
326.171
326.199
326.227
326.254
326.281
326.307
326.332
326.356
326.38
326.405
326.429
326.454
326.479
326.505
326.531
326.557
326.583
326.608
326.634
326.659
326.682
326.706
326.729
326.752
326.775
326.797
326.82
326.842
326.864
326.886
326.908
326.928
326.948
326.968
326.986
327.004
327.021
327.037
327.053
327.07
327.091
327.115
327.144
327.187
327.286
327.587
321.626
322.043
322.455
322.806
323.107
323.368
323.595
323.796
323.976
324.138
324.284
324.417
324.539
324.65
324.752
324.847
324.934
325.015
325.089
325.158
325.222
325.282
325.339
325.393
325.445
325.496
325.545
325.593
325.641
325.687
325.732
325.773
325.812
325.848
325.883
325.918
325.952
325.985
326.017
326.049
326.079
326.109
326.139
326.168
326.196
326.224
326.251
326.279
326.306
326.333
326.359
326.384
326.41
326.434
326.459
326.484
326.508
326.533
326.558
326.582
326.607
326.632
326.658
326.683
326.707
326.73
326.753
326.777
326.8
326.823
326.846
326.868
326.891
326.913
326.934
326.956
326.977
326.997
327.016
327.034
327.051
327.067
327.083
327.1
327.12
327.143
327.171
327.214
327.315
327.618
321.628
322.046
322.458
322.809
323.111
323.372
323.601
323.803
323.984
324.147
324.294
324.427
324.548
324.66
324.762
324.857
324.944
325.025
325.099
325.168
325.233
325.294
325.351
325.406
325.459
325.51
325.56
325.609
325.656
325.702
325.745
325.786
325.825
325.861
325.897
325.932
325.966
326
326.032
326.064
326.095
326.126
326.155
326.185
326.212
326.24
326.268
326.295
326.323
326.35
326.377
326.403
326.429
326.455
326.48
326.505
326.53
326.554
326.579
326.603
326.628
326.652
326.678
326.702
326.726
326.75
326.774
326.797
326.821
326.844
326.867
326.89
326.913
326.935
326.957
326.979
327
327.02
327.04
327.06
327.078
327.095
327.112
327.13
327.149
327.172
327.199
327.242
327.344
327.649
321.631
322.048
322.46
322.811
323.114
323.376
323.606
323.81
323.991
324.154
324.301
324.435
324.556
324.668
324.77
324.865
324.952
325.033
325.108
325.177
325.242
325.304
325.362
325.418
325.472
325.523
325.573
325.622
325.669
325.714
325.757
325.797
325.835
325.872
325.908
325.943
325.978
326.012
326.045
326.076
326.108
326.138
326.168
326.198
326.226
326.254
326.281
326.309
326.337
326.364
326.392
326.419
326.445
326.471
326.497
326.522
326.547
326.572
326.597
326.621
326.646
326.67
326.695
326.72
326.744
326.768
326.792
326.816
326.84
326.864
326.888
326.911
326.934
326.957
326.979
327.001
327.022
327.043
327.064
327.084
327.103
327.122
327.14
327.159
327.179
327.201
327.228
327.27
327.373
327.68
321.633
322.051
322.463
322.815
323.118
323.381
323.612
323.816
323.998
324.161
324.308
324.442
324.564
324.675
324.778
324.872
324.96
325.041
325.116
325.186
325.252
325.314
325.373
325.429
325.483
325.535
325.586
325.634
325.681
325.725
325.767
325.807
325.845
325.883
325.919
325.954
325.989
326.023
326.056
326.088
326.12
326.15
326.181
326.21
326.238
326.266
326.295
326.322
326.35
326.378
326.406
326.433
326.46
326.486
326.512
326.538
326.564
326.589
326.614
326.639
326.664
326.688
326.713
326.738
326.762
326.787
326.811
326.836
326.86
326.884
326.908
326.932
326.956
326.979
327.002
327.024
327.046
327.068
327.089
327.11
327.13
327.149
327.169
327.188
327.209
327.231
327.258
327.3
327.404
327.714
321.636
322.054
322.466
322.818
323.122
323.386
323.617
323.822
324.004
324.167
324.315
324.448
324.57
324.682
324.784
324.879
324.967
325.048
325.123
325.194
325.26
325.323
325.383
325.44
325.494
325.546
325.596
325.645
325.691
325.734
325.776
325.816
325.855
325.892
325.929
325.964
325.999
326.033
326.067
326.099
326.13
326.161
326.192
326.222
326.25
326.279
326.307
326.335
326.363
326.391
326.419
326.447
326.474
326.5
326.527
326.553
326.579
326.605
326.63
326.655
326.68
326.705
326.73
326.755
326.78
326.805
326.829
326.854
326.879
326.904
326.929
326.953
326.978
327.001
327.025
327.048
327.071
327.094
327.116
327.138
327.159
327.18
327.2
327.22
327.241
327.264
327.291
327.334
327.44
327.755
321.638
322.056
322.469
322.822
323.126
323.39
323.622
323.826
324.009
324.172
324.319
324.453
324.575
324.687
324.79
324.885
324.972
325.054
325.13
325.201
325.268
325.332
325.392
325.449
325.504
325.556
325.606
325.654
325.699
325.743
325.785
325.825
325.864
325.902
325.939
325.975
326.01
326.044
326.077
326.109
326.141
326.172
326.203
326.233
326.262
326.291
326.32
326.348
326.377
326.405
326.433
326.46
326.487
326.514
326.541
326.567
326.593
326.619
326.645
326.671
326.696
326.722
326.747
326.772
326.797
326.823
326.848
326.873
326.899
326.924
326.949
326.974
326.999
327.024
327.048
327.072
327.096
327.12
327.144
327.167
327.19
327.212
327.234
327.256
327.278
327.302
327.33
327.374
327.483
327.803
321.64
322.058
322.471
322.824
323.128
323.393
323.625
323.83
324.013
324.176
324.324
324.458
324.58
324.692
324.796
324.891
324.979
325.061
325.138
325.209
325.277
325.341
325.402
325.459
325.514
325.567
325.617
325.665
325.71
325.754
325.796
325.837
325.876
325.915
325.952
325.988
326.023
326.058
326.091
326.124
326.157
326.188
326.219
326.249
326.279
326.308
326.338
326.366
326.395
326.423
326.451
326.479
326.507
326.534
326.561
326.587
326.614
326.64
326.667
326.693
326.718
326.744
326.77
326.795
326.821
326.847
326.872
326.898
326.924
326.95
326.975
327.001
327.026
327.052
327.077
327.101
327.126
327.151
327.176
327.2
327.224
327.248
327.271
327.294
327.318
327.344
327.373
327.419
327.53
327.852
321.642
322.061
322.475
322.829
323.135
323.401
323.634
323.841
324.024
324.19
324.339
324.474
324.597
324.711
324.815
324.911
325.001
325.084
325.162
325.236
325.305
325.37
325.432
325.491
325.547
325.6
325.651
325.7
325.746
325.791
325.834
325.876
325.917
325.956
325.995
326.032
326.068
326.104
326.138
326.172
326.206
326.238
326.27
326.301
326.332
326.363
326.393
326.423
326.453
326.482
326.511
326.539
326.567
326.596
326.623
326.651
326.678
326.706
326.733
326.76
326.787
326.813
326.84
326.866
326.893
326.919
326.946
326.973
326.999
327.026
327.053
327.079
327.105
327.131
327.157
327.183
327.209
327.234
327.26
327.285
327.31
327.334
327.359
327.383
327.408
327.435
327.465
327.51
327.617
327.928
321.649
322.075
322.496
322.858
323.17
323.442
323.682
323.894
324.084
324.254
324.409
324.549
324.678
324.796
324.905
325.007
325.101
325.189
325.271
325.349
325.422
325.492
325.558
325.62
325.68
325.737
325.791
325.844
325.894
325.943
325.99
326.035
326.08
326.123
326.164
326.205
326.245
326.283
326.321
326.359
326.395
326.431
326.466
326.501
326.535
326.569
326.602
326.635
326.667
326.699
326.731
326.762
326.794
326.824
326.855
326.885
326.916
326.946
326.976
327.005
327.035
327.064
327.094
327.123
327.152
327.181
327.21
327.24
327.269
327.298
327.327
327.356
327.385
327.414
327.442
327.47
327.498
327.526
327.553
327.58
327.607
327.633
327.659
327.685
327.712
327.739
327.77
327.814
327.908
328.174
322.781
323.244
323.685
324.057
324.376
324.65
324.889
325.1
325.288
325.457
325.61
325.749
325.877
325.994
326.102
326.202
326.295
326.38
326.459
326.532
326.599
326.661
326.72
326.776
326.829
326.881
326.931
326.98
327.03
327.078
327.126
327.17
327.204
327.241
327.277
327.312
327.345
327.378
327.411
327.444
327.476
327.507
327.538
327.568
327.599
327.63
327.659
327.687
327.715
327.74
327.765
327.789
327.814
327.839
327.864
327.89
327.917
327.947
327.984
328.014
328.042
328.068
328.095
328.121
328.145
328.17
328.194
328.218
328.242
328.266
328.29
328.314
328.338
328.362
328.386
328.409
328.431
328.452
328.473
328.492
328.51
328.526
328.542
328.56
328.582
328.609
328.641
328.686
328.79
329.136
322.785
323.248
323.689
324.061
324.38
324.655
324.895
325.106
325.295
325.465
325.619
325.759
325.888
326.005
326.113
326.213
326.306
326.391
326.47
326.543
326.61
326.673
326.732
326.789
326.843
326.895
326.947
326.997
327.047
327.096
327.144
327.188
327.229
327.268
327.304
327.34
327.375
327.409
327.443
327.476
327.508
327.54
327.571
327.601
327.631
327.66
327.69
327.718
327.746
327.773
327.8
327.825
327.851
327.876
327.902
327.927
327.953
327.98
328.007
328.034
328.061
328.087
328.115
328.141
328.166
328.19
328.214
328.239
328.263
328.287
328.312
328.336
328.36
328.384
328.408
328.432
328.455
328.477
328.498
328.517
328.535
328.55
328.565
328.583
328.604
328.631
328.662
328.707
328.812
329.161
322.786
323.249
323.689
324.062
324.381
324.656
324.897
325.109
325.299
325.471
325.625
325.766
325.894
326.012
326.12
326.22
326.313
326.398
326.477
326.549
326.617
326.681
326.741
326.798
326.853
326.907
326.958
327.009
327.06
327.109
327.156
327.2
327.241
327.279
327.316
327.353
327.389
327.424
327.458
327.491
327.523
327.555
327.586
327.617
327.646
327.675
327.704
327.733
327.762
327.79
327.817
327.844
327.87
327.896
327.922
327.948
327.974
328
328.025
328.051
328.077
328.103
328.13
328.156
328.181
328.206
328.231
328.255
328.28
328.305
328.33
328.354
328.378
328.403
328.427
328.451
328.475
328.498
328.52
328.54
328.559
328.577
328.593
328.611
328.632
328.658
328.689
328.734
328.841
329.192
322.785
323.248
323.688
324.06
324.379
324.656
324.898
325.111
325.303
325.474
325.63
325.771
325.899
326.017
326.125
326.225
326.317
326.402
326.481
326.554
326.622
326.686
326.747
326.806
326.862
326.915
326.968
327.019
327.069
327.118
327.164
327.207
327.247
327.286
327.324
327.36
327.397
327.432
327.467
327.5
327.533
327.565
327.596
327.627
327.656
327.685
327.714
327.743
327.771
327.8
327.829
327.856
327.883
327.91
327.936
327.962
327.988
328.014
328.04
328.065
328.091
328.117
328.143
328.169
328.194
328.219
328.244
328.269
328.295
328.32
328.345
328.369
328.394
328.419
328.443
328.467
328.491
328.515
328.538
328.56
328.581
328.601
328.62
328.639
328.661
328.686
328.717
328.762
328.869
329.223
322.785
323.247
323.688
324.06
324.379
324.656
324.899
325.114
325.306
325.478
325.633
325.774
325.902
326.02
326.128
326.228
326.32
326.406
326.485
326.558
326.627
326.692
326.754
326.813
326.869
326.924
326.976
327.028
327.077
327.125
327.17
327.213
327.253
327.292
327.33
327.367
327.403
327.439
327.474
327.507
327.54
327.572
327.604
327.635
327.664
327.693
327.722
327.751
327.78
327.809
327.838
327.866
327.894
327.921
327.947
327.974
328
328.026
328.052
328.078
328.103
328.129
328.155
328.181
328.207
328.232
328.257
328.283
328.308
328.334
328.359
328.385
328.41
328.435
328.459
328.484
328.508
328.532
328.556
328.579
328.601
328.623
328.644
328.666
328.689
328.714
328.744
328.789
328.897
329.253
322.786
323.248
323.689
324.061
324.381
324.658
324.902
325.117
325.31
325.482
325.637
325.778
325.906
326.024
326.132
326.232
326.324
326.41
326.489
326.563
326.632
326.698
326.761
326.82
326.877
326.932
326.985
327.036
327.085
327.132
327.176
327.218
327.259
327.298
327.336
327.373
327.41
327.446
327.481
327.514
327.547
327.58
327.611
327.642
327.672
327.701
327.731
327.76
327.789
327.818
327.847
327.876
327.904
327.931
327.958
327.985
328.012
328.038
328.065
328.09
328.116
328.142
328.168
328.194
328.22
328.245
328.271
328.297
328.323
328.349
328.375
328.401
328.426
328.452
328.477
328.502
328.527
328.552
328.576
328.6
328.623
328.646
328.669
328.692
328.716
328.741
328.771
328.817
328.927
329.285
322.788
323.25
323.691
324.063
324.383
324.661
324.905
325.121
325.313
325.485
325.64
325.781
325.91
326.027
326.136
326.236
326.328
326.414
326.493
326.568
326.638
326.704
326.767
326.827
326.885
326.94
326.993
327.043
327.092
327.138
327.182
327.224
327.265
327.304
327.343
327.38
327.417
327.453
327.488
327.521
327.555
327.587
327.619
327.65
327.68
327.71
327.74
327.769
327.798
327.828
327.857
327.885
327.913
327.941
327.968
327.996
328.023
328.05
328.076
328.102
328.129
328.155
328.181
328.207
328.233
328.259
328.285
328.311
328.338
328.364
328.39
328.417
328.443
328.469
328.495
328.521
328.547
328.573
328.598
328.624
328.648
328.672
328.696
328.72
328.745
328.771
328.802
328.848
328.961
329.324
322.789
323.252
323.692
324.065
324.385
324.663
324.908
325.123
325.315
325.488
325.643
325.784
325.913
326.031
326.139
326.239
326.332
326.417
326.498
326.573
326.643
326.71
326.774
326.834
326.892
326.947
326.999
327.05
327.098
327.144
327.188
327.23
327.271
327.311
327.35
327.387
327.424
327.46
327.495
327.529
327.563
327.595
327.627
327.659
327.689
327.719
327.749
327.779
327.808
327.838
327.867
327.895
327.924
327.951
327.979
328.007
328.034
328.061
328.088
328.114
328.141
328.167
328.194
328.22
328.246
328.273
328.299
328.326
328.353
328.379
328.406
328.433
328.46
328.486
328.513
328.54
328.566
328.593
328.62
328.647
328.673
328.699
328.725
328.75
328.777
328.805
328.837
328.884
329
329.369
322.79
323.252
323.693
324.066
324.386
324.665
324.909
325.125
325.318
325.49
325.646
325.787
325.916
326.034
326.143
326.243
326.336
326.422
326.503
326.579
326.65
326.718
326.781
326.842
326.9
326.955
327.008
327.058
327.106
327.152
327.197
327.24
327.281
327.321
327.36
327.398
327.435
327.472
327.507
327.541
327.575
327.608
327.64
327.672
327.703
327.734
327.764
327.794
327.824
327.853
327.882
327.911
327.939
327.968
327.996
328.023
328.051
328.078
328.105
328.132
328.159
328.186
328.212
328.239
328.265
328.292
328.319
328.346
328.373
328.4
328.428
328.455
328.482
328.509
328.536
328.563
328.59
328.618
328.645
328.673
328.7
328.727
328.754
328.781
328.809
328.839
328.872
328.921
329.038
329.409
322.791
323.255
323.696
324.07
324.392
324.672
324.917
325.134
325.328
325.502
325.659
325.801
325.931
326.05
326.16
326.262
326.356
326.444
326.526
326.603
326.676
326.744
326.81
326.871
326.93
326.986
327.04
327.091
327.14
327.187
327.233
327.277
327.319
327.361
327.401
327.44
327.478
327.515
327.551
327.587
327.622
327.656
327.689
327.722
327.754
327.786
327.817
327.848
327.879
327.909
327.939
327.969
327.998
328.027
328.056
328.084
328.113
328.141
328.169
328.197
328.225
328.252
328.28
328.307
328.335
328.362
328.39
328.418
328.445
328.473
328.501
328.529
328.557
328.585
328.613
328.641
328.669
328.697
328.725
328.753
328.781
328.809
328.836
328.865
328.894
328.924
328.958
329.007
329.118
329.475
322.799
323.271
323.721
324.102
324.431
324.719
324.971
325.195
325.395
325.575
325.738
325.887
326.022
326.147
326.263
326.37
326.469
326.562
326.649
326.732
326.809
326.882
326.952
327.018
327.081
327.142
327.199
327.255
327.308
327.359
327.409
327.457
327.504
327.549
327.593
327.636
327.678
327.719
327.759
327.798
327.837
327.875
327.912
327.948
327.984
328.019
328.054
328.089
328.123
328.156
328.189
328.222
328.255
328.287
328.319
328.35
328.382
328.413
328.444
328.475
328.506
328.537
328.567
328.598
328.628
328.659
328.689
328.72
328.751
328.781
328.812
328.843
328.874
328.904
328.935
328.966
328.996
329.027
329.057
329.087
329.117
329.147
329.177
329.207
329.237
329.269
329.304
329.351
329.448
329.751
)
;

boundaryField
{
    inlet
    {
        type            zeroGradient;
    }
    outlet
    {
        type            zeroGradient;
    }
    side
    {
        type            zeroGradient;
    }
    asphalt_to_soil1
    {
        type            compressible::turbulentTemperatureRadCoupledMixed;
        refValue        nonuniform List<scalar> 
990
(
320.43
320.805
321.187
321.515
321.796
322.038
322.247
322.432
322.597
322.748
322.885
323.011
323.125
323.229
323.325
323.414
323.496
323.572
323.642
323.706
323.766
323.822
323.874
323.923
323.97
324.016
324.061
324.104
324.148
324.191
324.233
324.269
324.289
324.319
324.351
324.382
324.411
324.44
324.47
324.499
324.527
324.555
324.582
324.609
324.637
324.665
324.691
324.716
324.741
324.764
324.786
324.808
324.83
324.853
324.876
324.9
324.925
324.955
324.998
325.028
325.054
325.078
325.102
325.126
325.148
325.169
325.191
325.212
325.233
325.254
325.274
325.294
325.314
325.334
325.353
325.371
325.387
325.404
325.42
325.438
325.458
325.48
325.501
325.523
325.545
325.569
325.596
325.636
325.73
325.988
320.444
320.819
321.202
321.531
321.814
322.057
322.269
322.456
322.624
322.776
322.914
323.04
323.154
323.259
323.355
323.444
323.526
323.602
323.672
323.737
323.797
323.853
323.905
323.956
324.004
324.051
324.096
324.141
324.185
324.229
324.271
324.31
324.345
324.379
324.411
324.443
324.474
324.505
324.534
324.564
324.592
324.621
324.648
324.676
324.703
324.729
324.755
324.781
324.806
324.831
324.855
324.878
324.901
324.924
324.947
324.97
324.994
325.019
325.045
325.07
325.095
325.119
325.143
325.167
325.189
325.211
325.233
325.254
325.275
325.296
325.317
325.337
325.358
325.377
325.397
325.415
325.433
325.449
325.465
325.482
325.498
325.516
325.534
325.553
325.573
325.595
325.622
325.662
325.756
326.016
320.453
320.828
321.212
321.542
321.825
322.07
322.284
322.473
322.643
322.796
322.934
323.06
323.174
323.279
323.376
323.465
323.547
323.623
323.693
323.758
323.818
323.875
323.928
323.98
324.029
324.076
324.122
324.168
324.213
324.256
324.298
324.337
324.374
324.408
324.441
324.474
324.506
324.537
324.567
324.597
324.626
324.654
324.682
324.71
324.736
324.763
324.789
324.815
324.84
324.866
324.891
324.915
324.939
324.962
324.986
325.009
325.033
325.056
325.08
325.103
325.127
325.151
325.175
325.199
325.221
325.243
325.265
325.287
325.309
325.33
325.351
325.372
325.392
325.412
325.431
325.45
325.469
325.486
325.503
325.519
325.535
325.55
325.566
325.583
325.602
325.623
325.649
325.689
325.784
326.047
320.458
320.834
321.218
321.548
321.833
322.079
322.295
322.486
322.657
322.81
322.949
323.074
323.189
323.294
323.391
323.48
323.562
323.638
323.709
323.774
323.835
323.892
323.946
323.998
324.048
324.096
324.143
324.189
324.234
324.277
324.318
324.357
324.393
324.428
324.461
324.494
324.527
324.558
324.589
324.619
324.648
324.677
324.705
324.733
324.759
324.786
324.812
324.838
324.864
324.89
324.915
324.941
324.965
324.989
325.013
325.037
325.061
325.084
325.107
325.13
325.154
325.177
325.201
325.225
325.247
325.27
325.292
325.314
325.336
325.358
325.379
325.4
325.421
325.441
325.46
325.48
325.498
325.516
325.533
325.55
325.566
325.582
325.598
325.614
325.632
325.652
325.677
325.716
325.812
326.076
320.463
320.839
321.223
321.554
321.84
322.087
322.304
322.496
322.668
322.822
322.961
323.086
323.201
323.306
323.403
323.492
323.575
323.651
323.722
323.787
323.849
323.907
323.962
324.015
324.065
324.114
324.161
324.207
324.251
324.294
324.334
324.372
324.409
324.443
324.477
324.51
324.543
324.575
324.606
324.636
324.666
324.695
324.724
324.751
324.778
324.804
324.831
324.857
324.883
324.91
324.936
324.961
324.987
325.011
325.036
325.06
325.084
325.108
325.131
325.154
325.177
325.201
325.224
325.248
325.271
325.294
325.316
325.339
325.361
325.383
325.405
325.426
325.447
325.468
325.487
325.507
325.526
325.544
325.562
325.579
325.596
325.612
325.628
325.644
325.661
325.681
325.705
325.744
325.841
326.107
320.467
320.844
321.228
321.56
321.846
322.095
322.313
322.506
322.678
322.832
322.971
323.097
323.212
323.317
323.414
323.503
323.586
323.662
323.733
323.799
323.861
323.92
323.976
324.029
324.08
324.129
324.177
324.222
324.266
324.308
324.348
324.386
324.422
324.458
324.492
324.525
324.558
324.59
324.622
324.652
324.682
324.711
324.74
324.768
324.795
324.821
324.848
324.874
324.901
324.928
324.954
324.98
325.006
325.031
325.055
325.08
325.104
325.129
325.152
325.176
325.199
325.223
325.246
325.27
325.293
325.316
325.339
325.362
325.385
325.408
325.43
325.452
325.473
325.494
325.515
325.535
325.554
325.573
325.591
325.609
325.626
325.643
325.659
325.676
325.693
325.712
325.736
325.775
325.873
326.141
320.471
320.848
321.233
321.565
321.852
322.102
322.32
322.514
322.686
322.84
322.979
323.105
323.221
323.326
323.423
323.513
323.595
323.672
323.743
323.81
323.873
323.932
323.988
324.042
324.093
324.143
324.19
324.236
324.279
324.321
324.36
324.398
324.435
324.47
324.505
324.538
324.571
324.604
324.635
324.666
324.696
324.725
324.754
324.782
324.809
324.836
324.863
324.89
324.917
324.944
324.97
324.996
325.022
325.048
325.073
325.098
325.123
325.147
325.172
325.196
325.219
325.243
325.267
325.291
325.314
325.338
325.361
325.385
325.408
325.431
325.454
325.477
325.499
325.521
325.542
325.563
325.583
325.603
325.623
325.641
325.659
325.677
325.693
325.71
325.728
325.747
325.771
325.811
325.911
326.183
320.474
320.851
321.237
321.57
321.857
322.107
322.326
322.519
322.692
322.846
322.986
323.112
323.228
323.333
323.43
323.52
323.603
323.68
323.752
323.819
323.882
323.942
323.999
324.053
324.105
324.154
324.201
324.247
324.29
324.331
324.371
324.409
324.446
324.482
324.517
324.55
324.584
324.616
324.648
324.678
324.709
324.738
324.767
324.796
324.824
324.851
324.878
324.906
324.933
324.959
324.986
325.012
325.038
325.064
325.089
325.115
325.14
325.165
325.19
325.214
325.238
325.263
325.287
325.311
325.335
325.359
325.383
325.407
325.431
325.454
325.478
325.501
325.524
325.547
325.569
325.591
325.612
325.634
325.655
325.675
325.694
325.713
325.732
325.75
325.768
325.789
325.813
325.854
325.957
326.234
320.476
320.854
321.239
321.573
321.861
322.111
322.33
322.524
322.697
322.852
322.992
323.119
323.234
323.34
323.438
323.528
323.611
323.689
323.761
323.829
323.893
323.954
324.011
324.066
324.117
324.167
324.214
324.26
324.303
324.345
324.384
324.423
324.46
324.497
324.532
324.566
324.6
324.632
324.664
324.696
324.726
324.756
324.786
324.815
324.843
324.871
324.899
324.926
324.954
324.981
325.008
325.034
325.06
325.086
325.112
325.138
325.163
325.189
325.214
325.239
325.264
325.288
325.313
325.337
325.362
325.386
325.411
325.435
325.459
325.484
325.508
325.532
325.556
325.579
325.602
325.625
325.647
325.669
325.691
325.713
325.734
325.754
325.774
325.794
325.815
325.836
325.862
325.905
326.009
326.289
320.479
320.857
321.244
321.579
321.868
322.12
322.341
322.536
322.71
322.866
323.007
323.136
323.252
323.36
323.458
323.55
323.634
323.713
323.787
323.857
323.922
323.984
324.042
324.098
324.151
324.201
324.25
324.296
324.34
324.383
324.424
324.464
324.502
324.539
324.576
324.611
324.646
324.679
324.712
324.745
324.776
324.807
324.838
324.868
324.897
324.926
324.955
324.984
325.012
325.04
325.068
325.095
325.122
325.149
325.176
325.202
325.229
325.255
325.281
325.307
325.333
325.358
325.384
325.409
325.435
325.46
325.486
325.511
325.536
325.561
325.587
325.611
325.636
325.66
325.684
325.708
325.731
325.754
325.777
325.8
325.822
325.843
325.865
325.886
325.908
325.931
325.958
326
326.101
326.372
320.486
320.87
321.263
321.604
321.899
322.157
322.383
322.583
322.763
322.924
323.07
323.202
323.324
323.435
323.538
323.634
323.722
323.805
323.883
323.956
324.026
324.091
324.153
324.212
324.268
324.322
324.374
324.423
324.47
324.516
324.561
324.604
324.645
324.686
324.725
324.764
324.801
324.838
324.874
324.909
324.943
324.977
325.01
325.043
325.075
325.107
325.139
325.17
325.201
325.231
325.262
325.292
325.321
325.351
325.38
325.409
325.438
325.466
325.495
325.523
325.552
325.58
325.608
325.636
325.663
325.691
325.719
325.747
325.774
325.802
325.829
325.856
325.883
325.909
325.936
325.961
325.987
326.012
326.037
326.061
326.084
326.107
326.13
326.153
326.176
326.2
326.227
326.268
326.357
326.591
)
;
        refGradient     uniform 0;
        valueFraction   nonuniform List<scalar> 
990
(
0.495766
0.495766
0.495766
0.495766
0.495766
0.495766
0.495766
0.495766
0.495766
0.495766
0.495766
0.495766
0.495766
0.495766
0.495766
0.495766
0.495766
0.495766
0.495766
0.495766
0.495766
0.495766
0.495766
0.495766
0.495766
0.495766
0.495766
0.495766
0.495766
0.495766
0.495766
0.495766
0.495766
0.495766
0.495766
0.495766
0.495766
0.495766
0.495766
0.495766
0.495766
0.495766
0.495766
0.495766
0.495766
0.495766
0.495766
0.495766
0.495766
0.495766
0.495766
0.495766
0.495766
0.495766
0.495766
0.495766
0.495766
0.495766
0.495766
0.495766
0.495766
0.495766
0.495766
0.495766
0.495766
0.495766
0.495766
0.495766
0.495766
0.495766
0.495766
0.495766
0.495766
0.495766
0.495766
0.495766
0.495766
0.495766
0.495766
0.495766
0.495766
0.495766
0.495766
0.495766
0.495766
0.495766
0.495766
0.495766
0.495766
0.495766
0.495766
0.495766
0.495766
0.495766
0.495766
0.495766
0.495766
0.495766
0.495766
0.495766
0.495766
0.495766
0.495766
0.495766
0.495766
0.495766
0.495766
0.495766
0.495766
0.495766
0.495766
0.495766
0.495766
0.495766
0.495766
0.495766
0.495766
0.495766
0.495766
0.495766
0.495766
0.495766
0.495766
0.495766
0.495766
0.495766
0.495766
0.495766
0.495766
0.495766
0.495766
0.495766
0.495766
0.495766
0.495766
0.495766
0.495766
0.495766
0.495766
0.495766
0.495766
0.495766
0.495766
0.495766
0.495766
0.495766
0.495766
0.495766
0.495766
0.495766
0.495766
0.495766
0.495766
0.495766
0.495766
0.495766
0.495766
0.495766
0.495766
0.495766
0.495766
0.495766
0.495766
0.495766
0.495766
0.495766
0.495766
0.495766
0.495766
0.495766
0.495766
0.495766
0.495766
0.495766
0.495766
0.495766
0.495766
0.495766
0.495766
0.495766
0.495766
0.495766
0.495766
0.495766
0.495766
0.495766
0.495766
0.495766
0.495766
0.495766
0.495766
0.495766
0.495766
0.495766
0.495766
0.495766
0.495766
0.495766
0.495766
0.495766
0.495766
0.495766
0.495766
0.495766
0.495766
0.495766
0.495766
0.495766
0.495766
0.495766
0.495766
0.495766
0.495766
0.495766
0.495766
0.495766
0.495766
0.495766
0.495766
0.495766
0.495766
0.495766
0.495766
0.495766
0.495766
0.495766
0.495766
0.495766
0.495766
0.495766
0.495766
0.495766
0.495766
0.495766
0.495766
0.495766
0.495766
0.495766
0.495766
0.495766
0.495766
0.495766
0.495766
0.495766
0.495766
0.495766
0.495766
0.495766
0.495766
0.495766
0.495766
0.495766
0.495766
0.495766
0.495766
0.495766
0.495766
0.495766
0.495766
0.495766
0.495766
0.495766
0.495766
0.495766
0.495766
0.495766
0.495766
0.495766
0.495766
0.495766
0.495766
0.495766
0.495766
0.495766
0.495766
0.495766
0.495766
0.495766
0.495766
0.495766
0.495766
0.495766
0.495766
0.495766
0.495766
0.495766
0.495766
0.495766
0.495766
0.495766
0.495766
0.495766
0.495766
0.495766
0.495766
0.495766
0.495766
0.495766
0.495766
0.495766
0.495766
0.495766
0.495766
0.495766
0.495766
0.495766
0.495766
0.495766
0.495766
0.495766
0.495766
0.495766
0.495766
0.495766
0.495766
0.495766
0.495766
0.495766
0.495766
0.495766
0.495766
0.495766
0.495766
0.495766
0.495766
0.495766
0.495766
0.495766
0.495766
0.495766
0.495766
0.495766
0.495766
0.495766
0.495766
0.495766
0.495766
0.495766
0.495766
0.495766
0.495766
0.495766
0.495766
0.495766
0.495766
0.495766
0.495766
0.495766
0.495766
0.495766
0.495766
0.495766
0.495766
0.495766
0.495766
0.495766
0.495766
0.495766
0.495766
0.495766
0.495766
0.495766
0.495766
0.495766
0.495766
0.495766
0.495766
0.495766
0.495766
0.495766
0.495766
0.495766
0.495766
0.495766
0.495766
0.495766
0.495766
0.495766
0.495766
0.495766
0.495766
0.495766
0.495766
0.495766
0.495766
0.495766
0.495766
0.495766
0.495766
0.495766
0.495766
0.495766
0.495766
0.495766
0.495766
0.495766
0.495766
0.495766
0.495766
0.495766
0.495766
0.495766
0.495766
0.495766
0.495766
0.495766
0.495766
0.495766
0.495766
0.495766
0.495766
0.495766
0.495766
0.495766
0.495766
0.495766
0.495766
0.495766
0.495766
0.495766
0.495766
0.495766
0.495766
0.495766
0.495766
0.495766
0.495766
0.495766
0.495766
0.495766
0.495766
0.495766
0.495766
0.495766
0.495766
0.495766
0.495766
0.495766
0.495766
0.495766
0.495766
0.495766
0.495766
0.495766
0.495766
0.495766
0.495766
0.495766
0.495766
0.495766
0.495766
0.495766
0.495766
0.495766
0.495766
0.495766
0.495766
0.495766
0.495766
0.495766
0.495766
0.495766
0.495766
0.495766
0.495766
0.495766
0.495766
0.495766
0.495766
0.495766
0.495766
0.495766
0.495766
0.495766
0.495766
0.495766
0.495766
0.495766
0.495766
0.495766
0.495766
0.495766
0.495766
0.495766
0.495766
0.495766
0.495766
0.495766
0.495766
0.495766
0.495766
0.495766
0.495766
0.495766
0.495766
0.495766
0.495766
0.495766
0.495766
0.495766
0.495766
0.495766
0.495766
0.495766
0.495766
0.495766
0.495766
0.495766
0.495766
0.495766
0.495766
0.495766
0.495766
0.495766
0.495766
0.495766
0.495766
0.495766
0.495766
0.495766
0.495766
0.495766
0.495766
0.495766
0.495766
0.495766
0.495766
0.495766
0.495766
0.495766
0.495766
0.495766
0.495766
0.495766
0.495766
0.495766
0.495766
0.495766
0.495766
0.495766
0.495766
0.495766
0.495766
0.495766
0.495766
0.495766
0.495766
0.495766
0.495766
0.495766
0.495766
0.495766
0.495766
0.495766
0.495766
0.495766
0.495766
0.495766
0.495766
0.495766
0.495766
0.495766
0.495766
0.495766
0.495766
0.495766
0.495766
0.495766
0.495766
0.495766
0.495766
0.495766
0.495766
0.495766
0.495766
0.495766
0.495766
0.495766
0.495766
0.495766
0.495766
0.495766
0.495766
0.495766
0.495766
0.495766