/*--------------------------------*- C++ -*----------------------------------*\
| =========                 |                                                 |
| \\      /  F ield         | OpenFOAM: The Open Source CFD Toolbox           |
|  \\    /   O peration     | Version:  v2012                                 |
|   \\  /    A nd           | Website:  www.openfoam.com                      |
|    \\/     M anipulation  |                                                 |
\*---------------------------------------------------------------------------*/
FoamFile
{
    version     2.0;
    format      ascii;
    class       volScalarField;
    location    "250/air";
    object      alphat;
}
// * * * * * * * * * * * * * * * * * * * * * * * * * * * * * * * * * * * * * //

dimensions      [1 -1 -1 0 0 0 0];


internalField   nonuniform List<scalar> 
287104
(
0.0064792
0.00600232
0.00563551
0.005343
0.00510415
0.00490563
0.00473827
0.00459548
0.00447241
0.00436539
0.00427162
0.0041889
0.00411546
0.00404992
0.00399112
0.00393814
0.00389019
0.00384662
0.00380688
0.00377052
0.00373713
0.00370638
0.00367797
0.00365165
0.00362721
0.00360444
0.00358318
0.00356328
0.00354461
0.00352705
0.0035105
0.00349485
0.00348003
0.00346596
0.00345256
0.00343977
0.00342753
0.00341578
0.00340447
0.00339357
0.00338301
0.00337276
0.00336279
0.00335306
0.00334353
0.00333419
0.00332501
0.00331596
0.00330703
0.00329819
0.00328944
0.00328075
0.00327211
0.00326352
0.00325496
0.00324642
0.00323789
0.00322937
0.00322083
0.00321226
0.00320366
0.00319501
0.00318629
0.00317748
0.00316858
0.00315956
0.0031504
0.00314109
0.0031316
0.00312193
0.00311205
0.00310197
0.00309165
0.00308111
0.00307035
0.00305935
0.00304814
0.00303672
0.00302512
0.00301333
0.00300139
0.00298929
0.00297705
0.00296465
0.00295205
0.0029391
0.00292562
0.00291078
0.00289489
0.00286576
0.00647915
0.00600221
0.00563531
0.00534275
0.00510384
0.00490528
0.00473787
0.00459505
0.00447195
0.00436492
0.00427114
0.00418841
0.00411499
0.00404946
0.00399068
0.00393772
0.0038898
0.00384627
0.00380657
0.00377025
0.0037369
0.0037062
0.00367784
0.00365157
0.00362717
0.00360446
0.00358326
0.00356343
0.00354483
0.00352735
0.00351087
0.00349532
0.00348059
0.00346662
0.00345333
0.00344066
0.00342854
0.00341693
0.00340576
0.00339499
0.00338457
0.00337447
0.00336464
0.00335506
0.00334568
0.00333647
0.00332742
0.0033185
0.00330968
0.00330095
0.00329229
0.00328369
0.00327513
0.0032666
0.00325808
0.00324958
0.00324107
0.00323254
0.00322399
0.00321539
0.00320675
0.00319803
0.00318924
0.00318034
0.00317133
0.00316219
0.0031529
0.00314345
0.00313381
0.00312398
0.00311394
0.00310369
0.00309321
0.00308251
0.00307159
0.00306044
0.0030491
0.00303755
0.00302584
0.00301397
0.00300196
0.00298983
0.00297759
0.00296522
0.00295269
0.00293985
0.00292655
0.00291195
0.00289638
0.0028679
0.00647918
0.00600224
0.00563534
0.00534276
0.00510385
0.00490527
0.00473785
0.00459501
0.00447189
0.00436485
0.00427106
0.00418833
0.00411491
0.00404939
0.00399063
0.0039377
0.0038898
0.00384629
0.00380663
0.00377033
0.00373702
0.00370635
0.00367802
0.00365179
0.00362744
0.00360477
0.00358362
0.00356385
0.00354531
0.00352789
0.00351149
0.00349601
0.00348138
0.0034675
0.00345432
0.00344175
0.00342975
0.00341826
0.00340722
0.00339658
0.00338631
0.00337635
0.00336667
0.00335723
0.003348
0.00333895
0.00333005
0.00332128
0.00331262
0.00330404
0.00329553
0.00328707
0.00327866
0.00327028
0.00326191
0.00325355
0.00324518
0.0032368
0.00322839
0.00321993
0.00321143
0.00320286
0.00319421
0.00318546
0.0031766
0.0031676
0.00315847
0.00314917
0.0031397
0.00313004
0.00312019
0.00311013
0.00309986
0.00308938
0.0030787
0.00306781
0.00305674
0.00304551
0.00303413
0.00302262
0.00301101
0.00299931
0.00298753
0.00297568
0.00296371
0.00295151
0.00293891
0.00292516
0.00291053
0.00288373
0.00647921
0.00600226
0.00563534
0.00534273
0.00510378
0.00490515
0.00473768
0.00459479
0.00447163
0.00436455
0.00427073
0.00418798
0.00411456
0.00404904
0.00399029
0.00393736
0.00388948
0.00384599
0.00380633
0.00377005
0.00373676
0.0037061
0.00367779
0.00365157
0.00362724
0.0036046
0.00358348
0.00356374
0.00354524
0.00352787
0.00351153
0.00349612
0.00348156
0.00346777
0.00345468
0.00344222
0.00343033
0.00341895
0.00340804
0.00339753
0.00338739
0.00337757
0.00336803
0.00335873
0.00334963
0.00334072
0.00333195
0.0033233
0.00331476
0.00330629
0.00329789
0.00328953
0.0032812
0.0032729
0.0032646
0.0032563
0.00324799
0.00323965
0.00323128
0.00322286
0.00321437
0.00320582
0.00319718
0.00318844
0.00317957
0.00317058
0.00316143
0.00315212
0.00314263
0.00313296
0.00312308
0.003113
0.00310271
0.00309221
0.0030815
0.00307059
0.0030595
0.00304824
0.00303683
0.00302529
0.00301365
0.00300191
0.00299011
0.00297823
0.00296625
0.00295407
0.00294153
0.0029279
0.00291344
0.00288712
0.00647924
0.0060023
0.00563537
0.00534274
0.00510375
0.00490509
0.00473757
0.00459464
0.00447143
0.0043643
0.00427045
0.00418768
0.00411425
0.00404874
0.00399
0.00393709
0.00388922
0.00384575
0.00380611
0.00376986
0.00373657
0.00370593
0.00367764
0.00365145
0.00362715
0.00360453
0.00358344
0.00356374
0.00354529
0.00352798
0.0035117
0.00349636
0.00348189
0.00346819
0.0034552
0.00344286
0.00343109
0.00341985
0.00340908
0.00339872
0.00338873
0.00337907
0.00336968
0.00336054
0.0033516
0.00334284
0.00333422
0.00332572
0.00331732
0.00330898
0.0033007
0.00329246
0.00328425
0.00327604
0.00326784
0.00325963
0.0032514
0.00324313
0.00323483
0.00322647
0.00321804
0.00320953
0.00320093
0.00319222
0.00318338
0.0031744
0.00316526
0.00315596
0.00314647
0.00313678
0.00312689
0.00311678
0.00310646
0.00309592
0.00308516
0.00307419
0.00306303
0.00305169
0.00304018
0.00302853
0.00301675
0.00300486
0.00299288
0.00298081
0.00296865
0.0029563
0.00294362
0.00292991
0.00291543
0.00288936
0.00647928
0.00600233
0.00563538
0.00534271
0.00510368
0.00490496
0.00473738
0.00459438
0.00447111
0.00436393
0.00427004
0.00418727
0.00411384
0.00404835
0.00398964
0.00393675
0.00388891
0.00384545
0.00380583
0.00376958
0.0037363
0.00370567
0.00367738
0.0036512
0.00362691
0.00360431
0.00358325
0.00356358
0.00354518
0.00352793
0.00351173
0.00349649
0.00348212
0.00346854
0.0034557
0.00344351
0.00343191
0.00342086
0.00341028
0.00340013
0.00339036
0.00338092
0.00337177
0.00336287
0.00335416
0.00334564
0.00333725
0.00332898
0.00332079
0.00331268
0.00330461
0.00329658
0.00328856
0.00328055
0.00327253
0.00326449
0.00325643
0.00324832
0.00324017
0.00323196
0.00322367
0.00321529
0.00320681
0.00319822
0.00318949
0.00318061
0.00317157
0.00316236
0.00315296
0.00314335
0.00313354
0.00312351
0.00311326
0.0031028
0.00309213
0.00308125
0.00307018
0.00305894
0.00304754
0.00303601
0.00302436
0.00301262
0.00300083
0.00298902
0.00297719
0.00296529
0.00295322
0.00294031
0.00292682
0.00290241
0.00647931
0.00600237
0.0056354
0.00534269
0.00510361
0.00490482
0.00473716
0.00459405
0.00447067
0.00436337
0.00426939
0.00418656
0.00411312
0.00404763
0.00398894
0.00393608
0.00388827
0.00384483
0.00380523
0.00376899
0.00373573
0.00370511
0.00367683
0.00365067
0.00362639
0.00360383
0.00358281
0.00356321
0.00354488
0.00352773
0.00351165
0.00349655
0.00348235
0.00346898
0.00345635
0.00344441
0.00343309
0.00342233
0.00341208
0.00340227
0.00339286
0.00338379
0.00337502
0.0033665
0.0033582
0.00335007
0.00334207
0.00333417
0.00332636
0.00331861
0.00331092
0.00330325
0.00329561
0.00328797
0.00328032
0.00327265
0.00326496
0.00325722
0.00324943
0.00324157
0.00323364
0.00322562
0.0032175
0.00320927
0.00320093
0.00319245
0.00318383
0.00317507
0.00316616
0.00315711
0.00314789
0.00313851
0.00312897
0.00311927
0.00310943
0.00309946
0.00308938
0.0030792
0.00306894
0.00305863
0.00304827
0.00303791
0.00302759
0.00301738
0.00300731
0.00299732
0.00298736
0.00297688
0.00296604
0.00294596
0.00647934
0.0060024
0.0056354
0.00534266
0.00510351
0.00490464
0.00473688
0.00459366
0.00447014
0.00436272
0.0042687
0.00418591
0.00411253
0.00404711
0.00398848
0.00393565
0.00388783
0.00384437
0.00380471
0.0037684
0.00373505
0.00370433
0.00367596
0.0036497
0.00362536
0.00360274
0.0035817
0.0035621
0.00354382
0.00352676
0.00351081
0.00349589
0.00348191
0.0034688
0.00345645
0.00344483
0.00343385
0.00342347
0.00341362
0.00340423
0.00339526
0.00338663
0.00337831
0.00337023
0.00336236
0.00335465
0.00334708
0.00333961
0.00333222
0.00332489
0.00331761
0.00331036
0.00330313
0.0032959
0.00328867
0.00328143
0.00327417
0.00326688
0.00325955
0.00325216
0.00324471
0.00323719
0.00322958
0.00322188
0.00321406
0.00320612
0.00319805
0.00318984
0.00318148
0.00317297
0.00316431
0.0031555
0.00314655
0.00313747
0.00312828
0.003119
0.00310965
0.00310024
0.00309081
0.00308136
0.00307187
0.00306239
0.00305299
0.00304375
0.00303469
0.00302582
0.00301717
0.00300849
0.00300062
0.00298714
0.00647938
0.00600243
0.0056354
0.00534261
0.00510338
0.00490439
0.00473645
0.00459298
0.0044691
0.00436124
0.00426742
0.00418558
0.00411348
0.00404929
0.00399156
0.00393921
0.00389142
0.00384756
0.00380718
0.00376991
0.00373545
0.00370354
0.003674
0.00364662
0.00362126
0.00359778
0.00357604
0.00355589
0.00353724
0.00351994
0.0035039
0.00348901
0.00347516
0.00346226
0.00345024
0.00343901
0.00342849
0.00341861
0.00340929
0.00340042
0.00339192
0.00338373
0.00337579
0.00336805
0.00336047
0.00335303
0.0033457
0.00333848
0.00333135
0.0033243
0.0033173
0.00331035
0.00330342
0.0032965
0.00328959
0.00328268
0.00327574
0.00326877
0.00326176
0.00325469
0.00324755
0.00324032
0.003233
0.00322557
0.00321802
0.00321033
0.00320249
0.00319451
0.00318637
0.00317807
0.00316962
0.00316102
0.0031523
0.00314346
0.00313453
0.00312554
0.00311652
0.0031075
0.00309849
0.00308946
0.00308034
0.00307124
0.00306232
0.00305365
0.00304529
0.00303724
0.00302956
0.00302212
0.00301583
0.00300675
0.00647941
0.00600245
0.0056354
0.00534255
0.00510324
0.00490414
0.00473604
0.00459234
0.00446813
0.00436003
0.00432588
0.00430793
0.00428176
0.00424293
0.00419354
0.00413732
0.00407771
0.00401736
0.00395819
0.00390147
0.00384801
0.00379829
0.00375252
0.00371074
0.00367288
0.00363876
0.00360814
0.00358068
0.00355599
0.00353364
0.00351318
0.00349415
0.00347608
0.00345884
0.00344431
0.00343182
0.00342084
0.00341096
0.00340188
0.00339338
0.00338531
0.00337753
0.00336994
0.00336249
0.00335535
0.0033486
0.00334219
0.0033361
0.00333025
0.00332459
0.00331908
0.00331366
0.0033083
0.00330297
0.00329765
0.0032923
0.0032869
0.00328144
0.00327589
0.00327025
0.00326448
0.00325858
0.00325255
0.00324636
0.00324001
0.00323349
0.0032268
0.00321992
0.00321286
0.00320561
0.0031982
0.00319062
0.00318291
0.00317508
0.00316717
0.0031592
0.00315122
0.00314327
0.00313542
0.00312758
0.00311393
0.00309927
0.00308522
0.00307226
0.00306047
0.00304975
0.00303998
0.00303085
0.00302297
0.00301242
0.00647944
0.00600248
0.00563539
0.00534248
0.00510305
0.00490376
0.00473531
0.00459097
0.00446496
0.00436334
0.00768762
0.00840846
0.00839547
0.00813731
0.00781308
0.00749053
0.0071944
0.00693238
0.00670542
0.00651192
0.00634943
0.0062152
0.00610645
0.00602032
0.00595397
0.00590448
0.00586899
0.00584469
0.00582893
0.00581929
0.00581367
0.00581031
0.00580787
0.00580536
0.00580306
0.00580147
0.00580049
0.00579983
0.00579928
0.00579868
0.00579799
0.00579729
0.00579635
0.00579519
0.00579369
0.00579199
0.00579037
0.00578917
0.00578863
0.00578892
0.00579015
0.00579234
0.00579547
0.00579952
0.00580448
0.00581032
0.005817
0.00582445
0.00583261
0.00584142
0.0058508
0.00586066
0.00587092
0.00588152
0.00589237
0.00590343
0.00591461
0.00592588
0.00593716
0.00594842
0.00595962
0.00597074
0.00598176
0.00599274
0.00600377
0.00601507
0.00602722
0.00604142
0.00606426
0.00609105
0.00489329
0.00418787
0.00375249
0.00347524
0.00329502
0.00317611
0.00309661
0.00304225
0.00300468
0.00297187
0.00647947
0.00600251
0.0056354
0.00534242
0.00510292
0.00490352
0.00473491
0.00459035
0.00446403
0.0043621
0.00768818
0.00841081
0.00839612
0.00813372
0.00780374
0.00747453
0.00717128
0.006902
0.00666791
0.00646763
0.00629888
0.00615911
0.00604568
0.0059559
0.00588697
0.00583604
0.00580021
0.00577656
0.00576229
0.00575481
0.0057518
0.00575128
0.00575165
0.00575162
0.00575029
0.00574703
0.00574145
0.00573331
0.00572248
0.00570891
0.00569262
0.00567369
0.00565265
0.0056297
0.00560505
0.00557898
0.00555179
0.0055237
0.00549492
0.00546567
0.00543635
0.00540704
0.0053779
0.00534907
0.0053207
0.00529292
0.00526587
0.0052397
0.00521455
0.00519055
0.00516785
0.00514658
0.00512692
0.00510903
0.00509306
0.00507917
0.00506752
0.00505823
0.00505142
0.00504719
0.0050456
0.00504669
0.0050505
0.00505703
0.00506633
0.00507849
0.00509386
0.00511302
0.00514073
0.00516822
0.00430728
0.0037811
0.00344503
0.00322378
0.00307528
0.00297431
0.00290482
0.00285519
0.00281831
0.0027776
0.0064795
0.00600254
0.0056354
0.00534238
0.0051028
0.00490327
0.00473449
0.00458969
0.00446301
0.00436059
0.0076815
0.00840476
0.00839176
0.00813094
0.00780211
0.00747352
0.00717041
0.00690094
0.00666645
0.00646573
0.00629668
0.0061569
0.00604388
0.00595505
0.00588771
0.00583905
0.00580614
0.00578604
0.00577586
0.0057729
0.00577473
0.00577928
0.00578487
0.00579019
0.00579426
0.00579641
0.00579621
0.00579344
0.00578798
0.00577979
0.00576893
0.00575549
0.00573961
0.0057215
0.00570134
0.00567936
0.00565578
0.00563082
0.00560472
0.00557763
0.00554952
0.00552061
0.00549096
0.00546056
0.00542937
0.00539735
0.00536445
0.00533057
0.00529566
0.00525962
0.00522239
0.00518389
0.00514409
0.00510296
0.00506053
0.00501685
0.004972
0.00492613
0.00487954
0.00483254
0.00478543
0.00473856
0.00469234
0.00464727
0.00460394
0.004563
0.00452537
0.00449178
0.00446616
0.00443804
0.00372422
0.0032975
0.00302986
0.00285496
0.00273667
0.00265417
0.00259481
0.00254878
0.00251239
0.0024622
0.00647953
0.00600257
0.00563541
0.00534235
0.00510272
0.00490312
0.00473425
0.00458934
0.00446253
0.00436
0.00767968
0.00840326
0.00839071
0.00813011
0.00780127
0.0074725
0.00716907
0.00689922
0.00666434
0.00646329
0.00629397
0.00615404
0.00604101
0.00595235
0.00588538
0.00583728
0.00580516
0.00578604
0.00577705
0.00577545
0.0057788
0.005785
0.00579237
0.00579955
0.00580559
0.0058098
0.00581172
0.0058111
0.00580777
0.00580166
0.00579277
0.00578116
0.00576698
0.00575045
0.00573181
0.00571139
0.00568952
0.00566655
0.0056428
0.00561855
0.00559403
0.00556939
0.00554471
0.00552008
0.00549552
0.00547105
0.00544698
0.00542308
0.00539911
0.00537486
0.00535014
0.00532483
0.0052988
0.00527199
0.00524432
0.00521578
0.00518638
0.00515624
0.00512577
0.00509474
0.00506302
0.00503066
0.00499776
0.00496448
0.00493108
0.00489788
0.00486545
0.00483428
0.0048077
0.0047779
0.00403942
0.00361648
0.00336431
0.00320571
0.00309936
0.0030225
0.00296232
0.0029103
0.00286063
0.00279583
0.00647956
0.0060026
0.00563543
0.00534234
0.00510266
0.00490301
0.00473406
0.00458906
0.00446215
0.00435949
0.00767726
0.00840054
0.00838808
0.00812766
0.00779897
0.00747027
0.00716684
0.0068969
0.0066619
0.00646069
0.00629124
0.00615122
0.00603819
0.00594962
0.00588285
0.00583509
0.00580342
0.00578488
0.00577657
0.00577575
0.00577998
0.00578714
0.00579554
0.00580386
0.0058111
0.00581657
0.00581979
0.00582045
0.00581831
0.00581323
0.00580512
0.005794
0.00577995
0.00576321
0.00574406
0.00572287
0.00570005
0.00567599
0.0056511
0.0056257
0.00560003
0.00557432
0.00554872
0.00552333
0.0054982
0.00547336
0.0054488
0.00542449
0.0054004
0.00537662
0.00535336
0.00533048
0.00530782
0.00528525
0.0052627
0.00524018
0.00521773
0.00519543
0.00517337
0.00515174
0.00513075
0.00511052
0.00509121
0.00507308
0.00505644
0.00504174
0.00502973
0.00502149
0.0050216
0.00503326
0.00426945
0.00384439
0.00359378
0.00343749
0.00333417
0.00326134
0.00320587
0.00315866
0.00311033
0.00304319
0.0064796
0.00600264
0.00563545
0.00534235
0.00510264
0.00490296
0.00473397
0.00458892
0.00446196
0.00435924
0.0076758
0.00839864
0.00838589
0.00812522
0.00779628
0.00746735
0.00716371
0.00689358
0.00665842
0.00645711
0.00628761
0.00614759
0.00603465
0.00594624
0.00587972
0.00583228
0.00580099
0.00578288
0.00577504
0.00577472
0.00577949
0.00578724
0.00579629
0.00580531
0.00581335
0.00581969
0.00582384
0.00582543
0.00582413
0.00581969
0.00581189
0.00580065
0.005786
0.00576814
0.00574744
0.00572434
0.00569936
0.005673
0.00564576
0.00561803
0.00559012
0.00556226
0.00553462
0.00550732
0.00548038
0.00545381
0.00542759
0.00540166
0.00537596
0.00535044
0.00532505
0.00529975
0.0052745
0.00524927
0.00522404
0.00519882
0.00517363
0.00514852
0.00512357
0.00509891
0.00507471
0.00505202
0.00503089
0.00501135
0.00499349
0.00497765
0.00496459
0.0049554
0.00495498
0.00496736
0.00422582
0.00381408
0.00357182
0.00342113
0.00332183
0.00325213
0.00319931
0.00315446
0.00310791
0.0030467
0.00647963
0.00600267
0.00563549
0.00534237
0.00510266
0.00490296
0.00473397
0.00458893
0.00446198
0.00435926
0.00767537
0.00839768
0.0083843
0.00812297
0.00779339
0.00746387
0.00715972
0.0068892
0.00665378
0.00645232
0.00628281
0.00614293
0.00603023
0.00594218
0.00587607
0.00582909
0.00579827
0.00578059
0.00577313
0.00577313
0.00577817
0.0057862
0.00579555
0.00580498
0.00581356
0.00582064
0.00582568
0.00582826
0.00582794
0.00582425
0.00581679
0.00580526
0.0057896
0.00577002
0.00574696
0.00572099
0.00569277
0.00566298
0.00563218
0.00560088
0.00556948
0.00553826
0.00550734
0.00547681
0.00544667
0.00541689
0.0053874
0.00535817
0.00532912
0.00530021
0.00527136
0.00524253
0.00521366
0.00518473
0.00515571
0.00512661
0.00509746
0.00506829
0.00503917
0.00501019
0.00498145
0.00495311
0.00492534
0.00489833
0.00487229
0.00484747
0.00482434
0.00480336
0.00478747
0.0047745
0.00405819
0.00365527
0.00341471
0.00326264
0.00316435
0.00309739
0.00304829
0.00300829
0.00297243
0.0029246
0.00647966
0.00600271
0.00563552
0.00534241
0.00510269
0.00490301
0.00473403
0.004589
0.00446207
0.00435935
0.00767407
0.00839512
0.00838071
0.00811869
0.0077887
0.00745901
0.00715488
0.00688452
0.00664937
0.00644833
0.00627939
0.00614025
0.0060285
0.00594158
0.00587677
0.00583117
0.00580174
0.0057854
0.00577917
0.00578033
0.0057865
0.00579572
0.00580646
0.00581759
0.0058283
0.00583794
0.00584594
0.0058517
0.00585448
0.00585339
0.00584758
0.00583643
0.00581971
0.00579774
0.00577119
0.00574099
0.0057082
0.00567378
0.00563857
0.00560321
0.00556809
0.00553347
0.0054994
0.00546585
0.00543272
0.00539989
0.00536721
0.00533454
0.00530177
0.00526882
0.00523562
0.00520212
0.00516826
0.00513401
0.00509932
0.00506416
0.00502854
0.00499246
0.00495599
0.00491917
0.00488209
0.00484488
0.0048077
0.00477075
0.00473428
0.00469862
0.00466432
0.00463185
0.00460467
0.00457433
0.00386249
0.0034538
0.00320782
0.00305177
0.00294663
0.00287086
0.00281221
0.00276247
0.00271781
0.00265935
0.00647969
0.00600275
0.00563557
0.00534247
0.00510278
0.00490314
0.00473426
0.00458938
0.00446272
0.00436036
0.00767797
0.00839764
0.00838104
0.00811697
0.00778543
0.00745495
0.00715098
0.00688197
0.00664955
0.00645279
0.00628978
0.00615821
0.00605545
0.0059786
0.00592446
0.00588967
0.00587076
0.0058644
0.0058675
0.0058774
0.00589192
0.00590933
0.00592838
0.00594813
0.00596783
0.0059868
0.00600421
0.00601898
0.00602963
0.00603434
0.00603134
0.00601931
0.00599784
0.00596757
0.00592991
0.00588679
0.00584031
0.0057924
0.00574473
0.00569851
0.00565452
0.00561308
0.00557418
0.00553753
0.00550269
0.00546912
0.00543633
0.00540389
0.00537144
0.00533873
0.00530558
0.00527194
0.00523782
0.00520328
0.00516846
0.00513354
0.00509874
0.00506429
0.00503047
0.00499761
0.00496603
0.00493611
0.00490821
0.00488274
0.0048601
0.00484071
0.00482523
0.0048143
0.00481173
0.00480935
0.00403801
0.00358077
0.00329649
0.00311235
0.00298875
0.00290292
0.00284113
0.00279373
0.00275511
0.00270871
0.00647972
0.0060028
0.00563562
0.00534253
0.00510286
0.00490327
0.00473445
0.00458969
0.00446322
0.00436099
0.00767308
0.00838984
0.00837463
0.0081144
0.00779051
0.00747328
0.0071893
0.00694735
0.00674864
0.00659101
0.00647074
0.00638333
0.00632392
0.00628763
0.00626985
0.00626637
0.00627356
0.00628845
0.00630867
0.00633245
0.00635852
0.00638605
0.00641447
0.00644343
0.00647261
0.00650155
0.00652951
0.0065552
0.00657659
0.00659081
0.00659454
0.00658489
0.00656011
0.00651995
0.00646564
0.00639945
0.00632427
0.00624329
0.00615971
0.00607652
0.00599642
0.00592159
0.00585368
0.00579373
0.00574234
0.00569955
0.00566478
0.00563701
0.00561515
0.00559801
0.00558442
0.00557332
0.00556384
0.00555522
0.00554704
0.00553912
0.00553151
0.00552432
0.00551778
0.00551214
0.00550767
0.0055046
0.00550315
0.00550353
0.00550595
0.00551059
0.00551778
0.00552807
0.00554543
0.00556447
0.00453642
0.00393534
0.00356684
0.00333307
0.00318089
0.0030795
0.00301017
0.00296045
0.00292222
0.00288415
0.00647975
0.00600284
0.00563568
0.00534261
0.005103
0.00490352
0.00473498
0.00459078
0.00446602
0.00435725
0.00428111
0.00421508
0.00414753
0.00408341
0.00402351
0.00396757
0.0039155
0.00386723
0.00382265
0.00378163
0.00374399
0.00370956
0.00367814
0.00364954
0.00362355
0.00359998
0.00357865
0.00355938
0.00354202
0.00352642
0.00351248
0.00350011
0.00348924
0.00347984
0.00347193
0.00346552
0.00346064
0.00345728
0.00345535
0.00345457
0.00345448
0.00345452
0.00345412
0.0034528
0.00345024
0.00344629
0.00344092
0.00343416
0.00342608
0.00341692
0.00340696
0.00339647
0.0033857
0.00337484
0.0033641
0.00335356
0.0033433
0.00333341
0.00332387
0.00331458
0.00330539
0.00329614
0.00328666
0.00327697
0.00326701
0.00325675
0.00324616
0.00323526
0.00322406
0.00321261
0.00320095
0.00318913
0.00317718
0.00316513
0.00315306
0.00314102
0.00312908
0.00311733
0.00310583
0.00309453
0.00307912
0.00306315
0.00304788
0.00303368
0.00302061
0.00300854
0.00299733
0.00298653
0.00297637
0.00296157
0.00647978
0.00600288
0.00563573
0.00534267
0.00510308
0.00490364
0.00473516
0.00459107
0.00446649
0.00435784
0.00426262
0.00417874
0.00410431
0.00403779
0.00397799
0.00392395
0.00387487
0.00383012
0.00378918
0.00375161
0.00371705
0.0036852
0.00365581
0.00362868
0.00360362
0.00358048
0.00355915
0.00353951
0.00352147
0.00350498
0.00348998
0.00347645
0.00346439
0.00345384
0.00344488
0.00343763
0.00343221
0.00342875
0.00342722
0.00342733
0.0034285
0.00342994
0.00343082
0.00343058
0.00342887
0.00342559
0.00342076
0.00341453
0.00340709
0.00339868
0.00338953
0.00337983
0.00336975
0.00335942
0.00334893
0.00333836
0.00332776
0.00331717
0.0033066
0.00329605
0.00328552
0.00327496
0.00326437
0.0032537
0.00324294
0.00323206
0.00322107
0.00320993
0.00319864
0.00318718
0.00317555
0.00316377
0.00315186
0.00313988
0.00312789
0.00311594
0.00310408
0.00309237
0.00308081
0.00306937
0.00305801
0.00304685
0.00303606
0.00302574
0.00301595
0.00300671
0.00299802
0.00298967
0.00298225
0.00297121
0.00647982
0.00600292
0.00563577
0.00534272
0.00510316
0.00490376
0.00473536
0.00459141
0.00446707
0.00435874
0.00426371
0.0041798
0.00410521
0.00403848
0.00397844
0.00392415
0.00387482
0.0038298
0.00378857
0.00375069
0.00371579
0.00368357
0.00365377
0.00362618
0.00360064
0.00357699
0.00355511
0.0035349
0.00351629
0.00349921
0.00348362
0.00346952
0.00345693
0.00344594
0.00343668
0.00342938
0.00342431
0.00342178
0.00342197
0.00342455
0.00342865
0.00343308
0.00343668
0.0034386
0.00343841
0.00343599
0.00343145
0.003425
0.00341694
0.00340769
0.00339749
0.00338661
0.00337528
0.00336369
0.00335196
0.00334015
0.00332836
0.00331667
0.00330513
0.00329374
0.0032825
0.00327138
0.00326037
0.00324943
0.00323853
0.00322763
0.00321671
0.00320575
0.00319472
0.00318361
0.00317243
0.00316119
0.00314989
0.00313858
0.00312727
0.00311601
0.00310484
0.0030938
0.00308296
0.00307234
0.00306197
0.00305186
0.00304209
0.0030327
0.0030237
0.00301507
0.0030067
0.00299825
0.00298977
0.00297533
0.00647985
0.00600296
0.00563581
0.00534276
0.00510318
0.00490378
0.00473538
0.00459143
0.00446708
0.0043587
0.00426352
0.00417938
0.00410451
0.00403749
0.00397716
0.00392257
0.00387293
0.00382761
0.00378607
0.00374787
0.00371264
0.00368007
0.00364992
0.00362197
0.00359605
0.00357202
0.00354976
0.00352917
0.00351016
0.00349269
0.0034767
0.00346221
0.00344923
0.00343789
0.00342838
0.00342105
0.00341642
0.00341511
0.00341783
0.00342441
0.00343357
0.00344346
0.00345207
0.00345807
0.00346089
0.00346043
0.00345693
0.00345077
0.00344251
0.00343276
0.00342192
0.00341032
0.00339823
0.00338587
0.00337342
0.00336098
0.00334864
0.00333644
0.00332441
0.00331255
0.00330084
0.00328925
0.00327776
0.00326634
0.00325493
0.00324353
0.00323208
0.00322058
0.003209
0.00319733
0.00318558
0.00317375
0.00316185
0.0031499
0.00313794
0.00312599
0.00311409
0.00310228
0.00309058
0.00307903
0.00306765
0.00305643
0.00304551
0.00303511
0.00302521
0.0030158
0.00300679
0.00299789
0.0029891
0.00297416
0.00647988
0.00600299
0.00563584
0.00534278
0.00510319
0.00490377
0.00473536
0.00459139
0.00446701
0.0043586
0.00426334
0.00417905
0.00410398
0.0040367
0.00397608
0.00392115
0.00387116
0.00382545
0.0037835
0.00374486
0.00370918
0.00367616
0.00364554
0.00361712
0.00359073
0.00356624
0.00354352
0.00352247
0.00350301
0.00348508
0.00346862
0.00345361
0.00344009
0.00342817
0.00341809
0.00341035
0.0034057
0.0034055
0.00341212
0.00342679
0.00344817
0.00347246
0.00349507
0.00351327
0.00352599
0.00353321
0.00353545
0.00353351
0.00352808
0.00352115
0.00351339
0.00350523
0.00349694
0.00348871
0.00348058
0.00347254
0.00346449
0.00345631
0.00344783
0.00343893
0.00342946
0.00341933
0.00340848
0.00339688
0.00338453
0.00337147
0.00335776
0.00334349
0.00332873
0.0033136
0.00329819
0.00328262
0.00326698
0.00325139
0.00323593
0.00322071
0.0032058
0.00319143
0.00317807
0.00316573
0.00315444
0.00314428
0.00313523
0.00312728
0.0031206
0.00311527
0.00311126
0.00310826
0.00310584
0.00309917
0.0064799
0.00600302
0.00563586
0.00534278
0.00510316
0.0049037
0.00473524
0.0045912
0.00446674
0.00435821
0.00426278
0.00417828
0.00410294
0.00403537
0.0039744
0.00391912
0.00386874
0.00382262
0.00378023
0.00374113
0.00370497
0.00367145
0.00364032
0.00361138
0.00358447
0.00355945
0.00353621
0.00351466
0.00349469
0.00347622
0.0034592
0.00344359
0.00342936
0.00341661
0.00340555
0.00339684
0.00339149
0.00339228
0.00340958
0.00345319
0.00352139
0.00359938
0.00367203
0.00373361
0.00378273
0.00382041
0.00384857
0.00386924
0.00388415
0.00389347
0.00390046
0.00390543
0.00390776
0.00390695
0.00390261
0.0038946
0.00388293
0.00386779
0.0038495
0.00382844
0.00380505
0.00377977
0.00375303
0.00372524
0.00369678
0.00366798
0.00363914
0.00361053
0.00358237
0.00355488
0.00352821
0.00350254
0.00347798
0.00345484
0.00343353
0.00341407
0.00339655
0.00338095
0.00336699
0.00335484
0.00334474
0.00333696
0.00333163
0.00332868
0.00332794
0.00332919
0.0033321
0.00333625
0.00334065
0.00334241
0.00647993
0.00600306
0.00563588
0.00534277
0.00510312
0.00490361
0.00473509
0.00459097
0.00446641
0.00435775
0.00426216
0.00417745
0.00410186
0.00403399
0.0039727
0.00391703
0.00386623
0.00381964
0.00377675
0.00373712
0.00370038
0.00366625
0.0036345
0.00360492
0.00357737
0.00355172
0.00352787
0.0035057
0.00348512
0.00346604
0.00344835
0.00343198
0.00341684
0.00340291
0.00339024
0.00337954
0.00337186
0.00337353
0.00344152
0.00362197
0.00388156
0.00414002
0.00435079
0.00450934
0.00462022
0.00469222
0.00473378
0.00475196
0.00475229
0.00473892
0.00471322
0.00467775
0.00463553
0.00458803
0.00453668
0.00448276
0.00442734
0.00437133
0.00431542
0.0042602
0.00420608
0.00415343
0.0041025
0.00405349
0.00400657
0.00396186
0.00391945
0.00387941
0.00384182
0.00380669
0.00377425
0.00374463
0.00371786
0.00369382
0.00367232
0.00365346
0.00363731
0.00362389
0.00361315
0.00360492
0.0036003
0.00359852
0.00359898
0.00360119
0.00360472
0.00360919
0.00361409
0.00361899
0.00362182
0.0036222
0.00647996
0.00600308
0.00563589
0.00534275
0.00510306
0.00490349
0.00473489
0.00459067
0.00446599
0.00435716
0.00426138
0.00417644
0.00410057
0.00403238
0.00397071
0.00391463
0.00386336
0.00381626
0.00377281
0.00373256
0.00369517
0.00366035
0.00362787
0.00359755
0.00356926
0.00354288
0.00351831
0.00349544
0.00347418
0.00345442
0.00343604
0.00341892
0.00340288
0.00338781
0.00337344
0.00336036
0.00334902
0.00335833
0.00369287
0.00437422
0.00507175
0.00556516
0.0058418
0.00595943
0.00596757
0.00590723
0.00580759
0.00568809
0.00556087
0.00543303
0.00530828
0.00518891
0.00507575
0.00496984
0.00487136
0.0047801
0.00469565
0.00461753
0.0045453
0.00447851
0.00441676
0.00435967
0.0043069
0.00425821
0.00421331
0.00417221
0.00413475
0.00410092
0.00407094
0.00404407
0.0040198
0.00399779
0.00397791
0.00396009
0.00394427
0.00393041
0.00391845
0.00390832
0.00389994
0.00389308
0.00388751
0.00388315
0.00387985
0.00387745
0.00387574
0.0038745
0.00387332
0.00387203
0.00386867
0.00386459
0.00647999
0.00600311
0.0056359
0.00534273
0.00510298
0.00490335
0.00473466
0.00459034
0.00446552
0.00435653
0.00426055
0.00417536
0.00409921
0.00403068
0.00396862
0.00391209
0.00386031
0.00381264
0.00376855
0.0037276
0.00368944
0.00365379
0.00362044
0.00358924
0.00356005
0.00353279
0.00350737
0.00348369
0.00346166
0.00344115
0.00342204
0.00340417
0.00338733
0.00337121
0.00335502
0.00333876
0.0033199
0.00336362
0.0046079
0.00604452
0.00696866
0.00735827
0.00737286
0.00717942
0.00689236
0.00658002
0.0062787
0.0060048
0.00576364
0.00555484
0.00537537
0.00522139
0.00508907
0.00497489
0.00487587
0.00478957
0.00471405
0.00464781
0.00459015
0.00454077
0.00449867
0.00446182
0.00442906
0.00439956
0.00437269
0.00434797
0.00432505
0.00430361
0.00428346
0.00426442
0.00424634
0.00422917
0.00421291
0.00419756
0.00418313
0.00416964
0.00415711
0.00414569
0.0041353
0.00412584
0.00411715
0.00410901
0.00410133
0.00409401
0.00408702
0.00408028
0.00407345
0.00406657
0.00405773
0.0040495
0.00648001
0.00600312
0.0056359
0.00534269
0.00510289
0.00490319
0.00473441
0.00458997
0.004465
0.00435584
0.00425964
0.0041742
0.00409774
0.00402885
0.00396636
0.00390934
0.003857
0.00380869
0.00376387
0.0037221
0.00368305
0.00364644
0.00361206
0.00357979
0.00354954
0.00352123
0.00349483
0.00347025
0.00344737
0.00342609
0.00340632
0.00338803
0.00337115
0.00335567
0.00334088
0.00332682
0.00330969
0.00335812
0.00470835
0.00623712
0.00720818
0.00757807
0.00757349
0.00735873
0.00704238
0.00669534
0.00635785
0.00604956
0.00577799
0.00554411
0.00534557
0.00517847
0.00503846
0.00492144
0.00482571
0.00474746
0.00468293
0.0046296
0.0045857
0.00454977
0.00452056
0.00449692
0.00447768