/*--------------------------------*- C++ -*----------------------------------*\
| =========                 |                                                 |
| \\      /  F ield         | OpenFOAM: The Open Source CFD Toolbox           |
|  \\    /   O peration     | Version:  v2012                                 |
|   \\  /    A nd           | Website:  www.openfoam.com                      |
|    \\/     M anipulation  |                                                 |
\*---------------------------------------------------------------------------*/
FoamFile
{
    version     2.0;
    format      ascii;
    class       volScalarField;
    location    "250/air";
    object      epsilon;
}
// * * * * * * * * * * * * * * * * * * * * * * * * * * * * * * * * * * * * * //

dimensions      [0 2 -3 0 0 0 0];


internalField   nonuniform List<scalar> 
287104
(
0.0965221
0.0769378
0.0638237
0.0545068
0.0476107
0.0423442
0.0382196
0.0349214
0.032237
0.0300191
0.0281625
0.0265906
0.0252463
0.0240864
0.0230777
0.0221941
0.0214149
0.0207238
0.0201073
0.0195547
0.019057
0.0186067
0.0181977
0.0178248
0.0174835
0.0171702
0.0168814
0.0166146
0.0163673
0.0161373
0.0159229
0.0157223
0.0155342
0.0153573
0.0151903
0.0150323
0.0148824
0.0147396
0.0146032
0.0144724
0.0143467
0.0142255
0.0141082
0.0139943
0.0138835
0.0137753
0.0136695
0.0135656
0.0134635
0.0133629
0.0132635
0.0131652
0.0130679
0.0129713
0.0128753
0.0127798
0.0126847
0.0125898
0.0124949
0.0124
0.0123047
0.012209
0.0121128
0.0120157
0.0119177
0.0118185
0.0117181
0.0116162
0.0115128
0.0114077
0.0113009
0.0111923
0.0110821
0.0109701
0.0108567
0.010742
0.0106262
0.0105096
0.0103926
0.0102753
0.0101582
0.0100413
0.00992485
0.00980867
0.00969234
0.00957461
0.0094537
0.00932183
0.00918231
0.00892278
0.0965162
0.0769276
0.0638102
0.0544915
0.047594
0.0423267
0.0382016
0.034903
0.0322184
0.0300005
0.0281439
0.0265722
0.0252282
0.0240687
0.0230604
0.0221773
0.0213987
0.0207082
0.0200923
0.0195402
0.0190431
0.0185934
0.018185
0.0178127
0.017472
0.0171593
0.0168713
0.0166052
0.0163586
0.0161295
0.015916
0.0157164
0.0155294
0.0153535
0.0151878
0.0150311
0.0148825
0.0147411
0.0146062
0.014477
0.0143528
0.0142331
0.0141173
0.014005
0.0138957
0.0137889
0.0136843
0.0135817
0.0134807
0.013381
0.0132825
0.0131849
0.0130881
0.0129919
0.0128961
0.0128007
0.0127054
0.0126101
0.0125147
0.0124191
0.0123229
0.0122262
0.0121287
0.0120303
0.0119308
0.01183
0.0117279
0.0116242
0.0115189
0.0114119
0.0113032
0.0111928
0.0110808
0.0109672
0.0108522
0.010736
0.010619
0.0105013
0.0103835
0.0102657
0.0101482
0.0100314
0.00991522
0.00979973
0.00968448
0.00956822
0.00944927
0.00931999
0.00918361
0.00893045
0.096514
0.076923
0.0638045
0.0544846
0.0475864
0.0423184
0.0381927
0.0348937
0.0322088
0.0299906
0.0281339
0.0265622
0.0252183
0.0240591
0.0230511
0.0221683
0.0213901
0.0206999
0.0200844
0.0195327
0.0190359
0.0185867
0.0181787
0.0178068
0.0174666
0.0171544
0.0168669
0.0166014
0.0163555
0.0161272
0.0159144
0.0157158
0.0155297
0.015355
0.0151904
0.0150349
0.0148876
0.0147475
0.014614
0.0144862
0.0143636
0.0142455
0.0141313
0.0140206
0.0139128
0.0138076
0.0137047
0.0136036
0.0135041
0.0134059
0.0133089
0.0132128
0.0131174
0.0130226
0.0129282
0.012834
0.01274
0.012646
0.0125519
0.0124574
0.0123625
0.0122669
0.0121706
0.0120733
0.011975
0.0118754
0.0117745
0.0116721
0.0115681
0.0114625
0.0113553
0.0112465
0.0111362
0.0110244
0.0109115
0.0107976
0.0106829
0.010568
0.010453
0.0103384
0.0102245
0.0101114
0.00999938
0.00988837
0.00977803
0.00966723
0.00955439
0.00943226
0.00930384
0.00906434
0.0965115
0.0769184
0.0637977
0.0544763
0.0475767
0.0423074
0.0381807
0.0348807
0.0321951
0.0299763
0.0281193
0.0265474
0.0252036
0.0240446
0.0230369
0.0221544
0.0213765
0.0206866
0.0200714
0.01952
0.0190235
0.0185744
0.0181667
0.017795
0.0174551
0.0171433
0.0168562
0.0165911
0.0163458
0.016118
0.015906
0.0157081
0.015523
0.0153493
0.0151858
0.0150316
0.0148856
0.0147469
0.0146149
0.0144887
0.0143676
0.0142511
0.0141385
0.0140293
0.0139231
0.0138194
0.0137179
0.0136181
0.0135199
0.0134229
0.0133269
0.0132318
0.0131372
0.0130431
0.0129493
0.0128557
0.0127621
0.0126684
0.0125744
0.01248
0.0123851
0.0122895
0.0121931
0.0120956
0.011997
0.0118972
0.0117959
0.0116931
0.0115887
0.0114827
0.011375
0.0112658
0.011155
0.0110429
0.0109295
0.0108152
0.0107002
0.0105849
0.0104696
0.0103547
0.0102404
0.0101269
0.0100146
0.00990344
0.00979314
0.00968269
0.00957058
0.0094498
0.00932323
0.00908851
0.0965095
0.0769141
0.063792
0.0544691
0.0475683
0.0422979
0.0381701
0.0348692
0.0321827
0.0299631
0.0281057
0.0265336
0.0251899
0.0240311
0.0230237
0.0221416
0.0213641
0.0206746
0.0200597
0.0195087
0.0190124
0.0185637
0.0181562
0.0177848
0.0174453
0.0171337
0.016847
0.0165825
0.0163377
0.0161106
0.0158994
0.0157024
0.0155183
0.0153457
0.0151835
0.0150307
0.0148862
0.0147491
0.0146187
0.0144942
0.0143749
0.0142602
0.0141494
0.014042
0.0139375
0.0138355
0.0137356
0.0136374
0.0135406
0.013445
0.0133503
0.0132563
0.0131628
0.0130696
0.0129767
0.0128838
0.0127908
0.0126977
0.0126042
0.0125102
0.0124156
0.0123202
0.0122239
0.0121265
0.0120279
0.0119279
0.0118265
0.0117234
0.0116187
0.0115124
0.0114043
0.0112946
0.0111832
0.0110705
0.0109564
0.0108413
0.0107255
0.0106093
0.0104929
0.0103767
0.0102611
0.0101461
0.0100322
0.00991939
0.00980754
0.00969574
0.00958265
0.00946158
0.00933527
0.00910338
0.0965073
0.0769098
0.0637858
0.0544613
0.0475589
0.042287
0.0381578
0.0348556
0.0321679
0.0299475
0.0280896
0.0265177
0.0251745
0.0240163
0.0230095
0.022128
0.0213509
0.0206618
0.0200472
0.0194963
0.0190002
0.0185515
0.0181442
0.0177729
0.0174335
0.0171222
0.0168359
0.0165718
0.0163277
0.0161014
0.0158911
0.0156953
0.0155125
0.0153414
0.015181
0.01503
0.0148876
0.0147527
0.0146247
0.0145027
0.014386
0.0142738
0.0141657
0.014061
0.0139592
0.0138598
0.0137624
0.0136667
0.0135723
0.013479
0.0133864
0.0132945
0.013203
0.0131117
0.0130204
0.0129292
0.0128377
0.012746
0.0126538
0.012561
0.0124675
0.0123731
0.0122777
0.0121811
0.0120832
0.0119839
0.011883
0.0117805
0.0116762
0.0115703
0.0114626
0.0113532
0.0112422
0.0111298
0.0110162
0.0109015
0.0107862
0.0106706
0.0105549
0.0104396
0.0103249
0.0102111
0.0100988
0.00998813
0.00987923
0.00977145
0.00966367
0.00954972
0.00943191
0.00921394
0.0965053
0.0769056
0.0637797
0.0544535
0.0475494
0.0422758
0.0381446
0.0348403
0.0321505
0.0299281
0.0280689
0.0264965
0.0251534
0.0239957
0.0229897
0.0221089
0.0213326
0.020644
0.0200299
0.0194794
0.0189836
0.0185352
0.0181281
0.0177572
0.0174181
0.0171073
0.0168216
0.0165584
0.0163152
0.0160902
0.0158815
0.0156875
0.0155069
0.0153382
0.0151805
0.0150325
0.0148934
0.0147621
0.0146379
0.0145198
0.0144072
0.0142994
0.0141955
0.0140952
0.0139978
0.0139028
0.0138096
0.0137179
0.0136273
0.0135377
0.0134488
0.0133604
0.0132724
0.0131846
0.0130969
0.013009
0.0129209
0.0128325
0.0127435
0.0126539
0.0125636
0.0124724
0.0123802
0.0122869
0.0121925
0.0120968
0.0119998
0.0119015
0.0118019
0.011701
0.0115988
0.0114952
0.0113906
0.011285
0.0111787
0.011072
0.0109653
0.0108588
0.0107531
0.0106483
0.0105447
0.0104426
0.0103428
0.0102456
0.0101512
0.0100592
0.00996859
0.00987411
0.00977742
0.00959337
0.0965032
0.0769013
0.0637735
0.0544454
0.0475394
0.0422636
0.0381303
0.0348236
0.0321314
0.0299071
0.0280476
0.0264763
0.0251349
0.0239788
0.0229739
0.0220939
0.0213177
0.0206289
0.0200141
0.0194626
0.0189656
0.0185159
0.0181076
0.0177355
0.0173955
0.0170841
0.0167981
0.016535
0.0162925
0.0160687
0.0158616
0.0156699
0.015492
0.0153266
0.0151722
0.0150278
0.0148924
0.0147652
0.0146452
0.0145315
0.0144233
0.0143198
0.0142202
0.014124
0.0140305
0.0139392
0.0138496
0.0137615
0.0136745
0.0135882
0.0135026
0.0134174
0.0133324
0.0132476
0.0131627
0.0130778
0.0129926
0.012907
0.012821
0.0127344
0.0126471
0.0125589
0.0124698
0.0123797
0.0122884
0.0121959
0.0121021
0.0120069
0.0119104
0.0118127
0.0117137
0.0116137
0.0115128
0.0114113
0.0113094
0.0112076
0.0111061
0.0110053
0.0109055
0.0108068
0.0107092
0.0106131
0.0105194
0.0104286
0.010341
0.0102568
0.0101759
0.0100962
0.0100266
0.0099045
0.0965011
0.076897
0.0637671
0.0544369
0.0475284
0.0422496
0.0381124
0.0348007
0.0321015
0.029869
0.0280149
0.0264626
0.025145
0.0240104
0.0230206
0.0221476
0.0213709
0.020675
0.0200483
0.0194816
0.0189677
0.0185006
0.0180754
0.0176877
0.017334
0.0170108
0.0167154
0.0164451
0.0161975
0.0159704
0.0157618
0.0155699
0.015393
0.0152295
0.0150783
0.014938
0.0148073
0.0146852
0.0145705
0.0144619
0.0143582
0.0142586
0.0141622
0.0140685
0.0139769
0.0138869
0.0137985
0.0137114
0.0136255
0.0135406
0.0134563
0.0133727
0.0132894
0.0132063
0.0131233
0.0130402
0.0129569
0.0128732
0.012789
0.0127042
0.0126185
0.012532
0.0124444
0.0123556
0.0122655
0.0121741
0.0120813
0.011987
0.0118914
0.0117945
0.0116964
0.0115974
0.0114977
0.0113976
0.0112974
0.0111977
0.0110988
0.0110011
0.010905
0.01081
0.0107154
0.0106224
0.0105327
0.010447
0.0103656
0.0102886
0.0102162
0.0101473
0.0100913
0.0100094
0.0964991
0.0768928
0.0637608
0.0544283
0.0475174
0.0422358
0.0380949
0.0347787
0.0320731
0.0298368
0.0291746
0.0288459
0.0283563
0.0276241
0.026702
0.0256723
0.0246067
0.0235567
0.0225556
0.0216226
0.020767
0.0199918
0.0192959
0.0186754
0.018125
0.0176388
0.0172103
0.0168323
0.0164976
0.0161989
0.0159288
0.0156805
0.0154469
0.0152246
0.0150401
0.0148835
0.0147474
0.0146261
0.0145155
0.0144126
0.0143152
0.0142216
0.0141305
0.0140411
0.0139556
0.0138748
0.0137982
0.0137253
0.0136553
0.0135875
0.0135212
0.0134558
0.0133909
0.0133262
0.0132612
0.0131956
0.0131293
0.0130619
0.0129932
0.0129231
0.0128515
0.0127781
0.0127029
0.0126259
0.012547
0.0124661
0.0123832
0.0122984
0.0122118
0.0121234
0.0120336
0.0119425
0.0118505
0.011758
0.0116655
0.0115734
0.0114823
0.0113927
0.0113053
0.0112192
0.0110726
0.0109174
0.0107709
0.010638
0.010519
0.0104125
0.0103172
0.0102296
0.0101563
0.0100582
0.0964971
0.0768885
0.0637542
0.0544193
0.0475051
0.0422188
0.0380701
0.0347402
0.0319976
0.0298984
0.163877
0.214945
0.214466
0.195748
0.173669
0.153377
0.136185
0.122085
0.11069
0.101557
0.0942919
0.0885643
0.0841035
0.0806861
0.0781245
0.076258
0.0749467
0.0740671
0.0735107
0.0731831
0.0730041
0.072908
0.072845
0.072777
0.0727142
0.0726772
0.0726624
0.0726595
0.0726601
0.0726592
0.0726551
0.0726507
0.0726369
0.0726142
0.0725786
0.0725344
0.0724927
0.0724655
0.0724617
0.0724869
0.0725448
0.0726362
0.0727599
0.0729152
0.0731015
0.0733179
0.0735623
0.0738327
0.0741266
0.074442
0.0747758
0.0751251
0.075487
0.0758589
0.0762384
0.0766233
0.0770114
0.0774006
0.0777892
0.0781756
0.0785586
0.0789377
0.0793133
0.0796879
0.0800662
0.0804579
0.0808874
0.0813956
0.0822424
0.0832252
0.043132
0.0270337
0.0194486
0.0154502
0.0131713
0.0117985
0.010937
0.0103738
0.00999777
0.00967773
0.0964951
0.0768844
0.0637481
0.054411
0.0474944
0.0422053
0.0380531
0.0347188
0.0319704
0.0298655
0.163864
0.21505
0.214429
0.195402
0.172966
0.152322
0.134809
0.120428
0.10879
0.0994527
0.092017
0.0861515
0.0815846
0.0780926
0.0754877
0.0736087
0.0723141
0.0714779
0.0709878
0.0707447
0.0706628
0.0706702
0.0707083
0.0707315
0.0707061
0.0706101
0.0704293
0.0701552
0.0697835
0.069314
0.0687491
0.0680932
0.0673669
0.0665779
0.065735
0.0648497
0.0639335
0.0629948
0.0620411
0.0610822
0.0601289
0.059185
0.0582552
0.0573435
0.0564542
0.0555909
0.0547575
0.0539575
0.0531944
0.052471
0.0517908
0.0511571
0.0505738
0.0500444
0.0495726
0.0491618
0.048815
0.0485353
0.0483249
0.0481856
0.0481186
0.0481248
0.0482045
0.0483583
0.0485879
0.0488967
0.0492968
0.0498049
0.0505629
0.051313
0.029692
0.0200739
0.0151734
0.0124258
0.0107797
0.00974643
0.00907375
0.00861187
0.00827866
0.00792131
0.0964932
0.0768803
0.0637421
0.0544029
0.0474839
0.0421919
0.0380359
0.0346967
0.0319412
0.0298275
0.163392
0.214517
0.214018
0.195123
0.172781
0.152188
0.134692
0.120307
0.108656
0.0993051
0.0918621
0.0860009
0.0814539
0.0780008
0.0754563
0.0736603
0.0724712
0.0717618
0.0714174
0.0713359
0.0714279
0.0716183
0.0718458
0.0720626
0.0722331
0.0723324
0.0723447
0.0722604
0.0720755
0.0717902
0.0714067
0.0709297
0.0703655
0.0697217
0.0690069
0.0682304
0.0674017
0.0665299
0.0656239
0.0646893
0.063728
0.0627475
0.0617504
0.0607371
0.0597076
0.0586613
0.0575972
0.0565142
0.0554113
0.0542874
0.053142
0.0519749
0.050787
0.0495799
0.0483561
0.0471192
0.0458739
0.0446259
0.0433825
0.0421557
0.0409529
0.0397824
0.0386539
0.0375775
0.0365644
0.0356268
0.0347816
0.0340402
0.0334849
0.0328751
0.0194416
0.0135053
0.0104835
0.00877479
0.00772992
0.00705054
0.00658454
0.0062354
0.00595772
0.00559452
0.0964913
0.0768765
0.0637365
0.0543956
0.0474749
0.042181
0.038023
0.0346815
0.0319238
0.029808
0.16323
0.214334
0.21386
0.194986
0.17265
0.152053
0.134547
0.120151
0.108491
0.0991323
0.0916854
0.0858245
0.0812827
0.0778401
0.0753121
0.0735388
0.072379
0.0717058
0.0714042
0.0713719
0.0715191
0.0717699
0.0720625
0.0723484
0.0725918
0.0727673
0.0728582
0.0728531
0.0727462
0.0725355
0.0722217
0.0718083
0.0713014
0.0707087
0.070041
0.0693116
0.068534
0.0677212
0.0668853
0.0660366
0.0651833
0.0643304
0.0634809
0.0626376
0.0618017
0.060973
0.0601559
0.0593489
0.0585456
0.0577395
0.0569253
0.0560994
0.0552594
0.0544041
0.0535334
0.0526484
0.0517527
0.0508551
0.0499575
0.0490526
0.0481407
0.0472265
0.0463157
0.0454145
0.0445308
0.0436744
0.0428606
0.0421016
0.0414825
0.0407982
0.0247033
0.0177639
0.0143344
0.0124334
0.011268
0.0104814
0.00989849
0.00941675
0.00898292
0.00843046
0.0964895
0.0768728
0.0637311
0.0543888
0.0474666
0.0421713
0.0380115
0.0346682
0.0319085
0.0297905
0.163031
0.214058
0.213583
0.194732
0.172422
0.151845
0.134354
0.119966
0.10831
0.0989537
0.091509
0.0856511
0.0811141
0.0776791
0.0751617
0.0734025
0.0722606
0.0716087
0.0713322
0.0713283
0.0715073
0.0717933
0.0721243
0.0724522
0.0727407
0.0729643
0.0731046
0.0731482
0.0730865
0.0729145
0.0726298
0.0722337
0.0717309
0.0711293
0.0704411
0.069682
0.0688678
0.0680146
0.0671366
0.066246
0.0653517
0.0644613
0.0635801
0.0627113
0.0618567
0.0610167
0.0601907
0.0593778
0.0585767
0.0577876
0.0570199
0.0562697
0.0555324
0.054805
0.0540858
0.053375
0.0526743
0.0519866
0.0513148
0.0506642
0.0500415
0.0494501
0.0488949
0.048383
0.047923
0.0475265
0.0472144
0.0470139
0.0470508
0.0474051
0.0289458
0.0211489
0.0172928
0.0151487
0.0138377
0.0129641
0.012327
0.0118045
0.0112872
0.0105972
0.0964877
0.0768692
0.0637261
0.0543826
0.0474594
0.0421631
0.0380024
0.0346582
0.0318975
0.0297784
0.162893
0.213846
0.213341
0.19448
0.17217
0.151597
0.13411
0.119728
0.108079
0.0987302
0.0912934
0.0854443
0.0809173
0.0774935
0.0749886
0.0732433
0.0721165
0.0714811
0.071222
0.0712367
0.0714357
0.0717433
0.0720984
0.072453
0.0727719
0.0730291
0.0732056
0.0732854
0.0732566
0.0731099
0.0728381
0.0724387
0.0719144
0.0712728
0.0705286
0.0697013
0.068811
0.0678779
0.0669197
0.0659514
0.0649835
0.0640244
0.0630799
0.062153
0.0612448
0.0603551
0.0594826
0.0586255
0.0577821
0.0569504
0.0561292
0.0553173
0.054514
0.0537189
0.052932
0.052154
0.0513861
0.0506306
0.0498901
0.0491686
0.0484749
0.0478346
0.0472483
0.0467153
0.0462385
0.0458263
0.0454984
0.0452837
0.0453133
0.045684
0.0281333
0.0206969
0.0170106
0.0149587
0.0137042
0.0128694
0.0122617
0.0117631
0.0112622
0.0106306
0.0964859
0.0768657
0.0637215
0.0543771
0.0474532
0.0421565
0.0379956
0.0346514
0.0318909
0.0297719
0.162822
0.213706
0.213145
0.194244
0.171905
0.151315
0.13382
0.119437
0.107792
0.0984524
0.0910282
0.0851947
0.0806856
0.0772811
0.0747961
0.0730705
0.0719622
0.0713432
0.0710984
0.0711253
0.0713348
0.0716528
0.0720198
0.0723902
0.0727307
0.0730166
0.0732283
0.0733475
0.073357
0.0732405
0.0729827
0.0725744
0.0720145
0.071311
0.0704822
0.0695529
0.0685499
0.0674984
0.0664207
0.0653348
0.0642554
0.0631907
0.0621454
0.0611217
0.0601196
0.0591376
0.0581738
0.0572266
0.0562941
0.0553743
0.0544655
0.0535662
0.0526755
0.0517928
0.0509181
0.0500521
0.0491962
0.0483522
0.0475224
0.0467098
0.0459177
0.0451506
0.0444128
0.0437092
0.0430449
0.0424262
0.041865
0.0413715
0.0410199
0.04078
0.0250813
0.018366
0.0150061
0.0131157
0.0119676
0.0112328
0.0107202
0.0103204
0.00997497
0.00952807
0.0964842
0.0768624
0.0637171
0.054372
0.0474477
0.0421509
0.0379901
0.0346462
0.031886
0.0297667
0.162695
0.213445
0.212798
0.193862
0.171523
0.150951
0.133483
0.119131
0.107518
0.098212
0.0908232
0.0850283
0.0805616
0.0772035
0.0747681
0.0730936
0.0720358
0.0714651
0.0712654
0.0713349
0.0715868
0.0719504
0.0723707
0.0728067
0.0732284
0.0736127
0.0739378
0.0741787
0.074306
0.0742871
0.0740898
0.0736918
0.0730871
0.0722875
0.0713224
0.0702313
0.0690559
0.0678338
0.0665959
0.0653647
0.0641544
0.0629726
0.061821
0.0606982
0.0596009
0.0585249
0.0574649
0.0564168
0.0553773
0.0543442
0.0533159
0.0522911
0.0512692
0.0502496
0.049232
0.0482164
0.0472037
0.0461954
0.0451936
0.0442011
0.0432211
0.0422573
0.0413144
0.0403974
0.0395127
0.0386678
0.0378752
0.0371447
0.0365572
0.0359078
0.0216591
0.0155238
0.0124717
0.010769
0.00972095
0.00901462
0.00849595
0.00807476
0.00771019
0.0072494
0.0964825
0.0768592
0.0637131
0.0543677
0.0474437
0.0421478
0.0379889
0.0346481
0.0318931
0.0297807
0.1629
0.213573
0.212752
0.193667
0.171237
0.150636
0.133199
0.118935
0.107463
0.0983518
0.0912097
0.0857088
0.0815757
0.07858
0.0765231
0.0752304
0.0745471
0.0743371
0.0744825
0.0748841
0.0754614
0.0761519
0.0769087
0.0776968
0.0784887
0.079258
0.0799719
0.0805841
0.0810331
0.0812456
0.0811478
0.0806887
0.0798563
0.0786795
0.0772236
0.0755744
0.0738194
0.0720365
0.070288
0.0686164
0.0670461
0.0655847
0.0642277
0.0629616
0.0617679
0.0606275
0.0595233
0.0584411
0.0573701
0.0563029
0.0552356
0.0541676
0.0531004
0.0520367
0.0509805
0.0499379
0.0489156
0.0479211
0.0469621
0.0460467
0.0451831
0.0443796
0.0436443
0.0429851
0.04241
0.0419268
0.04155
0.0412934
0.0412524
0.0412113
0.0244111
0.0170369
0.0133055
0.0112093
0.00993595
0.00911301
0.00855102
0.0081375
0.00781209
0.00743363
0.0964809
0.0768561
0.0637091
0.0543634
0.0474397
0.0421445
0.0379871
0.0346485
0.0318972
0.0297868
0.162549
0.212921
0.212201
0.193418
0.171501
0.15167
0.135258
0.122245
0.112208
0.104654
0.0991332
0.095254
0.0926874
0.0911568
0.0904308
0.0903176
0.0906607
0.091335
0.0922437
0.0933142
0.0944946
0.0957497
0.0970562
0.0983989
0.0997643
0.101134
0.102472
0.103715
0.104764
0.105479
0.105693
0.105269
0.104124
0.102261
0.0997589
0.0967534
0.0934039
0.089874
0.0863155
0.0828588
0.079609
0.0766422
0.0740058
0.0717237
0.0698008
0.0682196
0.0669443
0.0659324
0.0651391
0.0645174
0.0640225
0.0636155
0.0632668
0.0629526
0.062656
0.0623701
0.0620964
0.0618402
0.0616088
0.0614106
0.061254
0.0611469
0.0610954
0.0611056
0.0611841
0.0613364
0.0615731
0.0619136
0.0624936
0.063111
0.0341873
0.022318
0.016621
0.0135689
0.0118015
0.0107168
0.0100175
0.00953805
0.00918335
0.0088414
0.0964793
0.0768532
0.0637056
0.05436
0.0474373
0.0421447
0.0379932
0.0346665
0.0319507
0.0297025
0.0282004
0.0269414
0.0256906
0.0245381
0.0234933
0.022545
0.021686
0.0209097
0.0202098
0.01958
0.0190143
0.0185068
0.0180521
0.0176452
0.0172813
0.0169561
0.0166658
0.016407
0.0161766
0.0159721
0.0157914
0.0156328
0.0154951
0.0153775
0.0152798
0.0152021
0.0151449
0.0151076
0.0150889
0.0150854
0.015091
0.0150983
0.0150998
0.0150891
0.015062
0.0150167
0.0149528
0.0148712
0.0147718
0.0146583
0.0145343
0.0144034
0.0142686
0.0141329
0.0139984
0.0138667
0.0137394
0.0136171
0.0134989
0.0133833
0.0132684
0.0131524
0.0130335
0.0129111
0.0127851
0.0126561
0.0125241
0.0123896
0.0122532
0.0121155
0.0119772
0.0118388
0.0117009
0.0115637
0.0114281
0.0112947
0.0111645
0.0110382
0.0109163
0.0107984
0.0106398
0.010478
0.010326
0.0101874
0.0100621
0.00994884
0.00984558
0.00974786
0.0096577
0.00952473
0.0964777
0.0768501
0.0637017
0.0543558
0.0474332
0.0421413
0.0379911
0.0346665
0.0319541
0.0297081
0.0278291
0.0262419
0.0248857
0.0237148
0.0226947
0.0217989
0.0210067
0.0203018
0.0196711
0.0191044
0.0185932
0.0181307
0.0177111
0.0173299
0.0169831
0.0166674
0.0163801
0.0161189
0.0158821
0.0156679
0.0154754
0.0153037
0.0151524
0.0150216
0.014912
0.0148249
0.014762
0.0147243
0.0147116
0.0147202
0.0147422
0.0147678
0.0147859
0.0147892
0.0147732
0.0147366
0.0146798
0.0146047
0.0145139
0.0144106
0.0142978
0.0141779
0.0140533
0.0139256
0.013796
0.0136654
0.0135345
0.0134037
0.0132733
0.0131433
0.0130135
0.0128838
0.0127538
0.0126234
0.0124922
0.0123602
0.0122276
0.0120943
0.0119602
0.0118252
0.0116897
0.0115537
0.0114178
0.0112829
0.0111494
0.0110183
0.01089
0.0107651
0.0106438
0.0105259
0.0104109
0.0103002
0.0101952
0.0100969
0.0100056
0.00992136
0.00984388
0.00977109
0.00970845
0.00961232
0.0964761
0.0768471
0.0636979
0.0543516
0.0474292
0.042138
0.0379895
0.0346677
0.03196
0.0297199
0.0278438
0.0262551
0.0248953
0.0237201
0.0226955
0.0217953
0.0209987
0.0202895
0.0196545
0.0190832
0.0185672
0.0180995
0.0176744
0.0172873
0.0169342
0.016612
0.0163179
0.0160498
0.0158059
0.0155847
0.0153853
0.0152069
0.0150496
0.0149138
0.0148011
0.014714
0.0146562
0.0146311
0.0146411
0.0146819
0.0147422
0.0148068
0.0148606
0.0148924
0.0148966
0.0148718
0.0148194
0.0147423
0.0146446
0.0145315
0.0144064
0.0142728
0.0141338
0.0139917
0.0138482
0.0137037
0.0135597
0.013417
0.013276
0.0131371
0.0130001
0.012865
0.0127314
0.012599
0.0124676
0.0123368
0.0122066
0.0120767
0.011947
0.0118175
0.0116885
0.01156
0.0114324
0.0113062
0.0111817
0.0110595
0.0109401
0.0108241
0.010712
0.0106042
0.0105005
0.0104014
0.0103073
0.0102187
0.0101354
0.010057
0.00998242
0.00990839
0.00983565
0.00970719
0.0964745
0.076844
0.0636937
0.0543467
0.0474237
0.0421322
0.0379835
0.0346615
0.0319536
0.0297124
0.0278336
0.0262407
0.0248762
0.0236962
0.022667
0.0217624
0.0209615
0.0202482
0.019609
0.0190337
0.0185134
0.0180414
0.017612
0.0172205
0.016863
0.0165363
0.0162378
0.0159653
0.0157169
0.0154913
0.0152873
0.0151045
0.0149427
0.014803
0.0146876
0.0146009
0.014549
0.0145399
0.0145826
0.0146748
0.0148006
0.0149361
0.0150553
0.0151405
0.0151837
0.0151839
0.0151439
0.015069
0.0149668
0.0148453
0.0147098
0.0145647
0.0144138
0.0142597
0.0141047
0.0139501
0.0137969
0.0136456
0.0134966
0.0133499
0.0132054
0.0130629
0.012922
0.0127824
0.0126438
0.0125061
0.0123689
0.0122321
0.0120958
0.0119598
0.0118244
0.0116897
0.011556
0.0114237
0.011293
0.0111645
0.0110386
0.0109157
0.0107963
0.0106807
0.010569
0.0104617
0.0103613
0.0102679
0.0101815
0.0101019
0.0100284
0.00995784
0.00988958
0.00976431
0.0964729
0.0768408
0.0636894
0.0543414
0.0474178
0.0421257
0.0379766
0.0346542
0.0319458
0.0297039
0.0278236
0.0262281
0.02486
0.0236758
0.0226419
0.0217322
0.0209261
0.0202072
0.0195624
0.0189813
0.0184552
0.0179773
0.017542
0.0171447
0.0167816
0.0164494
0.0161457
0.015868
0.0156145
0.0153837
0.0151744
0.0149858
0.0148178
0.0146714
0.0145493
0.0144578
0.0144064
0.0144114
0.0145033
0.0146984
0.0149817
0.015306
0.0156115
0.0158607
0.0160373
0.0161395
0.0161736
0.0161498
0.0160776
0.0159859
0.0158822
0.0157723
0.0156601
0.0155475
0.0154355
0.0153238
0.0152112
0.0150963
0.0149774
0.014853
0.0147219
0.0145832
0.0144364
0.0142818
0.0141196
0.0139508
0.0137764
0.0135976
0.0134157
0.0132322
0.0130483
0.0128655
0.0126849
0.0125078
0.0123353
0.0121685
0.0120086
0.0118611
0.0117274
0.0116072
0.0115009
0.0114086
0.0113292
0.0112647
0.0112159
0.0111833
0.0111655
0.011159
0.0111586
0.0111152
0.0964713
0.0768376
0.0636848
0.0543357
0.047411
0.0421178
0.0379675
0.0346438
0.0319337
0.0296895
0.0278063
0.0262071
0.0248347
0.0236459
0.022607
0.0216921
0.0208805
0.020156
0.0195054
0.0189182
0.018386
0.017902
0.0174604
0.0170568
0.0166875
0.0163493
0.0160397
0.0157563
0.0154971
0.0152605
0.0150449
0.0148494
0.0146732
0.0145172
0.0143836
0.0142805
0.0142206
0.0142377
0.0144627
0.0150284
0.0159371
0.0170176
0.018065
0.0189845
0.0197384
0.0203288
0.0207763
0.0211068
0.0213446
0.0214888
0.0215946
0.021665
0.0216898
0.0216606
0.021572
0.0214225
0.0212138
0.0209509
0.0206405
0.0202909
0.0199105
0.0195076
0.01909
0.0186649
0.0182383
0.0178155
0.0174008
0.0169978
0.0166094
0.0162379
0.0158851
0.0155524
0.015241
0.0149574
0.0147021
0.0144749
0.0142759
0.0141007
0.0139499
0.0138252
0.0137295
0.0136643
0.0136293
0.0136226
0.0136419
0.0136842
0.0137454
0.0138205
0.0138967
0.013941
0.0964698
0.0768344
0.0636802
0.0543299
0.0474039
0.0421094
0.0379577
0.0346323
0.0319203
0.0296739
0.0277878
0.0261852
0.0248089
0.0236155
0.0225716
0.0216512
0.0208337
0.0201028
0.0194454
0.0188512
0.0183116
0.0178199
0.0173706
0.0169593
0.0165825
0.0162369
0.0159202
0.01563
0.0153641
0.0151206
0.0148977
0.0146938
0.0145072
0.0143374
0.0141848
0.0140578
0.0139694
0.0139947
0.0148547
0.0173039
0.0212762
0.0257892
0.0299045
0.0332688
0.0357608
0.0374394
0.0384262
0.0388546
0.0388465
0.038502
0.0378571
0.036986
0.0359694
0.0348524
0.0336742
0.0324687
0.0312627
0.0300769
0.0289265
0.0278219
0.0267701
0.0257754
0.02484
0.0239646
0.0231491
0.0223925
0.0216936
0.0210505
0.0204616
0.019925
0.0194433
0.0190146
0.018637
0.0183035
0.0180136
0.0177671
0.0175635
0.0174018
0.0172813
0.0172055
0.017174
0.0171772
0.0172078
0.0172594
0.0173269
0.0174054
0.0174876
0.017568
0.0176182
0.0176345
0.0964683
0.0768313
0.0636757
0.0543239
0.0473965
0.0421004
0.037947
0.0346196
0.0319053
0.0296561
0.0277667
0.0261603
0.0247796
0.0235813
0.0225319
0.0216055
0.0207815
0.0200436
0.0193787
0.0187765
0.0182286
0.0177282
0.0172701
0.0168499
0.0164642
0.0161103
0.0157854
0.0154875
0.0152143
0.0149636
0.0147333
0.0145213
0.014325
0.0141424
0.01397
0.013815
0.0136824
0.0137935
0.0183085
0.0303555
0.0472179
0.0622953
0.0719783
0.0763627
0.0766421
0.0743195
0.0706069
0.0663241
0.0619597
0.0577705
0.0538689
0.0503034
0.047074
0.0441796
0.0415989
0.0393011
0.0372541
0.0354284
0.0337976
0.0323384
0.0310306
0.0298569
0.0288027
0.0278561
0.0270071
0.0262492
0.0255737
0.0249859
0.0244707
0.0240154
0.023609
0.0232466
0.022925
0.0226418
0.022395
0.0221828
0.0220034
0.0218548
0.0217342
0.0216365
0.0215597
0.0215016
0.0214595
0.0214305
0.0214108
0.0213971
0.0213828
0.0213656
0.0213147
0.0212529
0.0964669
0.0768284
0.0636714
0.0543182
0.0473893
0.0420916
0.0379362
0.0346067
0.0318899
0.0296378
0.0277451
0.0261348
0.0247496
0.0235462
0.0224911
0.0215583
0.0207271
0.0199814
0.019308
0.0186965
0.0181387
0.017628
0.0171593
0.0167284
0.0163322
0.0159681
0.0156338
0.0153271
0.0150456
0.0147871
0.0145493
0.0143298
0.0141252
0.0139316
0.0137388
0.0135471
0.0133226
0.0138384
0.0354132
0.0796526
0.12179
0.143223
0.144018
0.132966
0.117653
0.102387
0.0889694
0.0778376
0.0688387
0.0616301
0.0558523
0.0511944
0.0474079
0.0442996
0.041723
0.0395681
0.0377531
0.0362183
0.0349248
0.0338593
0.0329657
0.0321967
0.0315226
0.0309228
0.0303821
0.0298894
0.029436
0.0290153
0.028623
0.0282556
0.0279094
0.0275835
0.0272776
0.0269914
0.0267249
0.0264779
0.0262521
0.0260475
0.025862
0.0256933
0.025537
0.0253904
0.0252518
0.0251204
0.0249949
0.0248732
0.0247492
0.0246239
0.0244652
0.0243181
0.0964658
0.0768259
0.0636676
0.054313
0.0473825
0.0420831
0.0379257
0.0345939
0.0318744
0.0296193
0.0277229
0.0261084
0.0247185
0.0235096
0.0224483
0.0215085
0.0206695
0.019915
0.0192319
0.0186098
0.0180406
0.0175177
0.0170363
0.0165927
0.016184
0.0158081
0.0154631
0.0151468
0.0148567
0.0145906
0.0143467
0.0141241
0.0139212
0.0137375
0.0135639
0.0134007
0.0131987
0.0137682
0.0377374
0.0873519
0.13446
0.155991
0.155703
0.142847
0.125228
0.107638
0.09219
0.07944
0.0692353
0.0611839
0.0548636
0.0498996
0.0459849
0.0428834
0.0404662
0.038575
0.0370758
0.0358813
0.0349305
0.0341759
0.0335784
0.0331038
0.0327218
0.0324071
0.0321387
0.0318998
0.0316775
0.0314628
0.0312496
0.0310347
0.0308167
0.0305956
0.030372
0.0301474
0.0299229
0.0296997
0.0294769
0.029254
0.0290324
0.0288131
0.0285964
0.0283823
0.0281708
0.0279605
0.0277501
0.0275409
0.0273277
0.0271149
0.026869
0.0266531
0.096465
0.076824
0.0636645
0.0543085
0.0473766
0.0420754
0.037916
0.0345818
0.0318596
0.0296013
0.0277013
0.0260825
0.0246876
0.023473
0.0224051
0.0214577
0.0206101
0.0198458
0.0191517
0.0185174
0.0179347
0.0173973
0.0169006
0.0164415
0.0160176
0.0156277
0.0152703
0.0149432
0.0146437
0.0143696
0.0141198
0.0138965
0.013704
0.0135525
0.0134432
0.0133904
0.0133097
0.0138842
0.0368519
0.0857834
0.133323
0.15558
0.155729
0.143247
0.125916
0.108543
0.0932153
0.0804694
0.0701593
0.0619113
0.0553279
0.0500624
0.0458332
0.0424888
0.0398128
0.0376537
0.0359136
0.0345272
0.0334471
0.0326349
0.0320554
0.0316732
0.031452
0.0313553
0.0313476
0.0313961
0.0314726
0.0315545
0.0316249
0.0316725
0.0316905
0.0316762
0.0316291
0.0315507
0.0314439
0.0313119
0.031158
0.0309856
0.0307976
0.0305966
0.0303848
0.0301639
0.0299356
0.0297009
0.0294602
0.0292132
0.0289572
0.0287005
0.0284093
0.0281602
0.0964644
0.0768227
0.0636621
0.054305
0.0473716
0.0420686
0.0379073
0.0345708
0.0318458
0.0295842
0.0276804
0.0260572
0.0246572
0.0234366
0.0223617
0.0214062
0.0205492
0.019774
0.0190675
0.0184191
0.0178206
0.017266
0.016751
0.0162731
0.015831
0.0154245
0.0150531
0.0147147
0.0144057
0.0141233
0.0138681
0.0136487
0.0134817
0.0134054
0.0134569
0.0137053
0.0139337
0.0145365
0.0340989
0.0770937
0.12057
0.143093
0.144969
0.134497
0.119532
0.104563
0.0913216
0.0801302
0.070813
0.0630712
0.0566198
0.0512218
0.0466824
0.0428422
0.0395775
0.036814
0.0344964
0.0325749
0.0310187
0.0298067
0.0289194
0.0283346
0.0280233
0.0279487
0.028067
0.0283303
0.02869
0.0291007
0.0295238
0.029929
0.0302944
0.0306061
0.0308568
0.031044
0.0311691
0.0312357
0.0312489
0.0312145
0.0311382
0.0310255
0.0308817
0.0307113
0.0305185
0.0303073
0.0300803
0.0298415
0.0295887
0.0293324
0.0290372
0.0287899
0.0964642
0.0768219
0.0636605
0.0543023
0.0473676
0.042063
0.0378997
0.0345608
0.0318331
0.0295684
0.0276608
0.0260332
0.0246279
0.0234011
0.022319
0.0213549
0.0204877
0.0197007
0.0189802
0.0183157
0.0176988
0.0171235
0.0165861
0.0160849
0.0156203
0.0151935
0.0148066
0.0144572
0.0141402
0.0138526
0.0135979
0.0133976
0.0132968
0.0134024
0.0138669
0.0149115
0.0157911
0.016302
0.0172522
0.0210347
0.0286072
0.0374753
0.0455985
0.0524438
0.0572342
0.0598228
0.0603731
0.0592625
0.0569453
0.0538648
0.0504008
0.0468499
0.0434107
0.0401881
0.0372269
0.0345437
0.0321427
0.030024
0.0281864
0.0266304
0.0253582
0.0243736
0.0236793
0.0232748
0.0231597
0.0233783