/*--------------------------------*- C++ -*----------------------------------*\
| =========                 |                                                 |
| \\      /  F ield         | OpenFOAM: The Open Source CFD Toolbox           |
|  \\    /   O peration     | Version:  v2012                                 |
|   \\  /    A nd           | Website:  www.openfoam.com                      |
|    \\/     M anipulation  |                                                 |
\*---------------------------------------------------------------------------*/
FoamFile
{
    version     2.0;
    format      ascii;
    class       volScalarField;
    location    "250/air";
    object      G;
}
// * * * * * * * * * * * * * * * * * * * * * * * * * * * * * * * * * * * * * //

dimensions      [1 0 -3 0 0 0 0];


internalField   nonuniform List<scalar> 
287104
(
2841.79
2876.01
2885.45
2892.37
2897.54
2901.28
2904.4
2907.29
2909.85
2912.07
2914.23
2916.63
2919.41
2922.43
2925.46
2928.34
2930.98
2933.41
2935.68
2937.83
2939.89
2941.86
2943.76
2945.58
2947.34
2949.04
2950.69
2952.28
2953.81
2955.29
2956.73
2958.14
2959.53
2960.89
2962.21
2963.5
2964.77
2966.03
2967.25
2968.44
2969.62
2970.77
2971.91
2973.08
2974.22
2975.33
2976.43
2977.5
2978.55
2979.57
2980.6
2981.64
2982.72
2983.86
2985.06
2986.28
2987.5
2988.69
2989.84
2990.94
2992
2993.02
2994.02
2994.98
2995.92
2996.83
2997.73
2998.64
2999.55
3000.46
3001.37
3002.26
3003.15
3004.11
3005.31
3006.96
3009.26
3012.29
3015.96
3020.02
3024.25
3028.46
3032.48
3036.03
3038.65
3040.05
3040.83
3043.59
3051.13
3045.16
2852.04
2888.89
2898.08
2904.57
2909.28
2912.55
2915.21
2917.66
2919.78
2921.57
2923.3
2925.33
2927.76
2930.46
2933.19
2935.77
2938.13
2940.27
2942.24
2944.1
2945.87
2947.56
2949.18
2950.72
2952.2
2953.63
2954.99
2956.3
2957.57
2958.8
2959.99
2961.15
2962.28
2963.38
2964.43
2965.43
2966.43
2967.45
2968.44
2969.39
2970.31
2971.19
2972.08
2973.03
2973.94
2974.81
2975.69
2976.55
2977.38
2978.2
2979
2979.8
2980.62
2981.48
2982.4
2983.35
2984.33
2985.3
2986.25
2987.16
2988.04
2988.87
2989.68
2990.45
2991.19
2991.92
2992.63
2993.33
2994.05
2994.77
2995.47
2996.15
2996.82
2997.57
2998.56
3000.04
3002.21
3005.17
3008.82
3012.92
3017.19
3021.44
3025.48
3029.01
3031.59
3032.92
3033.65
3036.61
3045.13
3039.67
2839.66
2875.63
2884.37
2890.52
2894.97
2898.01
2900.47
2902.73
2904.68
2906.31
2907.9
2909.78
2912.07
2914.64
2917.24
2919.69
2921.92
2923.94
2925.81
2927.55
2929.22
2930.8
2932.32
2933.76
2935.15
2936.47
2937.74
2938.96
2940.13
2941.26
2942.37
2943.45
2944.49
2945.5
2946.46
2947.35
2948.25
2949.2
2950.13
2950.98
2951.82
2952.6
2953.4
2954.28
2955.12
2955.91
2956.7
2957.48
2958.25
2958.99
2959.73
2960.45
2961.19
2961.95
2962.76
2963.6
2964.48
2965.35
2966.21
2967.04
2967.83
2968.59
2969.32
2970.01
2970.67
2971.32
2971.95
2972.58
2973.21
2973.84
2974.45
2975.03
2975.6
2976.25
2977.16
2978.55
2980.65
2983.55
2987.13
2991.16
2995.37
2999.53
3003.48
3006.91
3009.39
3010.62
3011.22
3014.1
3022.83
3017.95
2827.44
2862.52
2871
2876.95
2881.21
2884.09
2886.4
2888.53
2890.38
2891.91
2893.41
2895.2
2897.41
2899.9
2902.42
2904.8
2906.96
2908.91
2910.71
2912.4
2914
2915.53
2917
2918.39
2919.73
2921
2922.21
2923.37
2924.49
2925.58
2926.64
2927.68
2928.68
2929.65
2930.55
2931.38
2932.22
2933.14
2934.03
2934.84
2935.63
2936.36
2937.1
2937.95
2938.76
2939.5
2940.25
2940.99
2941.72
2942.44
2943.15
2943.84
2944.52
2945.23
2945.96
2946.74
2947.54
2948.35
2949.16
2949.95
2950.7
2951.42
2952.1
2952.76
2953.38
2953.98
2954.58
2955.16
2955.74
2956.32
2956.87
2957.4
2957.92
2958.53
2959.41
2960.79
2962.88
2965.77
2969.35
2973.36
2977.54
2981.68
2985.59
2988.97
2991.39
2992.53
2993.03
2995.82
3004.54
2999.97
2816.03
2850.41
2858.71
2864.5
2868.62
2871.36
2873.55
2875.58
2877.33
2878.78
2880.2
2881.92
2884.07
2886.49
2888.96
2891.28
2893.39
2895.29
2897.04
2898.68
2900.24
2901.73
2903.15
2904.51
2905.81
2907.04
2908.22
2909.34
2910.42
2911.47
2912.5
2913.5
2914.47
2915.4
2916.28
2917.07
2917.87
2918.74
2919.6
2920.37
2921.13
2921.84
2922.54
2923.36
2924.14
2924.84
2925.55
2926.26
2926.97
2927.66
2928.35
2929.01
2929.67
2930.33
2931.01
2931.72
2932.47
2933.23
2933.99
2934.74
2935.45
2936.14
2936.79
2937.41
2938
2938.57
2939.12
2939.66
2940.2
2940.72
2941.23
2941.72
2942.23
2942.84
2943.73
2945.13
2947.24
2950.14
2953.72
2957.72
2961.89
2965.99
2969.85
2973.14
2975.43
2976.44
2976.84
2979.54
2988.12
2983.67
2805.05
2838.8
2846.96
2852.63
2856.62
2859.23
2861.31
2863.25
2864.93
2866.31
2867.68
2869.35
2871.45
2873.82
2876.24
2878.51
2880.57
2882.43
2884.14
2885.74
2887.26
2888.71
2890.1
2891.42
2892.68
2893.89
2895.04
2896.13
2897.18
2898.2
2899.19
2900.16
2901.1
2902
2902.86
2903.66
2904.42
2905.24
2906.04
2906.78
2907.51
2908.22
2908.91
2909.66
2910.39
2911.06
2911.74
2912.42
2913.09
2913.76
2914.41
2915.04
2915.67
2916.29
2916.92
2917.58
2918.26
2918.96
2919.67
2920.37
2921.04
2921.69
2922.3
2922.89
2923.44
2923.96
2924.47
2924.96
2925.44
2925.92
2926.39
2926.86
2927.37
2927.99
2928.9
2930.32
2932.44
2935.33
2938.88
2942.84
2946.94
2950.96
2954.69
2957.8
2959.88
2960.69
2960.93
2963.46
2971.65
2966.83
2794.29
2827.46
2835.49
2841.03
2844.89
2847.38
2849.34
2851.19
2852.8
2854.13
2855.48
2857.11
2859.16
2861.49
2863.87
2866.1
2868.12
2869.94
2871.61
2873.18
2874.67
2876.09
2877.45
2878.74
2879.97
2881.14
2882.26
2883.33
2884.36
2885.35
2886.31
2887.24
2888.15
2889.03
2889.89
2890.71
2891.46
2892.17
2892.88
2893.59
2894.3
2895.03
2895.72
2896.35
2897
2897.64
2898.26
2898.89
2899.51
2900.12
2900.73
2901.31
2901.88
2902.45
2903.02
2903.6
2904.2
2904.82
2905.45
2906.08
2906.69
2907.29
2907.85
2908.38
2908.87
2909.33
2909.77
2910.19
2910.6
2911.01
2911.43
2911.87
2912.34
2912.94
2913.83
2915.22
2917.29
2920.12
2923.58
2927.42
2931.34
2935.16
2938.65
2941.48
2943.25
2943.75
2943.72
2945.92
2953.32
2946.89
2783.68
2816.3
2824.19
2829.62
2833.35
2835.7
2837.52
2839.23
2840.72
2841.97
2843.29
2844.84
2846.82
2849.11
2851.46
2853.66
2855.66
2857.47
2859.13
2860.69
2862.17
2863.58
2864.92
2866.2
2867.41
2868.55
2869.65
2870.69
2871.7
2872.67
2873.6
2874.5
2875.36
2876.21
2877.07
2877.96
2878.72
2879.26
2879.8
2880.45
2881.11
2881.89
2882.6
2883.02
2883.51
2884.08
2884.63
2885.17
2885.7
2886.22
2886.72
2887.22
2887.7
2888.18
2888.65
2889.12
2889.6
2890.09
2890.6
2891.1
2891.6
2892.07
2892.51
2892.9
2893.25
2893.56
2893.85
2894.13
2894.42
2894.74
2895.08
2895.44
2895.84
2896.36
2897.16
2898.45
2900.42
2903.13
2906.43
2910.07
2913.75
2917.3
2920.5
2923.04
2924.53
2924.78
2924.56
2926.49
2932.87
2922.89
2773.22
2805.27
2813.05
2818.37
2821.99
2824.21
2825.88
2827.4
2828.67
2829.62
2830.36
2831.57
2833.38
2835.62
2837.98
2840.24
2842.32
2844.21
2845.97
2847.62
2849.19
2850.68
2852.09
2853.41
2854.66
2855.82
2856.9
2857.93
2858.91
2859.85
2860.74
2861.59
2862.4
2863.18
2864.03
2865.01
2865.8
2866.1
2866.39
2866.96
2867.57
2868.43
2869.2
2869.33
2869.58
2870.1
2870.54
2870.97
2871.38
2871.78
2872.18
2872.58
2872.97
2873.36
2873.73
2874.09
2874.45
2874.83
2875.21
2875.61
2875.99
2876.35
2876.67
2876.95
2877.17
2877.37
2877.56
2877.76
2877.99
2878.27
2878.56
2878.88
2879.23
2879.68
2880.4
2881.59
2883.46
2886.06
2889.25
2892.79
2896.46
2899.96
2903.07
2905.5
2906.87
2907.02
2906.73
2908.57
2914.17
2900.54
2762.89
2794.39
2802.05
2807.28
2810.81
2812.93
2814.48
2815.83
2816.76
2816.78
2812.9
2812.02
2812.99
2815.1
2817.7
2820.42
2823.08
2825.62
2828.02
2830.28
2832.42
2834.41
2836.26
2837.95
2839.49
2840.87
2842.11
2843.24
2844.29
2845.28
2846.21
2847.11
2847.94
2848.76
2849.7
2850.91
2851.86
2851.93
2851.98
2852.56
2853.2
2854.28
2855.26
2855.12
2855.15
2855.69
2856.1
2856.5
2856.87
2857.22
2857.59
2857.96
2858.33
2858.68
2859.01
2859.31
2859.61
2859.91
2860.22
2860.52
2860.82
2861.08
2861.3
2861.47
2861.61
2861.73
2861.87
2862.03
2862.24
2862.48
2862.75
2863.01
2863.28
2863.63
2864.23
2865.28
2866.97
2869.36
2872.37
2875.9
2880.74
2885.2
2888.97
2891.81
2893.45
2893.77
2893.66
2895.82
2901.9
2888.8
2752.71
2783.65
2791.2
2796.33
2799.78
2801.84
2803.36
2804.68
2805.26
2801.93
2759.52
2750.42
2751.58
2756.29
2762.05
2767.87
2773.35
2778.34
2782.84
2786.84
2790.37
2793.44
2796.06
2798.27
2800.1
2801.57
2802.75
2803.68
2804.45
2805.11
2805.71
2806.26
2806.75
2807.23
2807.92
2809.11
2810.06
2809.7
2809.31
2809.77
2810.34
2811.57
2812.78
2812.29
2812.05
2812.64
2813.06
2813.47
2813.85
2814.23
2814.63
2815.04
2815.44
2815.81
2816.13
2816.42
2816.68
2816.93
2817.16
2817.37
2817.54
2817.67
2817.77
2817.83
2817.88
2817.93
2818.01
2818.12
2818.25
2818.39
2818.51
2818.59
2818.64
2818.72
2818.98
2819.6
2820.74
2822.4
2824.51
2827.79
2845.06
2859.03
2869.35
2876.59
2881.14
2883.41
2884.68
2888.19
2896.43
2887.57
2742.68
2773.08
2780.51
2785.54
2788.9
2790.89
2792.36
2793.64
2794.14
2790.39
2745.76
2735.98
2737.05
2741.9
2747.87
2753.92
2759.63
2764.85
2769.55
2773.74
2777.43
2780.63
2783.36
2785.65
2787.53
2789.03
2790.2
2791.08
2791.74
2792.27
2792.74
2793.17
2793.56
2793.94
2794.64
2796.1
2797.36
2796.79
2796.16
2796.8
2797.58
2799.32
2801.16
2800.6
2800.33
2801.32
2802.09
2802.87
2803.67
2804.52
2805.42
2806.36
2807.29
2808.19
2809.06
2809.92
2810.76
2811.6
2812.42
2813.2
2813.96
2814.69
2815.38
2816.07
2816.76
2817.45
2818.15
2818.84
2819.51
2820.13
2820.68
2821.12
2821.48
2821.8
2822.23
2822.95
2824.12
2825.81
2828
2831.49
2846.71
2859.11
2868.4
2875.09
2879.45
2881.8
2883.39
2887.75
2898.44
2895.57
2732.81
2762.66
2769.98
2774.92
2778.19
2780.1
2781.5
2782.73
2783.18
2779.39
2735.32
2725.6
2726.63
2731.4
2737.28
2743.25
2748.89
2754.05
2758.7
2762.84
2766.49
2769.64
2772.32
2774.56
2776.39
2777.87
2779.01
2779.83
2780.39
2780.76
2781.04
2781.3
2781.54
2781.8
2782.46
2784.11
2785.6
2784.67
2783.55
2784.1
2784.79
2786.69
2788.86
2787.81
2787.05
2787.98
2788.63
2789.31
2790.05
2790.87
2791.75
2792.64
2793.51
2794.35
2795.2
2796.07
2796.95
2797.84
2798.73
2799.64
2800.56
2801.53
2802.56
2803.65
2804.82
2806.06
2807.36
2808.69
2810.04
2811.39
2812.7
2813.94
2815.12
2816.27
2817.53
2819.08
2821.1
2823.68
2826.81
2831.26
2845.62
2857.18
2865.87
2872.27
2876.71
2879.45
2881.68
2886.97
2899.57
2902.42
2723.08
2752.41
2759.62
2764.46
2767.65
2769.49
2770.82
2771.99
2772.4
2768.65
2725.38
2715.82
2716.83
2721.5
2727.28
2733.14
2738.68
2743.75
2748.32
2752.39
2755.98
2759.07
2761.69
2763.87
2765.68
2767.16
2768.35
2769.24
2769.8
2770.1
2770.23
2770.31
2770.43
2770.6
2771.27
2773.18
2775.01
2773.78
2772.23
2772.76
2773.4
2775.49
2778.05
2776.58
2775.34
2776.24
2776.82
2777.49
2778.24
2779.06
2779.87
2780.61
2781.28
2781.94
2782.61
2783.29
2783.97
2784.62
2785.25
2785.88
2786.55
2787.28
2788.07
2788.93
2789.85
2790.79
2791.75
2792.71
2793.66
2794.59
2795.47
2796.27
2796.98
2797.64
2798.41
2799.49
2801.08
2803.29
2806.13
2810.35
2824.34
2835.47
2843.71
2849.77
2854.03
2856.75
2859.11
2864.47
2876.14
2875.75
2713.5
2742.3
2749.41
2754.18
2757.28
2759.05
2760.31
2761.42
2761.79
2758.08
2715.57
2706.16
2707.14
2711.73
2717.4
2723.16
2728.6
2733.58
2738.07
2742.08
2745.6
2748.63
2751.19
2753.31
2755.07
2756.57
2757.84
2758.86
2759.54
2759.85
2759.86
2759.74
2759.67
2759.71
2760.36
2762.52
2764.73
2763.28
2761.32
2761.85
2762.46
2764.74
2767.77
2765.96
2764.26
2765.19
2765.81
2766.6
2767.5
2768.39
2769.17
2769.79
2770.34
2770.91
2771.53
2772.17
2772.8
2773.4
2773.99
2774.61
2775.28
2776.01
2776.78
2777.59
2778.4
2779.2
2779.98
2780.72
2781.42
2782.05
2782.57
2782.94
2783.14
2783.25
2783.43
2783.92
2784.93
2786.57
2788.84
2792.21
2805.8
2816.54
2824.6
2830.61
2834.8
2837.36
2839.44
2844.25
2854.59
2851.04
2704.05
2732.34
2739.36
2744.05
2747.09
2748.79
2750
2751.04
2751.36
2747.67
2705.86
2696.6
2697.54
2702.05
2707.62
2713.29
2718.64
2723.53
2727.94
2731.88
2735.34
2738.32
2740.81
2742.87
2744.56
2746.04
2747.39
2748.58
2749.49
2749.94
2749.92
2749.58
2749.24
2749.08
2749.64
2751.97
2754.55
2752.92
2750.52
2751.05
2751.66
2754.13
2757.69
2755.63
2753.55
2754.56
2755.33
2756.37
2757.48
2758.44
2759.11
2759.55
2759.97
2760.48
2761.11
2761.76
2762.41
2763.04
2763.7
2764.43
2765.22
2766.07
2766.95
2767.82
2768.68
2769.5
2770.28
2771.02
2771.69
2772.27
2772.68
2772.89
2772.9
2772.83
2772.87
2773.28
2774.3
2776.04
2778.47
2782.03
2795.51
2806.24
2814.32
2820.32
2824.43
2826.84
2828.71
2833.19
2843.08
2839.87
2694.74
2722.52
2729.45
2734.07
2737.05
2738.72
2739.89
2740.89
2741.15
2737.47
2696.3
2687.16
2688.07
2692.5
2697.98
2703.55
2708.82
2713.63
2717.96
2721.82
2725.22
2728.15
2730.58
2732.56
2734.16
2735.57
2736.94
2738.31
2739.5
2740.24
2740.32
2739.83
2739.18
2738.71
2739.07
2741.45
2744.3
2742.48
2739.56
2740.08
2740.7
2743.37
2747.55
2745.39
2743.05
2744.23
2745.3
2746.7
2748.04
2748.97
2749.42
2749.63
2749.92
2750.43
2751.1
2751.83
2752.56
2753.32
2754.14
2755.02
2755.97
2756.93
2757.88
2758.81
2759.71
2760.57
2761.39
2762.13
2762.77
2763.27
2763.58
2763.69
2763.66
2763.62
2763.78
2764.43
2765.81
2768.02
2771.07
2775.45
2789.16
2800.14
2808.47
2814.65
2818.87
2821.34
2823.16
2827.48
2837.45
2836.28
2685.57
2712.84
2719.67
2724.22
2727.15
2728.8
2729.97
2730.96
2731.22
2727.58
2687.03
2678.03
2678.92
2683.26
2688.64
2694.11
2699.27
2703.98
2708.21
2711.98
2715.29
2718.13
2720.49
2722.37
2723.84
2725.1
2726.38
2727.83
2729.31
2730.42
2730.76
2730.24
2729.3
2728.43
2728.43
2730.63
2733.57
2731.54
2728.07
2728.5
2729.13
2731.96
2736.79
2734.69
2732.3
2733.8
2735.33
2737.14
2738.62
2739.37
2739.47
2739.42
2739.62
2740.17
2740.95
2741.79
2742.66
2743.58
2744.56
2745.58
2746.62
2747.65
2748.65
2749.62
2750.57
2751.47
2752.3
2753.01
2753.57
2753.97
2754.19
2754.28
2754.31
2754.43
2754.85
2755.85
2757.63
2760.3
2763.82
2768.78
2782.9
2794.22
2802.75
2809.02
2813.29
2815.87
2817.82
2822.29
2832.82
2833.55
2676.55
2703.31
2710.04
2714.51
2717.38
2718.99
2720.17
2721.22
2721.57
2718.13
2678.53
2669.79
2670.68
2674.92
2680.16
2685.47
2690.46
2694.98
2699.01
2702.57
2705.66
2708.28
2710.42
2712.06
2713.26
2714.19
2715.18
2716.47
2718.05
2719.49
2720.18
2719.77
2718.6
2717.25
2716.68
2718.44
2721.3
2719.15
2715.31
2715.61
2716.22
2719.06
2724.32
2722.47
2720.29
2722.37
2724.56
2726.82
2728.35
2728.79
2728.54
2728.31
2728.54
2729.23
2730.16
2731.13
2732.1
2733.08
2734.08
2735.07
2736.04
2736.98
2737.89
2738.78
2739.62
2740.36
2740.97
2741.4
2741.64
2741.72
2741.68
2741.57
2741.49
2741.55
2741.95
2742.9
2744.58
2747.05
2750.25
2754.79
2769.05
2780.6
2789.3
2795.7
2800.07
2802.66
2804.48
2808.6
2818.42
2817.13
2667.68
2693.94
2700.57
2704.94
2707.73
2709.29
2710.45
2711.54
2712.1
2709.35
2673.28
2665.44
2666.36
2670.29
2675.11
2679.91
2684.31
2688.19
2691.51
2694.32
2696.66
2698.57
2700.04
2701.09
2701.73
2702.12
2702.59
2703.51
2705
2706.72
2707.89
2707.88
2706.75
2705.06
2703.92
2705.25
2708.18
2706.35
2702.85
2703.09
2703.59
2706.03
2711.01
2709.34
2707.43
2710.24
2713.19
2715.87
2717.36
2717.58
2717.24
2717.23
2717.9
2719.05
2720.31
2721.46
2722.46
2723.33
2724.1
2724.76
2725.34
2725.86
2726.33
2726.72
2726.99
2727.09
2727.01
2726.74
2726.33
2725.85
2725.36
2724.91
2724.58
2724.45
2724.68
2725.43
2726.86
2728.97
2731.7
2735.6
2750.33
2762.29
2771.31
2777.92
2782.4
2784.99
2786.64
2790.26
2798.67
2793.9
2658.94
2684.69
2691.23
2695.51
2698.22
2699.69
2700.76
2701.77
2702.54
2702.64
2700.08
2699.85
2701.09
2703.04
2705.22
2707.33
2709.24
2710.94
2712.47
2713.9
2715.27
2716.59
2717.82
2718.88
2719.67
2720.25
2720.88
2722.01
2723.93
2726.45
2728.76
2729.88
2729.53
2728.08
2726.87
2728.4
2732.33
2731.83
2729.96
2730.53
2730.78
2732.06
2735.33
2732.79
2729.97
2732.55
2735.1
2736.78
2736.77
2735.45
2734
2733.4
2733.8
2734.76
2735.81
2736.71
2737.46
2738.11
2738.7
2739.25
2739.79
2740.28
2740.69
2740.96
2741.04
2740.9
2740.58
2740.14
2739.67
2739.26
2738.95
2738.78
2738.78
2739.01
2739.59
2740.7
2742.5
2745.02
2748.15
2751.76
2756.38
2760.79
2764.75
2768.05
2770.35
2771.44
2772
2774.57
2781.23
2773.24
2650.28
2675.54
2681.98
2686.18
2688.8
2690.2
2691.19
2692.12
2692.88
2693.37
2693.8
2694.67
2696.1
2697.9
2699.8
2701.59
2703.17
2704.55
2705.79
2706.97
2708.14
2709.34
2710.51
2711.59
2712.42
2712.98
2713.44
2714.26
2715.91
2718.46
2721.23
2723.07
2723.32
2722.08
2720.84
2722.71
2728
2729.18
2729.68
2730.73
2730.56
2730.24
2730.99
2727.48
2723.71
2726.26
2728.71
2729.77
2728.88
2726.94
2725.43
2725.19
2726.01
2727.23
2728.31
2729.13
2729.77
2730.35
2730.91
2731.48
2732
2732.42
2732.65
2732.66
2732.44
2732.03
2731.53
2731.04
2730.64
2730.39
2730.31
2730.37
2730.57
2730.95
2731.63
2732.79
2734.59
2737.09
2740.19
2743.68
2747.34
2750.98
2754.4
2757.33
2759.34
2760.18
2760.49
2762.72
2768.9
2760.95
2641.68
2666.45
2672.8
2676.91
2679.45
2680.77
2681.7
2682.58
2683.29
2683.8
2684.45
2685.41
2686.84
2688.6
2690.44
2692.18
2693.7
2695.03
2696.2
2697.31
2698.43
2699.58
2700.76
2701.89
2702.84
2703.48
2703.87
2704.39
2705.62
2707.88
2710.77
2713.12
2713.96
2713.17
2712.36
2715.2
2722.49
2725.51
2728.59
2730.43
2729.61
2727.33
2725.21
2720.39
2715.05
2717.09
2719.17
2719.59
2718.11
2716.12
2715.13
2715.6
2716.93
2718.3
2719.33
2720.05
2720.66
2721.29
2721.94
2722.54
2723.01
2723.27
2723.27
2723.02
2722.61
2722.15
2721.74
2721.45
2721.34
2721.4
2721.62
2721.93
2722.32
2722.83
2723.59
2724.78
2726.58
2729.08
2732.16
2735.63
2739.21
2742.77
2746.13
2748.99
2750.9
2751.64
2751.87
2754.07
2760.68
2756
2633.13
2657.4
2663.65
2667.68
2670.14
2671.39
2672.25
2673.08
2673.74
2674.2
2674.76
2675.68
2677.08
2678.81
2680.64
2682.36
2683.88
2685.18
2686.34
2687.41
2688.46
2689.56
2690.72
2691.9
2692.99
2693.82
2694.33
2694.71
2695.54
2697.33
2699.98
2702.51
2703.78
2703.52
2703.53
2707.78
2717.21
2721.7
2727.5
2730.4
2728.67
2724.03
2718.81
2712.77
2705.58
2706.64
2708.07
2707.89
2706.16
2704.52
2704.25
2705.27
2706.7
2707.85
2708.6
2709.18
2709.8
2710.49
2711.14
2711.63
2711.86
2711.81
2711.54
2711.13
2710.71
2710.39
2710.24
2710.27
2710.48
2710.83
2711.27
2711.74
2712.24
2712.8
2713.58
2714.76
2716.54
2719.02
2722.11
2725.6
2729.23
2732.83
2736.22
2739.07
2740.98
2741.72
2741.96
2744.19
2751.1
2748.11
2624.62
2648.4
2654.57
2658.51
2660.89
2662.06
2662.86
2663.63
2664.23
2664.65
2665.13
2666.01
2667.37
2669.07
2670.88
2672.59
2674.1
2675.41
2676.56
2677.6
2678.61
2679.64
2680.74
2681.93
2683.14
2684.22
2685.03
2685.55
2686.19
2687.55
2689.78
2692.16
2693.57
2693.67
2694.42
2699.89
2710.94
2716.17
2723.72
2727.88
2724.85
2717.17
2709.56
2702.86
2694.14
2694.18
2694.96
2694.4
2692.76
2691.63
2691.8
2692.8
2693.76
2694.34
2694.72
2695.17
2695.76
2696.33
2696.71
2696.8
2696.61
2696.24
2695.82
2695.44
2695.23
2695.22
2695.41
2695.78
2696.28
2696.85
2697.45
2698.03
2698.58
2699.16
2699.93
2701.1
2702.86
2705.29
2708.31
2711.7
2715.23
2718.71
2721.96
2724.67
2726.45
2727.04
2727.08
2729.05
2735.49
2731.11
2616.21
2639.51
2645.58
2649.44
2651.75
2652.85
2653.59
2654.29
2654.85
2655.21
2655.65
2656.48
2657.8
2659.48
2661.26
2662.96
2664.47
2665.79
2666.94
2667.98
2668.97
2669.94
2670.95
2672.07
2673.31
2674.56
2675.68
2676.59
2677.39
2678.59
2680.51
2682.61
2683.92
2684.04
2684.91
2690.75
2702.48
2707.93
2723.14
2728.31
2723.28
2711.33
2694.41
2687.11
2677.36
2676.76
2677.09
2676.24
2674.61
2673.62
2673.58
2673.9
2674.09
2674.18
2674.45
2674.98
2675.6
2676.04
2676.19
2676.07
2675.82
2675.61
2675.54
2675.66
2676.01
2676.55
2677.23
2678.01
2678.83
2679.65
2680.42
2681.12
2681.75
2682.35
2683.09
2684.19
2685.86
2688.21
2691.13
2694.4
2697.8
2701.14
2704.26
2706.85
2708.49
2708.9
2708.69
2710.28
2715.88
2709.22
2608.02
2630.84
2636.83
2640.61
2642.84
2643.88
2644.55
2645.21
2645.71
2646.03
2646.42
2647.21
2648.5
2650.14
2651.9
2653.58
2655.08
2656.41
2657.58
2658.64
2659.63
2660.57
2661.5
2662.48
2663.57
2664.76
2665.97
2667.33
2668.59
2670.06
2672.04
2673.98
2675.27
2675.28
2675.64
2680.83
2692.56
2697.48
2699.83
2702.95
2694.18
2677.43
2669.26
2661.71
2651.77
2651.73
2652.43
2651.92
2650.78
2650.13
2650.15
2650.43
2650.82
2651.49
2652.5
2653.63
2654.55
2655.09
2655.31
2655.39
2655.52
2655.84
2656.38
2657.07
2657.91
2658.85
2659.83
2660.81
2661.76
2662.65
2663.42
2664.05
2664.57
2665.07
2665.72
2666.74
2668.33
2670.56
2673.34
2676.47
2679.73
2682.96
2685.99
2688.51
2690.06
2690.35
2689.97
2691.3
2696.31
2688.16
2600.28
2622.64
2628.55
2632.25
2634.41
2635.38
2636
2636.6
2637.06
2637.33
2637.68
2638.44
2639.69
2641.31
2643.04
2644.7
2646.2
2647.54
2648.73
2649.82
2650.84
2651.78
2652.65
2653.44
2654.21
2655.08
2656.03
2657.63
2659.39
2661.39
2663.82
2665.9
2667.55
2667.93
2667.99
2672.1
2683.79
2688.77
2737.9
2733.74
2719.4
2699.17
2639.68
2632.75
2624.83
2627.53
2629.83
2630.65
2630.74
2631.08
2631.78
2632.69
2633.87
2635.33
2636.85
2638.09
2638.85
2639.2
2639.36
2639.58
2639.98
2640.6
2641.39
2642.25
2643.16
2644.08
2644.98
2645.81
2646.57
2647.23
2647.78
2648.2
2648.53
2648.85
2649.34
2650.22
2651.69
2653.82
2656.54
2659.64
2662.92
2666.2
2669.31
2671.9
2673.5
2673.81
2673.45
2674.72
2679.41
2670.66
2593.31
2615.27
2621.1
2624.74
2626.83
2627.74
2628.3
2628.86
2629.26
2629.49
2629.8
2630.51
2631.73
2633.31
2635.02
2636.66
2638.16
2639.51
2640.74
2641.88
2642.94
2643.93
2644.76
2645.37
2645.8
2646.33
2646.93
2648.39
2650.35
2652.7
2655.46
2657.85
2660.34
2662.2
2663.47
2667.35
2679.25
2679.87
2638.08
2624.91
2612.03
2598.8
2616.98
2615.13
2609.62
2614.27
2616.68
2617.86
2618.71
2619.8
2621.07
2622.5
2624.05
2625.58
2626.79
2627.49
2627.74
2627.78
2627.84
2628.06
2628.47
2629.06
2629.73
2630.38
2631.06
2631.73
2632.37
2632.97
2633.5
2633.95
2634.31
2634.57
2634.78
2635.02
2635.47
2636.34
2637.82
2639.98
2642.72
2645.86
2649.18
2652.51
2655.67
2658.3
2659.93
2660.29
2659.98
2661.25
2665.77
2656.86
2587.52
2609.14
2614.92
2618.5
2620.54
2621.42
2621.95
2622.46
2622.83
2623.02
2623.29
2623.96
2625.13
2626.67
2628.34
2629.95
2631.43
2632.78
2634.03
2635.21
2636.33
2637.35
2638.19
2638.77
2639.15
2639.78
2640.58
2641.67
2643.37
2645.4
2647.63
2650.15
2653.65
2658.06
2662.46
2667.44
2679.79
2673.79
2407.03
2392.12
2383.67
2379.94
2610.61
2614
2607.31
2609.72
2608.86
2608.79
2609.9
2611.63
2613.42
2615.11
2616.67
2617.94
2618.77
2619.17
2619.33
2619.46
2619.7
2620.08
2620.56
2621.11
2621.67
2622.15
2622.61
2623.03
2623.4
2623.72
2623.98
2624.18
2624.33
2624.43
2624.52
2624.69
2625.09
2625.93
2627.39
2629.53
2632.27
2635.4
2638.72
2642.05
2645.2
2647.84
2649.49
2649.9
2649.65
2650.94
2655.36
2646.45
2583.22
2604.58
2610.33
2613.88
2615.92
2616.79
2617.33
2617.86
2618.25
2618.45
2618.72
2619.38
2620.53
2622.03
2623.65
2625.2
2626.62
2627.92
2629.14
2630.32
2631.42
2632.42
2633.32
2634.18
2635.15
2636.66
2638.78
2639.7
2640.87
2641.79
2642.19
2644.37
2648.69
2656.02
2664.53
2671.36
2684.56
2673.44
2222.03
2206.46
2202.57
2207.28
2613.63
2620.33
2610.47
2608.85
2603.89
2602.48
2603.8
2605.88
2607.68
2609.16
2610.51
2611.76
2612.84
2613.77
2614.59
2615.37
2616.12
2616.83
2617.45
2617.99
2618.42
2618.65
2618.77
2618.79
2618.72
2618.61
2618.49
2618.37
2618.27
2618.18
2618.13
2618.19
2618.5
2619.27
2620.66
2622.73
2625.4
2628.46
2631.71
2634.98
2638.09
2640.71
2642.37
2642.81
2642.59
2643.87
2648.22
2639.36
2580.54
2601.73
2607.45
2611
2613.03
2613.93
2614.52
2615.12
2615.6
2615.9
2616.27
2617.03
2618.27
2619.83
2621.47
2623.01
2624.38
2625.62
2626.77
2627.86
2628.84
2629.73
2630.77
2632.37
2634.74
2637.78
2642.19
2643.37
2643.92
2643.2
2640.69
2641.96
2646.54
2656.32
2668.31
2676.51
2690.94
2678.54
2152.1
2136.7
2136.07
2146.03
2626.47
2632.08
2617.87
2612.71
2604.41
2601.52
2602.08
2603.38
2604.38
2605.4
2606.86
2608.74
2610.77
2612.71
2614.43
2615.92
2617.19
2618.22
2618.99
2619.53
2619.78
2619.68
2619.34
2618.84
2618.24
2617.64
2617.1
2616.64
2616.26
2615.93
2615.67
2615.54
2615.67
2616.26
2617.48
2619.4
2621.93
2624.87
2628.02
2631.22
2634.29
2636.88
2638.54
2638.98
2638.76
2640.01
2644.35
2635.58
2579.35
2600.45
2606.13
2609.64
2611.65
2612.53
2613.13
2613.78
2614.33
2614.75
2615.28
2616.21
2617.64
2619.39
2621.21
2622.9
2624.4
2625.71
2626.9
2627.96
2628.83
2629.67
2631.14
2634.09
2638.62
2643.39
2650.19
2651.91
2651.62
2648.85
2643
2642.72
2647.59
2658.72
2672.73
2681.15
2697.53
2687.48
2148.78
2134.4
2136.01
2149.94
2664.81
2665.1
2642.58
2632.41
2619
2612.06
2609.36
2608.31
2607.97
2608.62
2610.34
2612.73
2615.2
2617.4
2619.25
2620.79
2621.19
2622.22
2623
2623.54
2623.78
2623.6
2623.1
2622.35
2621.47
2620.6
2619.78
2619.04
2618.37
2617.74
2617.15
2616.69
2616.5
2616.78
2617.72
2619.39
2621.71
2624.48
2627.49
2630.59
2633.57
2636.09
2637.7
2638.08
2637.81
2639.04
2643.41
2634.79
2579.28
2600.34
2605.99
2609.44
2611.38
2612.18
2612.69
2613.26
2613.75
2614.13
2614.67
2615.66
2617.19
2619.09
2621.1
2623.01
2624.74
2626.3
2627.71
2628.93
2629.9
2630.98
2633.39
2638.35
2645.64
2651.98
2661.23
2663.8
2662.29
2656.87
2647.27
2644.65
2647.12
2657.43
2671.71
2680.5
2702.53
2694.69
2159.89
2144.65
2146.83
2164.25
2695.06
2697.83
2669.18
2657.1
2640.37
2630.21
2624.88
2622.13
2620.83
2620.77
2621.61
2622.77
2623.76
2624.45
2624.98
2625.52
2625.18
2625.74
2626.23
2626.63
2626.87
2626.88
2626.74
2626.47
2626.13
2625.72
2625.25
2624.67
2623.96
2623.11
2622.18
2621.29
2620.66
2620.53
2621.1
2622.46
2624.51
2627.06
2629.88
2632.8
2635.63
2638.02
2639.5
2639.77
2639.4
2640.6
2645.04
2636.68
2579.79
2600.89
2606.53
2609.95
2611.83
2612.56
2612.96
2613.38
2613.7
2613.9
2614.25
2615.06
2616.44
2618.23
2620.18
2622.08
2623.85
2625.51
2627.04
2628.36
2629.43
2630.87
2634.38
2641.43
2651.36
2659
2669.9
2673.96
2671.2
2662.68
2650.32
2645.11
2643.55
2650.17
2662.28
2674
2714.61
2707.62
2145.08
2123.17
2124.37
2148.24
2717.22
2726.06
2678.16
2661.5
2643.22
2632.95
2628.3
2626.47
2625.34
2624.46
2623.84
2623.51
2623.43
2623.69
2624.42
2625.51
2625.76
2626.78
2627.5
2627.95
2628.16
2628.19
2628.16
2628.14
2628.14
2628.14
2628.09
2627.91
2627.57
2627.06
2626.41
2625.76
2625.3
2625.28
2625.9
2627.27
2629.29
2631.78
2634.49
2637.28
2639.94
2642.13
2643.42
2643.52
2643.01
2644.13
2648.66
2640.75
2580.4
2601.55
2607.22
2610.67
2612.57
2613.3
2613.69
2614.07
2614.32
2614.41
2614.6
2615.23
2616.4
2617.97
2619.68
2621.35
2622.9
2624.34
2625.66
2626.74
2627.57
2628.93
2632.78
2640.73
2651.99
2660.36
2678.87
2684.66
2680.64
2668.42
2647.18
2640.19
2635.42
2637.9
2645.31
2659.39
2746.73
2740.42
2217.63
2191.05
2190.48
2217.29
2764.84
2785.73
2690.25
2667.23
2646.23
2633.06
2626.82
2628.05
2628.36
2626.37
2623.32
2622.15
2622.11
2622.63
2623.69
2624.87
2624.86
2625.69
2626.27
2626.75
2627.14
2627.38
2627.62
2627.88
2628.16
2628.43
2628.62
2628.67
2628.55
2628.24
2627.81
2627.37
2627.12
2627.29
2628.12
2629.69
2631.91
2634.59
2637.49
2640.44
2643.23
2645.53
2646.89
2647.04
2646.57
2647.75
2652.43
2644.88
2580.77
2601.96
2607.65
2611.14
2613.1
2613.9
2614.35
2614.81
2615.13
2615.28
2615.52
2616.17
2617.33
2618.86
2620.5
2622.07
2623.48
2624.75
2625.85
2626.67
2627.19
2628.13
2631.37
2638.62
2649.56
2657.74
2664.47
2669.66
2663.23
2646.76
2633.86
2625.83
2620.03
2621.26
2623.19
2606.38
2643.82
2653.19
2638.21
2628.97
2625.91
2626.17
2626.78
2626.7
2626.05
2625.44
2625.05
2624.99
2625.44
2625.96
2625.17
2625.5
2625.74
2626.07
2626.51
2626.72
2626.98
2627.29
2627.65
2628.04
2628.38
2628.59
2628.63
2628.51
2628.25
2627.97
2627.86
2628.16
2629.09
2630.73
2633.02
2635.75
2638.68
2641.64
2644.43
2646.73
2648.09
2648.25
2647.8
2649.02
2653.69
2645.64
2580.82
2602.01
2607.7
2611.19
2613.17
2613.99
2614.48
2614.99
2615.37
2615.59
2615.91
2616.65
2617.9
2619.52
2621.24
2622.89
2624.37
2625.68
2626.82
2627.68
2628.21
2628.86
2631.08
2636.61
2646.2
2655.28
2713.34
2714.77
2704.46
2684.53
2617.75
2610.21
2607.74
2613.5
2621.92
2607.01
2641.56
2657.52
2643.89
2634.65
2630.49
2628.92
2628.15
2627.41
2626.42
2625.46
2624.7
2624.3
2624.28
2624.26
2622.9
2622.94
2623.05
2623.41
2624.11
2624.43
2624.82
2625.19
2625.61
2626.08
2626.51
2626.85
2627.04
2627.09
2627.01
2626.92
2627
2627.47
2628.56
2630.35
2632.76
2635.59
2638.6
2641.62
2644.46
2646.78
2648.14
2648.29
2647.82
2648.97
2653.41
2644.2
2580.63
2601.79
2607.47
2610.94
2612.88
2613.68
2614.15
2614.64
2615.01
2615.23
2615.55
2616.3
2617.57
2619.21
2620.97
2622.66
2624.18
2625.53
2626.72
2627.7
2628.37
2628.87
2630.01
2633.37
2640.38
2645.59
2621.39
2613.26
2602.93
2589.38
2597.09
2594.96
2597.2
2606.97
2620.2
2609.51
2640.58
2656.39
2643.26
2634.38
2629.92
2627.41
2625.72
2624.49
2623.57
2622.98
2622.62
2622.51
2622.43
2622.29
2620.86
2620.85
2621.02
2621.49
2622.39
2622.91
2623.49
2623.95
2624.38
2624.81
2625.21
2625.51
2625.7
2625.76
2625.72
2625.69
2625.84
2626.4
2627.59
2629.49
2632.01
2634.94
2638.07
2641.19
2644.12
2646.51
2647.93
2648.1
2647.63
2648.71
2652.89
2642.82
2580.34
2601.47
2607.13
2610.58
2612.5
2613.26
2613.7
2614.15
2614.49
2614.68
2614.98
2615.71
2616.97
2618.61
2620.39
2622.09
2623.63
2625
2626.22
2627.27
2628.07
2628.58
2629.04
2630.44
2633.85
2630.82
2383.21
2370.82
2363.93
2360.26
2582.43
2587.13
2591.84
2602.51
2617.86
2610.47
2639.79
2654.63
2641.86
2633.47
2629.03
2626.37
2624.41
2623.09
2622.3
2622.05
2622.22
2622.47
2622.6
2622.89
2622.11
2622.14
2622.32
2622.57
2622.98
2623.52
2624.14
2624.6
2624.95
2625.22
2625.43
2625.55
2625.57
2625.5
2625.37
2625.27
2625.38
2625.93
2627.12
2629.04
2631.59
2634.56
2637.73
2640.91
2643.89
2646.33
2647.77
2647.96
2647.49
2648.53
2652.57
2642.03
2580.07
2601.2
2606.85
2610.3
2612.21
2612.95
2613.36
2613.78
2614.08
2614.22
2614.48
2615.18
2616.41
2618.04
2619.8
2621.51
2623.07
2624.45
2625.69
2626.77
2627.68
2628.34
2628.69
2628.96
2628.69
2615.89
2176.31
2160.34
2157.12
2163.38
2570.68
2582.38
2588.08
2597.17
2611.92
2606.74
2638.8
2653.14
2641.02
2633.8
2630.05
2627.58
2625.55
2624.16
2623.35
2623.27
2623.76
2624.5
2625.45
2626.92
2627.85
2628.16
2628.26
2627.79
2626.64
2626.74
2626.98
2627.31
2627.55
2627.62
2627.56
2627.41
2627.19
2626.88
2626.53
2626.24
2626.19
2626.62
2627.72
2629.57
2632.08
2635.03
2638.19
2641.37
2644.36
2646.81
2648.26
2648.45
2647.97
2649
2652.99
2642.31
2579.91
2601.05
2606.72
2610.18
2612.11
2612.86
2613.28
2613.7
2614
2614.12
2614.35
2615.01
2616.19
2617.76
2619.48
2621.14
2622.64
2623.99
2625.19
2626.26
2627.18
2627.94
2628.49
2628.62
2626.12
2605.96
2078.27
2059.56
2058.71
2072.48
2566.69
2582.63
2587.38
2592.77
2603.87
2598.83
2638.46
2653.68
2642.66
2636.79
2633.25
2630.8
2628.66
2627.07
2626.22
2626.05
2626.77