/*--------------------------------*- C++ -*----------------------------------*\
| =========                 |                                                 |
| \\      /  F ield         | OpenFOAM: The Open Source CFD Toolbox           |
|  \\    /   O peration     | Version:  v2012                                 |
|   \\  /    A nd           | Website:  www.openfoam.com                      |
|    \\/     M anipulation  |                                                 |
\*---------------------------------------------------------------------------*/
FoamFile
{
    version     2.0;
    format      ascii;
    class       volScalarField;
    location    "250/air";
    object      GLeaf;
}
// * * * * * * * * * * * * * * * * * * * * * * * * * * * * * * * * * * * * * //

dimensions      [1 0 -3 0 0 0 0];


internalField   nonuniform List<scalar> 
287104
(
738.805
765.257
767.72
768.274
767.586
765.901
763.974
762.13
760.241
758.257
756.419
755.021
754.154
753.672
753.335
752.952
752.446
751.823
751.124
750.385
749.625
748.847
748.051
747.238
746.411
745.571
744.717
743.847
742.961
742.06
741.152
740.245
739.347
738.453
737.555
736.646
735.743
734.854
733.96
733.058
732.161
731.265
730.392
729.555
728.719
727.879
727.045
726.206
725.361
724.516
723.687
722.897
722.17
721.518
720.934
720.395
719.871
719.332
718.763
718.16
717.529
716.877
716.206
715.517
714.812
714.093
713.372
712.656
711.953
711.258
710.559
709.846
709.135
708.505
708.112
708.166
708.86
710.266
712.285
714.685
717.227
719.744
722.074
723.928
724.868
724.596
723.724
724.821
730.587
722.58
749.167
778.357
780.673
780.89
779.836
777.762
775.461
773.26
771.013
768.67
766.487
764.778
763.638
762.911
762.344
761.737
761.007
760.158
759.235
758.273
757.292
756.298
755.288
754.263
753.224
752.172
751.107
750.03
748.943
747.852
746.76
745.671
744.585
743.496
742.388
741.258
740.151
739.096
738.037
736.951
735.868
734.772
733.707
732.717
731.718
730.702
729.706
728.715
727.724
726.73
725.74
724.769
723.839
722.968
722.163
721.417
720.707
720.007
719.295
718.559
717.798
717.012
716.205
715.377
714.53
713.669
712.803
711.942
711.091
710.244
709.388
708.51
707.63
706.831
706.282
706.211
706.828
708.218
710.28
712.767
715.417
718.035
720.442
722.343
723.305
723.039
722.195
723.57
730.411
722.983
736.901
765.319
767.288
767.26
766.026
763.8
761.363
759.045
756.696
754.262
751.992
750.199
748.977
748.17
747.525
746.844
746.043
745.127
744.14
743.118
742.08
741.031
739.97
738.896
737.809
736.708
735.593
734.468
733.338
732.208
731.081
729.959
728.839
727.711
726.557
725.373
724.22
723.148
722.072
720.953
719.837
718.698
717.593
716.591
715.577
714.529
713.508
712.497
711.492
710.489
709.49
708.505
707.55
706.643
705.794
705.001
704.25
703.518
702.784
702.034
701.262
700.468
699.653
698.818
697.967
697.105
696.239
695.38
694.529
693.679
692.817
691.932
691.045
690.244
689.704
689.656
690.308
691.743
693.855
696.395
699.095
701.758
704.207
706.153
707.167
706.948
706.128
707.587
714.794
708.118
724.798
752.441
754.24
754.092
752.755
750.442
747.935
745.558
743.162
740.689
738.382
736.559
735.306
734.47
733.798
733.092
732.267
731.33
730.323
729.284
728.23
727.167
726.095
725.01
723.913
722.801
721.673
720.534
719.391
718.251
717.118
715.993
714.868
713.734
712.567
711.358
710.182
709.112
708.039
706.911
705.785
704.63
703.508
702.512
701.501
700.441
699.413
698.398
697.396
696.399
695.406
694.42
693.452
692.519
691.635
690.804
690.019
689.263
688.514
687.757
686.982
686.184
685.365
684.526
683.671
682.804
681.934
681.066
680.201
679.334
678.452
677.547
676.648
675.847
675.317
675.29
675.97
677.434
679.572
682.131
684.845
687.514
689.958
691.884
692.863
692.588
691.696
693.093
700.323
693.999
713.505
740.544
742.261
742.051
740.648
738.274
735.715
733.299
730.873
728.374
726.048
724.21
722.947
722.101
721.419
720.702
719.869
718.924
717.911
716.867
715.81
714.746
713.674
712.59
711.495
710.385
709.259
708.121
706.977
705.836
704.705
703.584
702.466
701.339
700.181
698.976
697.795
696.724
695.657
694.533
693.415
692.273
691.156
690.165
689.166
688.111
687.088
686.082
685.093
684.114
683.141
682.172
681.214
680.28
679.385
678.538
677.736
676.968
676.215
675.46
674.69
673.9
673.088
672.256
671.406
670.543
669.672
668.797
667.921
667.04
666.146
665.24
664.352
663.577
663.086
663.101
663.82
665.313
667.468
670.032
672.738
675.382
677.774
679.609
680.461
680.053
679.056
680.358
687.445
681.242
702.632
729.159
730.828
730.575
729.122
726.699
724.102
721.661
719.221
716.713
714.391
712.552
711.29
710.443
709.758
709.037
708.2
707.254
706.24
705.197
704.143
703.082
702.013
700.935
699.844
698.741
697.624
696.495
695.36
694.225
693.099
691.984
690.873
689.761
688.63
687.461
686.291
685.2
684.122
683.011
681.915
680.818
679.731
678.725
677.73
676.694
675.685
674.698
673.73
672.778
671.832
670.891
669.957
669.041
668.156
667.312
666.51
665.743
664.997
664.256
663.506
662.739
661.953
661.146
660.319
659.474
658.615
657.748
656.88
656.011
655.141
654.275
653.446
652.745
652.338
652.438
653.235
654.793
656.997
659.598
662.325
664.976
667.35
669.133
669.909
669.449
668.473
669.802
676.722
670.415
691.984
718.037
719.666
719.376
717.871
715.392
712.746
710.275
707.827
705.324
703.045
701.212
699.955
699.111
698.425
697.704
696.866
695.921
694.911
693.872
692.823
691.768
690.705
689.631
688.546
687.449
686.343
685.23
684.112
682.994
681.882
680.78
679.683
678.593
677.516
676.433
675.311
674.18
673.076
672
670.958
669.968
668.965
667.928
666.937
665.959
665.006
664.085
663.193
662.324
661.471
660.628
659.796
658.98
658.189
657.428
656.701
656.005
655.331
654.666
653.998
653.316
652.613
651.884
651.127
650.343
649.539
648.725
647.914
647.123
646.364
645.642
644.987
644.488
644.305
644.645
645.692
647.501
649.953
652.794
655.745
658.621
661.217
663.219
664.22
664.028
663.39
665.021
671.772
664.483
681.491
707.083
708.679
708.356
706.8
704.253
701.529
698.984
696.481
693.949
691.695
689.832
688.556
687.713
687.039
686.333
685.514
684.59
683.6
682.583
681.555
680.52
679.475
678.416
677.341
676.254
675.16
674.065
672.975
671.888
670.808
669.737
668.671
667.628
666.666
665.785
664.831
663.715
662.653
661.749
660.916
660.24
659.54
658.6
657.768
657.067
656.375
655.716
655.09
654.499
653.939
653.411
652.914
652.448
652.015
651.621
651.27
650.965
650.702
650.471
650.258
650.048
649.829
649.593
649.338
649.069
648.799
648.546
648.33
648.162
648.043
647.974
647.979
648.14
648.617
649.619
651.327
653.792
656.881
660.334
663.852
667.265
670.363
672.829
674.261
674.467
674.17
675.904
681.552
670.053
671.133
696.269
697.837
697.493
695.904
693.301
690.487
687.815
685.141
682.372
679.586
677.418
675.996
675.118
674.453
673.778
673
672.12
671.175
670.198
669.206
668.203
667.183
666.142
665.078
664.026
662.996
661.996
661.035
660.112
659.225
658.374
657.548
656.771
656.141
655.709
655.157
654.185
653.281
652.721
652.263
652.109
651.923
651.161
650.583
650.329
650.066
649.853
649.676
649.531
649.424
649.357
649.326
649.323
649.342
649.385
649.459
649.572
649.725
649.91
650.11
650.31
650.494
650.654
650.793
650.923
651.066
651.246
651.483
651.783
652.139
652.54
653.003
653.606
654.508
655.922
658.031
660.887
664.363
668.211
672.213
676.061
679.531
682.33
684.089
684.643
684.744
686.898
692.501
678.385
660.914
685.595
687.137
686.781
685.177
682.551
679.685
676.898
673.942
670.299
662.835
658.372
655.744
654.233
653.231
652.391
651.551
650.664
649.738
648.786
647.816
646.822
645.798
644.737
643.635
642.534
641.435
640.354
639.307
638.306
637.357
636.458
635.598
634.798
634.157
633.816
633.257
631.863
630.498
629.733
629.105
628.979
628.846
627.676
626.773
626.456
626.086
625.765
625.482
625.252
625.089
624.999
624.971
624.986
625.032
625.112
625.236
625.414
625.648
625.928
626.239
626.562
626.883
627.2
627.521
627.865
628.255
628.714
629.25
629.859
630.52
631.216
631.957
632.818
633.955
635.577
637.868
640.886
644.543
648.772
654.5
659.917
664.679
668.522
671.131
672.388
673.127
675.989
682.372
669.023
650.841
675.068
676.582
676.21
674.597
671.979
669.143
666.388
663.134
656.083
606.835
590.399
584.137
581.521
580.127
579.038
577.913
576.666
575.317
573.914
572.498
571.098
569.736
568.426
567.176
565.986
564.858
563.802
562.834
561.96
561.17
560.429
559.685
558.951
558.496
558.552
558.378
556.92
555.431
554.791
554.238
554.325
554.381
552.745
551.372
550.846
550.163
549.487
548.816
548.181
547.605
547.085
546.603
546.138
545.685
545.253
544.858
544.508
544.207
543.947
543.721
543.522
543.352
543.222
543.151
543.158
543.258
543.458
543.754
544.126
544.549
545.001
545.493
546.089
546.926
548.182
550.006
552.57
556.009
562.149
583.906
601.884
615.836
626.408
634.015
639.067
642.812
648.401
657.957
649.341
640.919
664.696
666.182
665.791
664.164
661.545
658.723
655.992
652.711
645.295
593.984
577.036
570.849
568.485
567.384
566.578
565.703
564.668
563.492
562.224
560.907
559.575
558.258
556.978
555.751
554.582
553.463
552.392
551.384
550.463
549.641
548.899
548.179
547.475
547.095
547.433
547.53
545.787
543.944
543.325
542.798
543.16
543.574
541.556
539.816
539.293
538.52
537.732
536.935
536.167
535.445
534.742
534.025
533.273
532.49
531.688
530.876
530.059
529.233
528.395
527.544
526.69
525.847
525.037
524.282
523.598
522.996
522.475
522.03
521.648
521.312
521.01
520.76
520.629
520.754
521.313
522.457
524.254
526.72
530.918
548.239
563.602
576.301
586.561
594.502
600.324
605.18
612.487
625.57
624.331
631.146
654.482
655.943
655.536
653.894
651.265
648.439
645.707
642.428
635.038
584.397
567.639
561.535
559.217
558.149
557.375
556.537
555.541
554.409
553.188
551.919
550.635
549.368
548.149
547.004
545.942
544.945
543.981
543.037
542.137
541.318
540.596
539.934
539.311
539.089
539.825
540.356
538.444
536.335
535.862
535.483
536.26
537.258
535.048
533.131
532.89
532.356
531.858
531.412
531.038
530.704
530.364
529.988
529.577
529.145
528.699
528.234
527.737
527.197
526.614
525.993
525.347
524.689
524.026
523.356
522.669
521.949
521.18
520.348
519.443
518.443
517.331
516.112
514.851
513.689
512.82
512.43
512.612
513.391
515.649
528.811
540.118
549.274
556.663
562.444
566.77
570.7
577.679
591.676
595.449
621.523
644.425
645.865
645.445
643.789
641.152
638.321
635.591
632.329
625.031
575.308
558.837
552.831
550.546
549.491
548.728
547.902
546.924
545.813
544.615
543.37
542.106
540.854
539.651
538.543
537.554
536.665
535.813
534.931
534.009
533.096
532.26
531.523
530.872
530.71
531.756
532.673
530.524
528.038
527.596
527.23
528.262
529.725
527.17
524.859
524.694
524.207
523.816
523.53
523.324
523.132
522.897
522.623
522.351
522.111
521.9
521.71
521.519
521.321
521.13
520.966
520.847
520.78
520.759
520.763
520.77
520.762
520.735
520.687
520.585
520.395
520.09
519.663
519.167
518.737
518.571
518.857
519.689
521.088
523.948
537.88
549.043
557.653
564.232
569.053
572.337
575.197
580.908
592.539
591.437
612.043
634.518
635.943
635.518
633.855
631.211
628.375
625.642
622.392
615.183
566.335
550.143
544.232
541.981
540.942
540.191
539.378
538.416
537.324
536.149
534.929
533.686
532.446
531.249
530.158
529.232
528.472
527.794
527.06
526.182
525.175
524.156
523.248
522.491
522.329
523.629
524.931
522.563
519.671
519.23
518.837
520.056
521.967
519.065
516.303
516.164
515.718
515.451
515.312
515.192
514.972
514.631
514.248
513.917
513.663
513.456
513.255
513.049
512.857
512.717
512.666
512.699
512.807
512.966
513.148
513.333
513.509
513.673
513.819
513.927
513.961
513.877
513.67
513.412
513.268
513.47
514.239
515.701
517.955
522.408
538.419
551.307
561.261
568.962
574.67
578.577
581.781
587.378
597.651
592.648
602.697
624.752
626.168
625.746
624.087
621.449
618.616
615.879
612.632
605.496
557.461
541.532
535.712
533.499
532.483
531.752
530.959
530.019
528.95
527.801
526.609
525.392
524.166
522.966
521.869
520.973
520.33
519.865
519.374
518.65
517.612
516.382
515.21
514.244
513.993
515.456
517.102
514.528
511.18
510.717
510.289
511.664
514.056
510.869
507.682
507.583
507.254
507.195
507.23
507.129
506.762
506.21
505.661
505.246
504.963
504.739
504.523
504.318
504.159
504.076
504.079
504.151
504.264
504.387
504.497
504.582
504.638
504.658
504.625
504.507
504.253
503.863
503.343
502.789
502.397
502.428
503.119
504.6
506.964
511.558
527.329
540.06
549.91
557.49
563.017
566.698
569.641
574.865
584.672
580.311
593.486
615.12
616.529
616.114
614.473
611.862
609.053
606.328
603.084
596.009
548.727
533.045
527.316
525.142
524.152
523.445
522.676
521.758
520.713
519.589
518.425
517.237
516.028
514.82
513.692
512.777
512.198
511.933
511.749
511.306
510.36
508.959
507.459
506.165
505.688
507.158
509.032
506.228
502.328
501.801
501.336
502.852
505.794
502.431
498.917
498.918
498.816
499.041
499.226
499.023
498.369
497.516
496.776
496.286
495.986
495.759
495.554
495.386
495.29
495.275
495.321
495.393
495.461
495.508
495.524
495.504
495.438
495.303
495.065
494.68
494.116
493.365
492.478
491.587
490.909
490.709
491.211
492.514
494.606
498.507
513.095
524.764
533.561
540.035
544.498
547.259
549.372
553.915
563.86
562.187
584.414
605.628
607.024
606.612
604.99
602.422
599.671
597.002
593.806
586.82
540.276
524.852
519.218
517.077
516.102
515.404
514.642
513.729
512.687
511.569
510.416
509.245
508.048
506.829
505.647
504.657
504.054
503.914
504.034
503.973
503.278
501.826
500.007
498.287
497.42
498.692
500.629
497.589
493.105
492.467
491.973
493.6
497.12
493.747
490.103
490.35
490.626
491.193
491.454
491.014
489.984
488.837
487.98
487.502
487.26
487.097
486.964
486.879
486.858
486.883
486.916
486.926
486.901
486.839
486.732
486.565
486.305
485.914
485.354
484.603
483.663
482.565
481.39
480.284
479.458
479.158
479.587
480.822
482.831
486.301
499.619
510.702
519.316
525.848
530.484
533.444
535.766
540.511
551.048
551.324
575.491
596.287
597.664
597.242
595.625
593.09
590.411
587.851
584.806
578.073
532.586
517.535
512.021
509.889
508.888
508.151
507.344
506.382
505.29
504.127
502.94
501.75
500.549
499.318
498.083
496.987
496.279
496.155
496.51
496.877
496.604
495.31
493.297
491.128
489.725
490.602
492.483
489.335
484.483
483.685
483.11
484.651
488.483
485.205
481.609
482.254
483.014
483.875
484.054
483.238
481.819
480.503
479.726
479.467
479.476
479.554
479.644
479.753
479.873
479.976
480.035
480.041
480.001
479.913
479.753
479.481
479.051
478.432
477.62
476.639
475.533
474.37
473.24
472.279
471.673
471.637
472.338
473.825
476.052
479.776
494.192
506.596
516.563
524.42
530.324
534.43
537.678
543.045
553.735
552.781
566.713
587.096
588.453
588.014
586.383
583.853
581.215
578.758
575.967
569.978
528.089
514.002
508.598
506.298
505.084
504.158
503.214
502.182
501.095
500.01
498.97
497.989
497.036
496.056
495.016
494.007
493.29
493.173
493.715
494.527
494.834
493.963
491.994
489.466
487.471
487.875
489.773
486.868
482.229
481.199
480.296
481.16
484.387
480.883
477.081
477.919
478.838
479.481
478.998
477.342
475.284
473.717
473.005
472.953
473.196
473.509
473.84
474.192
474.555
474.907
475.241
475.551
475.82
476.014
476.077
475.956
475.623
475.091
474.405
473.638
472.861
472.141
471.553
471.202
471.237
471.832
473.122
475.128
477.79
482.286
499.12
513.087
523.991
532.363
538.477
542.538
545.468
550.072
558.82
554.075
558.06
578.033
579.373
578.919
577.269
574.715
572.047
569.566
567.048
564.056
558.542
555.472
553.963
553.246
552.827
552.415
551.874
551.193
550.421
549.621
548.836
548.073
547.285
546.386
545.292
544.042
542.902
542.31
542.553
543.436
544.145
543.693
541.806
538.871
536.208
536.297
538.792
536.871
533.58
532.72
531.545
531.393
533.232
529.26
525.033
526.195
527.322
527.599
526.276
523.746
521.198
519.602
519.123
519.317
519.692
520.011
520.252
520.453
520.636
520.817
521.001
521.162
521.257
521.231
521.03
520.633
520.079
519.438
518.8
518.247
517.836
517.596
517.56
517.796
518.435
519.654
521.602
524.314
527.679
531.594
536.66
541.587
546.094
549.947
552.795
554.405
555.409
558.278
564.83
556.132
549.497
569.062
570.386
569.919
568.253
565.683
562.994
560.494
558.017
555.457
553.002
551.117
549.912
549.177
548.632
548.06
547.362
546.539
545.648
544.762
543.934
543.182
542.468
541.694
540.735
539.54
538.294
537.447
537.462
538.401
539.584
539.853
538.556
535.808
533.087
533.481
537.284
536.976
535.976
535.531
533.868
532.088
531.424
526.568
521.519
522.826
524.078
523.994
522.03
519.11
516.702
515.633
515.697
516.207
516.646
516.877
516.988
517.092
517.245
517.449
517.663
517.82
517.845
517.69
517.354
516.886
516.362
515.88
515.528
515.358
515.381
515.587
515.968
516.566
517.496
518.929
521.024
523.831
527.209
530.946
534.839
538.666
542.244
545.289
547.387
548.277
548.582
550.705
556.414
547.516
540.991
560.149
561.458
560.975
559.294
556.714
554.02
551.52
549.056
546.566
544.376
542.633
541.475
540.751
540.208
539.636
538.935
538.102
537.193
536.28
535.424
534.657
533.966
533.27
532.428
531.315
529.998
528.841
528.416
529.052
530.324
531.074
530.347
528.004
525.684
527.001
532.73
534.177
535.656
535.887
533.489
529.666
526.062
519.803
513.074
513.724
514.408
513.439
510.595
507.284
505.029
504.274
504.418
504.653
504.59
504.294
503.96
503.707
503.543
503.395
503.168
502.776
502.173
501.372
500.449
499.503
498.638
497.932
497.426
497.121
496.984
496.97
497.056
497.279
497.759
498.682
500.219
502.436
505.263
508.479
511.827
515.159
518.288
520.897
522.548
522.989
522.847
524.53
530.15
524.142
532.527
551.279
552.572
552.075
550.378
547.786
545.084
542.581
540.116
537.628
535.397
533.659
532.514
531.809
531.288
530.742
530.068
529.257
528.357
527.436
526.558
525.768
525.082
524.461
523.785
522.887
521.708
520.429
519.621
519.804
520.862
521.807
521.52
519.719
518.212
520.921
528.762
531.63
535.771
537.033
533.717
527.59
520.971
513.608
505.141
504.923
505.053
503.571
500.555
497.663
496.159
495.973
496.228
496.228
495.862
495.365
494.946
494.631
494.318
493.875
493.212
492.311
491.214
490.011
488.834
487.779
486.912
486.254
485.792
485.484
485.275
485.116
484.988
484.937
485.095
485.655
486.806
488.626
491.024
493.781
496.648
499.463
502.066
504.148
505.3
505.308
504.838
506.385
512.56
508.696
524.112
542.459
543.738
543.227
541.516
538.912
536.203
533.695
531.227
528.737
526.478
524.738
523.602
522.912
522.412
521.895
521.256
520.482
519.611
518.7
517.807
516.983
516.268
515.68
515.156
514.534
513.669
512.542
511.57
511.333
511.989
512.806
512.67
511.246
510.479
514.405
523.827
527.43
533.357
536.021
531.688
522.938
514.433
506.915
497.448
496.732
496.729
495.355
492.876
490.937
490.334
490.58
490.826
490.722
490.443
490.256
490.213
490.163
489.919
489.377
488.541
487.511
486.402
485.324
484.392
483.648
483.092
482.696
482.421
482.219
482.038
481.834
481.603
481.414
481.421
481.827
482.821
484.533
486.884
489.659
492.624
495.6
498.384
500.682
502.095
502.396
502.215
504.012
510.247
505.573
515.794
533.739
535.006
534.483
532.759
530.146
527.43
524.917
522.447
519.957
517.691
515.951
514.821
514.141
513.655
513.16
512.555
511.824
510.993
510.109
509.218
508.363
507.595
506.968
506.496
506.071
505.542
504.819
504.026
503.65
504.002
504.544
504.331
502.938
502.302
506.59
516.693
520.607
534.553
539.029
533.94
522.391
506.142
499.579
490.563
490.629
491.53
491.17
489.97
489.263
489.433
489.887
490.113
490.148
490.259
490.524
490.766
490.736
490.314
489.544
488.571
487.575
486.669
485.904
485.334
484.936
484.672
484.498
484.367
484.243
484.097
483.905
483.67
483.497
483.551
484.059
485.227
487.092
489.554
492.399
495.408
498.422
501.271
503.658
505.163
505.511
505.294
506.911
512.5
505.708
507.691
525.243
526.5
525.965
524.229
521.607
518.887
516.372
513.9
511.411
509.145
507.409
506.283
505.609
505.133
504.656
504.081
503.393
502.612
501.773
500.91
500.053
499.229
498.486
497.892
497.432
497.016
496.767
496.447
496.345
496.77
497.159
496.916
495.41
494.267
497.901
508.04
511.985
515.078
520.452
514.842
501.347
496.105
490.985
483.014
484.485
486.283
486.561
485.934
485.593
485.676
485.81
485.91
486.165
486.649
487.156
487.384
487.171
486.582
485.816
485.073
484.499
484.123
483.896
483.824
483.854
483.941
484.052
484.164
484.243
484.269
484.231
484.157
484.104
484.238
484.783
485.935
487.763
490.178
492.995
496.021
499.084
502.001
504.445
505.955
506.23
505.847
507.151
511.972
503.45
500.03
517.207
518.453
517.905
516.158
513.528
510.802
508.284
505.81
503.32
501.057
499.323
498.201
497.533
497.065
496.603
496.055
495.408
494.679
493.897
493.086
492.259
491.393
490.479
489.588
488.834
488.183
488.193
488.384
488.824
489.691
490.216
490.318
489.16
487.679
490.211
500.406
506.158
560.683
563.86
555.916
540.158
483.978
479.087
472.35
475.58
477.968
478.582
478.294
478.134
478.25
478.536
479.04
479.796
480.587
481.081
481.093
480.692
480.112
479.591
479.26
479.167
479.253
479.417
479.666
479.949
480.235
480.524
480.796
481.027
481.181
481.245
481.246
481.277
481.506
482.148
483.392
485.309
487.808
490.68
493.717
496.759
499.618
501.957
503.303
503.365
502.741
503.728
508.007
498.707
493.144
509.983
511.22
510.661
508.902
506.263
503.531
501.006
498.525
496.028
493.759
492.021
490.897
490.229
489.768
489.318
488.793
488.184
487.51
486.795
486.056
485.281
484.396
483.323
482.109
481.03
480.042
479.919
480.313
481.099
482.289
483.107
484.008
484.28
483.945
486.195
497.225
501.813
474.131
471.701
465.414
455.626
475.012
473.296
467.364
471.208
472.647
472.801
472.646
472.776
473.169
473.773
474.571
475.391
475.931
475.991
475.626
475.083
474.601
474.334
474.307
474.494
474.805
475.127
475.494
475.872
476.24
476.576
476.86
477.073
477.194
477.223
477.193
477.201
477.414
478.037
479.255
481.136
483.584
486.398
489.37
492.337
495.105
497.328
498.546
498.486
497.751
498.575
502.543
492.982
487.416
503.974
505.21
504.649
502.89
500.254
497.525
495.002
492.519
490.015
487.736
485.982
484.84
484.154
483.678
483.219
482.694
482.102
481.469
480.816
480.144
479.417
478.545
477.452
476.195
475.206
474.41
473.909
474.028
474.467
475.097
476.007
477.881
480.629
483.335
486.595
498.008
496.201
246.22
244.138
244.059
245.143
475.885
478.62
470.949
472.131
469.98
468.621
468.497
469.089
469.84
470.597
471.307
471.808
471.962
471.778
471.431
471.12
470.975
471.021
471.209
471.506
471.841
472.115
472.388
472.635
472.839
472.992
473.09
473.13
473.112
473.04
472.951
472.933
473.14
473.772
474.994
476.86
479.274
482.035
484.938
487.826
490.51
492.651
493.798
493.693
492.924
493.666
497.454
487.831
483.161
499.512
500.754
500.204
498.465
495.859
493.169
490.688
488.247
485.779
483.525
481.782
480.636
479.93
479.42
478.916
478.344
477.714
477.062
476.409
475.732
474.988
474.171
473.356
472.673
472.534
473.011
472.288
471.814
471.097
469.855
470.392
473.037
478.655
485.409
490.528
502.635
495.451
62.2264
60.9626
66.8603
77.6691
483.152
488.526
477.229
474.084
467.636
464.8
464.758
465.578
466.206
466.61
466.973
467.341
467.653
467.896
468.12
468.378
468.69
469.032
469.367
469.696
469.977
470.112
470.18
470.171
470.099
469.986
469.856
469.721
469.582
469.437
469.307
469.266
469.455
470.061
471.251
473.078
475.448
478.16
481.015
483.861
486.514
488.646
489.807
489.728
488.975
489.694
493.406
483.827
480.511
496.721
497.962
497.419
495.703
493.141
490.517
488.123
485.785
483.432
481.294
479.66
478.605
477.963
477.483
476.975
476.366
475.677
474.955
474.214
473.412
472.551
471.873
471.776
472.45
473.795
476.473
475.915
474.732
472.297
468.105
467.714
470.64
478.771
489.177
495.967
509.194
499.951
-8.95372
-9.96777
-0.494755
15.9719
495.189
499.196
483.359
476.604
466.828
462.57
461.823
461.884
461.702
461.593
461.963
462.797
463.839
464.86
465.754
466.519
467.159
467.696
468.104
468.408
468.573
468.501
468.302
468.007
467.675
467.364
467.111
466.923
466.778
466.652
466.546
466.519
466.708
467.299
468.459
470.249
472.579
475.255
478.08
480.906
483.555
485.696
486.877
486.82
486.08
486.802
490.517
481.057
479.338
495.461
496.677
496.107
494.372
491.807
489.202
486.858
484.605
482.371
480.387
478.932
478.07
477.622
477.32
476.961
476.465
475.851
475.162
474.385
473.464
472.54
472.276
473.492
476.273
479.251
484.212
484.089
481.973
477.424
469.916
468.076
471.498
481.398
494.574
502.605
518.117
507.243
-25.3697
-31.9564
-21.9756
-0.870006
514.755
515.543
493.419
483.462
470.15
463.158
460.219
458.755
457.861
457.823
458.771
460.317
461.915
463.234
464.21
464.906
464.547
464.9
465.117
465.233
465.212
464.949
464.577
464.222
463.946
463.788
463.749
463.791
463.86
463.907
463.927
463.983
464.22
464.837
466.015
467.825
470.182
472.894
475.766
478.646
481.353
483.553
484.79
484.782
484.086
484.864
488.678
479.429
479.264
495.356
496.535
495.909
494.103
491.457
488.766
486.342
484.027
481.761
479.784
478.384
477.625
477.327
477.212
477.066
476.799
476.419
475.943
475.313
474.475
473.786
474.435
477.617
483.068
487.535
494.838
495.471
492.093
484.965
473.91
470.139
471.873
482.115
497.191
507.328
529.045
520.209
-10.5074
-22.0194
-16.1472
4.68843
533.445
534.462
504.645
491.922
475.067
465.133
460.188
457.844
456.854
456.933
457.743
458.724
459.399
459.656
459.64
459.528
458.506
458.333
458.105
457.876
457.646
457.396
457.233
457.207
457.358
457.67
458.09
458.531
458.901
459.157
459.345
459.61
460.078
460.932
462.343
464.38
466.96
469.887
472.958
476.019
478.885
481.224
482.583
482.685
482.1
483.023
487.068
478.224
479.772
495.89
497.052
496.394
494.532
491.8
488.993
486.423
483.937
481.485
479.32
477.743
476.835
476.425
476.247
476.088
475.862
475.571
475.208
474.675
473.935
473.592
475.315
480.535
488.559
494.251
503.144
505.287
500.833
490.99
477.83
472.451
471.533
479.852
494.606
508.699
548.393
539.793
-18.1412
-35.9381
-31.287
-4.65642
560.421
565.711
515.076
496.15
476.119
464.561
459.027
456.623
455.033
453.628
452.388
451.44
450.754
450.49
450.835
451.757
452.183
453.68
455.109
456.349
457.311
457.959
458.399
458.689
458.867
458.951
458.94
458.812
458.556
458.187
457.771
457.435
457.366
457.825
458.984
460.88
463.404
466.33
469.433
472.542
475.469
477.898
479.376
479.617
479.194
480.333
484.725
476.555
480.366
496.537
497.719
497.082
495.235
492.506
489.682
487.066
484.501
481.933
479.614
477.851
476.73
476.09
475.676
475.284
474.832
474.326
473.745
472.971
471.99
471.558
473.608
479.7
489.022
495.431
512.031
516.25
511.262
498.824
478.201
472.595
470.022
475.472
486.077
501.19
585.326
574.987
57.7971
36.2654
39.5041
68.5376
606.023
617.852
516.199
489.933
467.435
453.864
447.651
447.94
445.541
445.775
455.726
460.09
462.704
464.966
467.069
468.797
469.308
470.441
471.212
471.751
472.106
472.204
472.204
472.138
472.011
471.798
471.448
470.909
470.153
469.189
468.08
466.95
466.001
465.443
465.521
466.356
467.882
469.901
472.195
474.59
476.888
478.752
479.74
479.58
478.851
479.789
484.179
476.254
480.733
496.938
498.142
497.538
495.739
493.069
490.312
487.767
485.269
482.758
480.478
478.729
477.595
476.912
476.424
475.927
475.338
474.654
473.853
472.813
471.511
470.651
472.087
477.481
486.493
492.9
498.635
503.819
498.399
483.706
472.985
467.296
463.868
467.322
470.614
451.595
462.862
477.932
467.019
460.493
460.818
465.164
470.121
473.7
475.362
476.354
477.09
477.819
478.637
479.2
478.536
478.838
478.966
479.103
479.306
479.231
479.16
479.084
479.023
478.945
478.788
478.479
477.977
477.279
476.43
475.539
474.793
474.426
474.646
475.545
477.042
478.936
481.014
483.108
485.034
486.476
486.995
486.333
485.104
485.559
489.445
480.55
480.786
496.984
498.186
497.585
495.799
493.151
490.43
487.933
485.497
483.057
480.857
479.193
478.144
477.545
477.136
476.711
476.181
475.536
474.762
473.757
472.456
471.302
471.715
475.405
483.17
491.582
551.323
556.151
549.481
532.387
468.133
462.234
460.571
466.223
472.899
451.995
469.979
494.194
485.837
480.15
478.82
479.664
480.94
481.88
482.34
482.53
482.575
482.644
482.669
482.524
481.138
481.031
480.936
481.047
481.462
481.475
481.542
481.578
481.651
481.749
481.799
481.73
481.501
481.103
480.573
480.008
479.585
479.537
480.066
481.257
483.026
485.166
487.463
489.747
491.832
493.396
494.007
493.413
492.212
492.631
496.248
486.223
480.596
496.768
497.954
497.333
495.523
492.853
490.11
487.597
485.15
482.707
480.511
478.858
477.828
477.255
476.878
476.492
476.002
475.397
474.677
473.778
472.604
471.288
470.636
472.201
477.929
485.316
469.687
468.714
462.764
451.168
459.155
456.368
457.17
464.588
473.509
453.146
471.812
497.013
489.429
484.189
482.532
482.504
482.799
483.051
483.212
483.342
483.405
483.369
483.101
482.727
481.106
480.812
480.671
480.811
481.373
481.58
481.864
482.038
482.205
482.388
482.536
482.59
482.517
482.308
481.992
481.661
481.489
481.702
482.499
483.959
485.994
488.396
490.945
493.469
495.775
497.535
498.313
497.855
496.756
497.211
500.681
489.915
480.303
496.454
497.628
496.99
495.155
492.454
489.677
487.129
484.65
482.179
479.961
478.295
477.26
476.692
476.328
475.962
475.493
474.906
474.21
473.381
472.34
471.028
469.692
469.332
471.598
471.138
235.086
232.256
231.808
231.706
452.769
455.694
457.901
465.013
474.429
454.621
472.262
497.024
489.978
485.543
484.042
483.564
483.287
483.107
483.078
483.266
483.482
483.521
483.324
483.204
482.03
481.606
481.331
481.144
481.162
481.368
481.708
481.945
482.126
482.278
482.394
482.447
482.414
482.283
482.077
481.884
481.872
482.264
483.254
484.916
487.156
489.762
492.512
495.234
497.73
499.662
500.59
500.258
499.264
499.783
503.207
492.073
480.036
496.183
497.359
496.719
494.875
492.157
489.355
486.775
484.26
481.75
479.494
477.794
476.733
476.15
475.783
475.424
474.97
474.4
473.723
472.934
471.997
470.83
469.384
467.921
466.582
456.529
30.8155
26.4451
31.538
43.1327
448.342
457.525
460.169
465.26
473.631
455.016
471.186
496.098
489.937
486.299
485.027
484.489
483.993
483.546
483.249
483.315
483.562
483.906
484.329
485.145
485.402
485.006
484.424
483.35
481.701
481.401
481.329
481.463
481.593
481.656
481.678
481.675
481.638
481.549
481.421
481.335
481.461
482.01
483.157
484.965
487.341
490.076
492.952
495.795
498.404
500.438
501.449
501.188
500.254
500.813
504.244
493.017
479.884
496.04
497.232
496.609
494.782
492.078
489.287
486.712
484.191
481.664
479.377
477.636
476.529
475.895
475.478
475.071
474.574
473.967
473.26
472.455
471.54
470.486
469.246
467.641
464.027
446.482
-66.9014
-73.4948
-65.4984
-45.7971
445.876
458.997
460.667
462.396
467.917
451.314
469.06
494.964
490.606
487.128