/*--------------------------------*- C++ -*----------------------------------*\
| =========                 |                                                 |
| \\      /  F ield         | OpenFOAM: The Open Source CFD Toolbox           |
|  \\    /   O peration     | Version:  v2012                                 |
|   \\  /    A nd           | Website:  www.openfoam.com                      |
|    \\/     M anipulation  |                                                 |
\*---------------------------------------------------------------------------*/
FoamFile
{
    version     2.0;
    format      ascii;
    class       volScalarField;
    location    "250/air";
    object      ILambda_12_0;
}
// * * * * * * * * * * * * * * * * * * * * * * * * * * * * * * * * * * * * * //

dimensions      [1 0 -3 0 0 0 0];


internalField   nonuniform List<scalar> 
287104
(
194.058
195.844
196.91
197.885
198.678
199.333
199.902
200.414
200.874
201.29
201.678
202.056
202.432
202.804
203.165
203.506
203.826
204.126
204.409
204.678
204.936
205.184
205.422
205.653
205.875
206.09
206.298
206.5
206.695
206.886
207.071
207.252
207.429
207.603
207.773
207.939
208.103
208.263
208.421
208.575
208.727
208.877
209.025
209.172
209.317
209.46
209.601
209.74
209.878
210.014
210.15
210.285
210.422
210.56
210.701
210.843
210.985
211.127
211.267
211.403
211.535
211.663
211.786
211.904
212.02
212.133
212.244
212.356
212.468
212.581
212.694
212.807
212.921
213.039
213.171
213.329
213.528
213.773
214.059
214.363
214.662
214.942
215.202
215.445
215.665
215.846
215.999
216.208
216.635
217.632
213.158
216.116
217.419
218.681
219.666
220.442
221.094
221.656
222.135
222.547
222.929
223.316
223.72
224.133
224.536
224.916
225.265
225.586
225.883
226.162
226.425
226.675
226.912
227.138
227.354
227.559
227.756
227.945
228.125
228.3
228.468
228.631
228.79
228.943
229.092
229.236
229.377
229.515
229.65
229.781
229.91
230.035
230.16
230.284
230.406
230.525
230.643
230.759
230.874
230.987
231.1
231.213
231.329
231.447
231.57
231.697
231.827
231.957
232.088
232.215
232.338
232.456
232.569
232.676
232.778
232.875
232.969
233.061
233.153
233.245
233.337
233.428
233.521
233.623
233.748
233.919
234.159
234.481
234.877
235.315
235.756
236.171
236.551
236.894
237.185
237.399
237.558
237.816
238.481
240.212
215.746
218.945
220.23
221.507
222.494
223.264
223.905
224.454
224.916
225.31
225.674
226.046
226.439
226.843
227.239
227.61
227.95
228.261
228.547
228.814
229.066
229.304
229.529
229.743
229.946
230.139
230.323
230.498
230.666
230.827
230.983
231.133
231.279
231.42
231.554
231.684
231.811
231.936
232.058
232.176
232.291
232.403
232.514
232.626
232.735
232.841
232.947
233.051
233.153
233.254
233.355
233.455
233.557
233.661
233.769
233.881
233.997
234.114
234.232
234.347
234.458
234.565
234.666
234.762
234.853
234.939
235.023
235.105
235.186
235.268
235.349
235.429
235.512
235.603
235.718
235.883
236.121
236.447
236.852
237.303
237.756
238.183
238.574
238.924
239.216
239.426
239.575
239.835
240.549
242.419
214.122
217.175
218.421
219.656
220.608
221.349
221.966
222.496
222.944
223.325
223.677
224.035
224.413
224.802
225.184
225.542
225.869
226.168
226.443
226.7
226.942
227.17
227.387
227.592
227.787
227.972
228.147
228.315
228.475
228.629
228.778
228.923
229.062
229.196
229.325
229.447
229.567
229.686
229.803
229.914
230.023
230.129
230.233
230.339
230.443
230.543
230.643
230.742
230.839
230.935
231.03
231.125
231.22
231.317
231.417
231.52
231.628
231.737
231.848
231.957
232.062
232.163
232.259
232.349
232.433
232.514
232.592
232.668
232.743
232.819
232.895
232.97
233.047
233.133
233.243
233.4
233.631
233.948
234.341
234.777
235.215
235.625
235.998
236.333
236.612
236.811
236.954
237.21
237.914
239.736
212.453
215.32
216.544
217.743
218.666
219.383
219.982
220.498
220.935
221.307
221.649
221.998
222.365
222.744
223.115
223.464
223.782
224.073
224.341
224.591
224.827
225.05
225.261
225.461
225.651
225.831
226.002
226.165
226.321
226.471
226.617
226.758
226.894
227.025
227.15
227.269
227.385
227.501
227.614
227.723
227.828
227.931
228.032
228.135
228.236
228.333
228.429
228.525
228.619
228.713
228.806
228.897
228.989
229.081
229.176
229.274
229.376
229.48
229.586
229.691
229.793
229.891
229.984
230.07
230.152
230.229
230.304
230.377
230.45
230.523
230.596
230.669
230.743
230.827
230.934
231.088
231.314
231.624
232.008
232.434
232.861
233.259
233.621
233.945
234.215
234.409
234.55
234.802
235.488
237.244
211.359
214.113
215.32
216.495
217.397
218.097
218.682
219.186
219.613
219.977
220.312
220.652
221.012
221.384
221.748
222.09
222.403
222.688
222.951
223.197
223.428
223.647
223.855
224.051
224.238
224.415
224.583
224.743
224.896
225.043
225.185
225.323
225.458
225.587
225.71
225.826
225.939
226.052
226.162
226.268
226.371
226.471
226.57
226.669
226.767
226.861
226.955
227.047
227.139
227.231
227.321
227.41
227.498
227.587
227.678
227.77
227.867
227.966
228.067
228.167
228.266
228.36
228.45
228.534
228.612
228.687
228.76
228.831
228.901
228.972
229.043
229.114
229.186
229.267
229.371
229.522
229.743
230.048
230.426
230.846
231.266
231.658
232.014
232.332
232.596
232.785
232.921
233.166
233.827
235.515
210.597
213.297
214.487
215.643
216.527
217.213
217.785
218.279
218.696
219.051
219.378
219.712
220.066
220.431
220.79
221.126
221.435
221.716
221.975
222.217
222.445
222.661
222.865
223.059
223.242
223.417
223.582
223.739
223.889
224.032
224.171
224.306
224.437
224.564
224.686
224.801
224.911
225.019
225.124
225.226
225.326
225.424
225.52
225.613
225.706
225.796
225.885
225.973
226.061
226.147
226.233
226.317
226.401
226.484
226.568
226.654
226.742
226.833
226.927
227.021
227.114
227.204
227.289
227.37
227.445
227.517
227.585
227.652
227.718
227.783
227.847
227.911
227.975
228.047
228.143
228.284
228.496
228.791
229.159
229.567
229.976
230.357
230.7
231.004
231.252
231.423
231.542
231.764
232.376
233.95
209.931
212.602
213.773
214.91
215.779
216.452
217.012
217.494
217.902
218.247
218.565
218.889
219.235
219.594
219.947
220.279
220.584
220.862
221.118
221.357
221.582
221.796
221.998
222.189
222.37
222.542
222.704
222.859
223.006
223.146
223.281
223.412
223.54
223.663
223.783
223.897
224.004
224.102
224.197
224.292
224.385
224.479
224.568
224.65
224.731
224.812
224.891
224.97
225.047
225.124
225.199
225.272
225.345
225.416
225.487
225.559
225.633
225.709
225.787
225.866
225.944
226.02
226.091
226.156
226.216
226.272
226.325
226.375
226.424
226.473
226.52
226.566
226.613
226.668
226.745
226.867
227.059
227.332
227.678
228.065
228.451
228.81
229.132
229.413
229.639
229.789
229.891
230.093
230.658
232.06
209.265
211.907
213.059
214.177
215.031
215.69
216.239
216.71
217.107
217.437
217.71
218.019
218.358
218.714
219.065
219.395
219.699
219.976
220.232
220.472
220.699
220.913
221.115
221.307
221.487
221.657
221.817
221.967
222.109
222.243
222.37
222.492
222.609
222.723
222.835
222.945
223.043
223.124
223.2
223.282
223.363
223.448
223.527
223.588
223.651
223.717
223.781
223.844
223.904
223.964
224.023
224.08
224.136
224.191
224.246
224.3
224.355
224.412
224.472
224.532
224.592
224.649
224.703
224.751
224.794
224.833
224.868
224.901
224.933
224.964
224.994
225.023
225.052
225.088
225.147
225.25
225.423
225.677
226.003
226.372
226.754
227.106
227.419
227.688
227.899
228.033
228.121
228.31
228.83
230.011
208.585
211.188
212.323
213.422
214.26
214.906
215.443
215.903
216.283
216.578
217.01
217.192
217.405
217.68
217.994
218.32
218.643
218.955
219.255
219.542
219.817
220.078
220.325
220.556
220.772
220.972
221.157
221.327
221.485
221.631
221.769
221.9
222.026
222.15
222.27
222.39
222.494
222.567
222.635
222.714
222.793
222.882
222.965
223.014
223.063
223.125
223.18
223.234
223.285
223.334
223.382
223.429
223.475
223.519
223.561
223.602
223.643
223.686
223.73
223.776
223.821
223.865
223.905
223.94
223.97
223.995
224.016
224.036
224.054
224.071
224.086
224.1
224.115
224.136
224.18
224.269
224.427
224.668
224.985
225.354
225.642
225.935
226.207
226.446
226.632
226.747
226.821
227.006
227.52
228.609
207.898
210.459
211.575
212.656
213.478
214.112
214.637
215.085
215.439
215.548
210.33
209.45
209.686
210.29
211.018
211.763
212.476
213.137
213.739
214.282
214.765
215.191
215.562
215.879
216.148
216.373
216.559
216.715
216.845
216.957
217.056
217.146
217.23
217.312
217.397
217.49
217.57
217.612
217.649
217.707
217.768
217.847
217.923
217.953
217.987
218.041
218.09
218.137
218.18
218.221
218.259
218.296
218.33
218.36
218.386
218.409
218.429
218.447
218.464
218.48
218.495
218.506
218.514
218.517
218.515
218.509
218.499
218.486
218.47
218.451
218.43
218.405
218.378
218.356
218.352
218.386
218.477
218.634
218.837
219.087
221.205
222.832
224.011
224.854
225.436
225.806
226.043
226.346
226.984
228.234
207.217
209.732
210.831
211.894
212.701
213.321
213.835
214.271
214.603
214.603
206.782
205.387
205.64
206.405
207.333
208.279
209.18
210.009
210.759
211.427
212.014
212.522
212.954
213.314
213.609
213.845
214.03
214.172
214.282
214.367
214.437
214.497
214.553
214.609
214.675
214.762
214.845
214.882
214.919
214.993
215.078
215.192
215.312
215.372
215.44
215.544
215.644
215.745
215.847
215.95
216.054
216.158
216.261
216.361
216.459
216.553
216.644
216.734
216.821
216.906
216.987
217.065
217.136
217.2
217.257
217.305
217.345
217.376
217.4
217.415
217.42
217.415
217.402
217.385
217.379
217.403
217.476
217.608
217.782
218.029
220.612
222.584
223.997
225
225.691
226.131
226.414
226.764
227.529
229.095
206.548
209.017
210.099
211.143
211.935
212.542
213.045
213.47
213.789
213.753
205.457
203.954
204.207
204.998
205.959
206.94
207.873
208.733
209.51
210.2
210.805
211.327
211.767
212.13
212.424
212.654
212.829
212.958
213.049
213.112
213.158
213.195
213.227
213.261
213.31
213.391
213.471
213.491
213.51
213.58
213.663
213.786
213.921
213.974
214.038
214.151
214.261
214.374
214.491
214.613
214.738
214.866
214.995
215.123
215.252
215.383
215.515
215.649
215.786
215.926
216.068
216.213
216.358
216.504
216.65
216.794
216.937
217.08
217.221
217.359
217.493
217.622
217.745
217.868
218.004
218.171
218.388
218.667
218.996
219.422
221.927
223.82
225.169
226.133
226.809
227.253
227.553
227.947
228.829
230.755
205.89
208.315
209.381
210.407
211.184
211.778
212.27
212.685
212.995
212.951
204.852
203.385
203.63
204.403
205.344
206.304
207.22
208.063
208.825
209.503
210.097
210.608
211.039
211.394
211.68
211.903
212.072
212.194
212.277
212.329
212.361
212.382
212.4
212.421
212.461
212.541
212.624
212.629
212.628
212.689
212.764
212.886
213.025
213.06
213.104
213.21
213.312
213.418
213.529
213.644
213.761
213.877
213.992
214.106
214.221
214.337
214.454
214.571
214.69
214.812
214.937
215.065
215.195
215.328
215.461
215.596
215.731
215.867
216.003
216.14
216.278
216.413
216.548
216.688
216.844
217.037
217.286
217.603
217.979
218.467
220.838
222.592
223.81
224.663
225.259
225.66
225.955
226.37
227.262
229.127
205.245
207.627
208.676
209.685
210.446
211.028
211.509
211.915
212.216
212.171
204.327
202.912
203.151
203.902
204.817
205.751
206.642
207.464
208.206
208.868
209.448
209.946
210.366
210.712
210.99
211.208
211.375
211.497
211.579
211.627
211.65
211.661
211.669
211.682
211.718
211.802
211.893
211.887
211.87
211.926
211.995
212.118
212.266
212.286
212.311
212.413
212.51
212.615
212.725
212.836
212.946
213.051
213.153
213.254
213.356
213.459
213.561
213.663
213.764
213.866
213.969
214.071
214.172
214.274
214.374
214.473
214.57
214.667
214.762
214.855
214.945
215.031
215.114
215.2
215.3
215.433
215.619
215.868
216.167
216.529
218.772
220.385
221.488
222.255
222.786
223.138
223.397
223.779
224.614
226.299
204.61
206.95
207.982
208.974
209.721
210.29
210.76
211.156
211.45
211.405
203.745
202.368
202.601
203.335
204.23
205.144
206.016
206.819
207.546
208.194
208.762
209.25
209.661
209.998
210.269
210.483
210.649
210.775
210.861
210.911
210.931
210.933
210.931
210.936
210.967
211.056
211.158
211.145
211.113
211.168
211.234
211.362
211.526
211.538
211.55
211.654
211.757
211.869
211.987
212.103
212.209
212.308
212.404
212.502
212.602
212.702
212.801
212.898
212.995
213.09
213.186
213.281
213.375
213.468
213.56
213.648
213.735
213.819
213.9
213.98
214.055
214.122
214.183
214.244
214.317
214.422
214.578
214.793
215.051
215.347
217.5
219.032
220.072
220.793
221.291
221.618
221.857
222.216
223.017
224.617
203.986
206.284
207.3
208.274
209.006
209.563
210.022
210.409
210.695
210.648
203.125
201.772
202.001
202.722
203.602
204.5
205.356
206.146
206.86
207.496
208.054
208.534
208.936
209.265
209.529
209.737
209.902
210.031
210.126
210.184
210.206
210.201
210.189
210.184
210.209
210.3
210.409
210.389
210.339
210.392
210.459
210.597
210.786
210.798
210.806
210.919
211.036
211.166
211.298
211.42
211.526
211.622
211.718
211.82
211.927
212.035
212.14
212.244
212.345
212.447
212.548
212.648
212.749
212.848
212.946
213.042
213.136
213.228
213.318
213.405
213.489
213.566
213.639
213.713
213.801
213.923
214.098
214.336
214.628
214.976
217.092
218.609
219.653
220.39
220.908
221.248
221.485
221.827
222.594
224.173
203.371
205.629
206.628
207.586
208.303
208.847
209.296
209.673
209.952
209.904
202.501
201.169
201.394
202.104
202.969
203.853
204.695
205.471
206.171
206.796
207.343
207.814
208.208
208.528
208.782
208.982
209.142
209.272
209.375
209.445
209.474
209.467
209.444
209.426
209.439
209.522
209.63
209.597
209.519
209.568
209.636
209.785
210.006
210.026
210.04
210.17
210.309
210.462
210.609
210.733
210.836
210.93
211.03
211.14
211.257
211.375
211.49
211.603
211.715
211.827
211.94
212.054
212.168
212.282
212.396
212.51
212.623
212.735
212.847
212.957
213.066
213.172
213.276
213.384
213.509
213.671
213.89
214.178
214.527
214.964
217.107
218.661
219.74
220.504
221.044
221.407
221.667
222.029
222.822
224.499
202.767
204.984
205.968
206.908
207.611
208.143
208.581
208.949
209.222
209.176
201.921
200.619
200.844
201.543
202.394
203.262
204.088
204.847
205.532
206.139
206.669
207.121
207.495
207.794
208.025
208.199
208.336
208.45
208.546
208.617
208.648
208.636
208.595
208.551
208.536
208.592
208.681
208.628
208.522
208.559
208.626
208.784
209.036
209.081
209.121
209.287
209.465
209.651
209.815
209.943
210.041
210.134
210.236
210.351
210.472
210.592
210.708
210.823
210.938
211.055
211.174
211.295
211.417
211.54
211.664
211.788
211.91
212.031
212.15
212.267
212.379
212.487
212.589
212.693
212.81
212.959
213.161
213.428
213.753
214.174
216.339
217.937
219.06
219.859
220.421
220.794
221.052
221.399
222.169
223.816
202.173
204.35
205.318
206.242
206.931
207.451
207.878
208.238
208.508
208.479
201.053
199.729
199.955
200.658
201.506
202.359
203.156
203.869
204.49
205.019
205.46
205.819
206.099
206.308
206.453
206.55
206.618
206.678
206.737
206.789
206.812
206.791
206.733
206.662
206.609
206.629
206.694
206.635
206.53
206.555
206.619
206.771
207.03
207.116
207.213
207.453
207.715
207.98
208.213
208.401
208.559
208.713
208.874
209.036
209.187
209.319
209.433
209.532
209.619
209.699
209.772
209.841
209.907
209.972
210.036
210.1
210.162
210.223
210.282
210.338
210.389
210.434
210.473
210.513
210.564
210.646
210.778
210.971
211.217
211.544
214.027
215.879
217.187
218.11
218.751
219.166
219.439
219.777
220.499
221.978
201.589
203.725
204.679
205.586
206.261
206.769
207.185
207.538
207.815
207.933
205.373
204.974
205.204
205.637
206.13
206.618
207.069
207.473
207.829
208.143
208.421
208.665
208.874
209.048
209.183
209.287
209.377
209.473
209.589
209.719
209.833
209.898
209.904
209.87
209.842
209.902
210.043
210.069
210.066
210.122
210.176
210.262
210.412
210.416
210.425
210.615
210.819
211.003
211.13
211.206
211.267
211.347
211.451
211.566
211.673
211.765
211.842
211.91
211.97
212.025
212.076
212.125
212.172
212.218
212.263
212.307
212.349
212.389
212.427
212.463
212.496
212.526
212.553
212.583
212.631
212.717
212.863
213.081
213.364
213.707
214.873
215.805
216.506
217.032
217.411
217.652
217.806
218.048
218.647
219.884
201.012
203.109
204.047
204.938
205.599
206.095
206.502
206.847
207.127
207.331
207.161
207.288
207.538
207.842
208.158
208.46
208.733
208.976
209.195
209.398
209.592
209.78
209.96
210.123
210.263
210.378
210.48
210.591
210.731
210.902
211.075
211.202
211.26
211.255
211.249
211.358
211.603
211.749
211.917
212.016
212.053
212.037
211.996
211.895
211.802
211.945
212.104
212.217
212.256
212.247
212.243
212.278
212.351
212.436
212.516
212.583
212.642
212.697
212.75
212.8
212.847
212.894
212.938
212.982
213.023
213.062
213.099
213.132
213.164
213.193
213.22
213.244
213.268
213.297
213.347
213.439
213.596
213.832
214.14
214.495
214.984
215.422
215.794
216.103
216.34
216.486
216.576
216.764
217.29
218.396
200.44
202.498
203.422
204.297
204.944
205.428
205.824
206.162
206.439
206.667
207.056
207.326
207.586
207.858
208.128
208.381
208.608
208.809
208.99
209.161
209.331
209.503
209.677
209.843
209.992
210.115
210.22
210.326
210.46
210.634
210.827
210.987
211.077
211.095
211.122
211.311
211.703
211.992
212.361
212.516
212.518
212.373
212.097
211.873
211.655
211.751
211.886
211.965
211.964
211.928
211.92
211.965
212.047
212.136
212.215
212.284
212.348
212.41
212.47
212.529
212.585
212.64
212.693
212.743
212.791
212.837
212.879
212.919
212.955
212.99
213.022
213.052
213.082
213.118
213.175
213.276
213.445
213.693
214.013
214.375
214.696
215.005
215.29
215.542
215.742
215.865
215.939
216.113
216.629
217.776
199.874
201.892
202.801
203.66
204.294
204.766
205.152
205.481
205.752
205.978
206.326
206.591
206.849
207.12
207.39
207.642
207.868
208.068
208.247
208.413
208.578
208.747
208.919
209.09
209.248
209.382
209.491
209.589
209.706
209.863
210.051
210.221
210.325
210.365
210.45
210.766
211.347
211.772
212.355
212.576
212.512
212.204
211.666
211.306
210.929
210.952
211.059
211.115
211.097
211.064
211.077
211.146
211.241
211.334
211.415
211.488
211.559
211.63
211.7
211.769
211.835
211.899
211.962
212.021
212.079
212.134
212.185
212.234
212.28
212.323
212.364
212.402
212.441
212.486
212.553
212.663
212.842
213.1
213.431
213.803
214.139
214.459
214.755
215.016
215.223
215.352
215.428
215.6
216.115
217.31
199.311
201.291
202.185
203.028
203.648
204.109
204.485
204.805
205.068
205.286
205.529
205.763
206.017
206.289
206.562
206.82
207.052
207.257
207.439
207.607
207.769
207.933
208.103
208.275
208.441
208.588
208.71
208.81
208.916
209.054
209.224
209.387
209.49
209.548
209.705
210.17
210.942
211.466
212.168
212.458
212.279
211.745
211.011
210.53
209.983
209.907
209.968
209.997
209.968
209.941
209.967
210.037
210.119
210.189
210.248
210.305
210.364
210.425
210.486
210.547
210.607
210.668
210.729
210.79
210.851
210.912
210.971
211.028
211.083
211.137
211.189
211.238
211.287
211.343
211.421
211.541
211.727
211.989
212.319
212.687
213.043
213.376
213.675
213.932
214.129
214.241
214.293
214.435
214.909
216.023
198.755
200.695
201.575
202.402
203.009
203.459
203.825
204.136
204.391
204.602
204.793
205.007
205.256
205.526
205.798
206.057
206.291
206.499
206.684
206.852
207.012
207.171
207.334
207.503
207.673
207.831
207.969
208.085
208.195
208.324
208.481
208.629
208.722
208.784
208.993
209.573
210.485
211.054
212.263
212.62
212.229
211.311
209.897
209.267
208.533
208.32
208.286
208.241
208.155
208.091
208.076
208.093
208.114
208.132
208.156
208.194
208.246
208.309
208.379
208.455
208.536
208.622
208.712
208.804
208.897
208.989
209.081
209.171
209.256
209.337
209.414
209.486
209.555
209.625
209.71
209.832
210.015
210.272
210.592
210.947
211.3
211.623
211.906
212.142
212.313
212.395
212.415
212.518
212.933
213.886
198.208
200.111
200.976
201.788
202.382
202.82
203.177
203.479
203.727
203.931
204.108
204.315
204.558
204.824
205.093
205.349
205.583
205.792
205.979
206.148
206.306
206.46
206.616
206.776
206.94
207.1
207.246
207.385
207.515
207.656
207.818
207.96
208.046
208.103
208.316
208.933
209.912
210.447
210.877
211.052
210.177
208.617
207.442
206.635
205.718
205.399
205.295
205.214
205.126
205.078
205.086
205.126
205.18
205.25
205.342
205.456
205.586
205.723
205.863
206.006
206.15
206.295
206.44
206.581
206.719
206.852
206.98
207.1
207.213
207.316
207.408
207.489
207.561
207.633
207.717
207.836
208.011
208.253
208.554
208.885
209.214
209.515
209.776
209.991
210.142
210.207
210.212
210.299
210.68
211.504
197.683
199.548
200.4
201.198
201.779
202.206
202.553
202.848
203.088
203.285
203.463
203.667
203.906
204.167
204.432
204.684
204.916
205.125
205.314
205.484
205.642
205.794
205.943
206.091
206.238
206.384
206.519
206.676
206.833
207.003
207.194
207.346
207.448
207.513
207.705
208.29
209.3
209.796
212.362
211.471
209.537
207.248
203.428
202.605
201.824
201.708
201.79
201.903
202.013
202.147
202.306
202.474
202.65
202.841
203.047
203.26
203.47
203.671
203.863
204.046
204.223
204.393
204.555
204.707
204.851
204.985
205.108
205.218
205.316
205.403
205.478
205.543
205.6
205.655
205.724
205.826
205.984
206.21
206.496
206.816
207.139
207.438
207.702
207.925
208.086
208.165
208.185
208.284
208.657
209.408
197.198
199.028
199.868
200.651
201.221
201.638
201.976
202.263
202.497
202.688
202.866
203.068
203.303
203.56
203.821
204.07
204.299
204.509
204.699
204.873
205.033
205.185
205.328
205.461
205.586
205.712
205.829
205.986
206.161
206.357
206.58
206.757
206.907
207.029
207.241
207.786
208.829
209.061
207.799
205.364
203.122
201.167
199.257
198.957
198.636
198.955
199.355
199.748
200.104
200.427
200.719
200.987
201.248
201.508
201.765
202.006
202.222
202.415
202.587
202.741
202.881
203.012
203.132
203.242
203.345
203.438
203.524
203.601
203.671
203.734
203.789
203.838
203.881
203.927
203.989
204.087
204.242
204.468
204.756
205.081
205.41
205.72
206
206.241
206.422
206.522
206.565
206.68
207.054
207.766
196.777
198.578
199.406
200.178
200.738
201.147
201.478
201.758
201.985
202.171
202.347
202.546
202.777
203.031
203.288
203.535
203.762
203.971
204.164
204.341
204.506
204.659
204.798
204.922
205.034
205.159
205.283
205.429
205.601
205.792
206.002
206.201
206.423
206.678
207.005
207.538
208.595
208.435
194.796
192.07
190.331
189.125
197.018
197.303
197.179
197.676
198.153
198.65
199.125
199.544
199.907
200.233
200.542
200.836
201.101
201.325
201.508
201.658
201.782
201.889
201.981
202.063
202.137
202.2
202.258
202.311
202.359
202.405
202.447
202.486
202.522
202.555
202.587
202.624
202.679
202.774
202.929
203.156
203.448
203.779
204.116
204.436
204.728
204.983
205.18
205.296
205.355
205.482
205.857
206.548
196.447
198.225
199.045
199.808
200.36
200.763
201.088
201.364
201.587
201.769
201.943
202.139
202.367
202.619
202.874
203.117
203.343
203.551
203.745
203.925
204.093
204.247
204.387
204.518
204.652
204.822
205.024
205.168
205.322
205.457
205.566
205.758
206.06
206.514
207.063
207.62
208.639
208.07
180.708
178.327
177.348
176.86
196.216
197.032
196.886
197.322
197.65
198.083
198.562
199.01
199.406
199.773
200.124
200.449
200.731
200.961
201.144
201.289
201.404
201.496
201.568
201.623
201.663
201.688
201.704
201.715
201.722
201.729
201.736
201.745
201.754
201.765
201.778
201.8
201.844
201.93
202.079
202.301
202.589
202.918
203.255
203.577
203.873
204.132
204.335
204.458
204.524
204.656
205.03
205.706
196.224
197.986
198.8
199.557
200.105
200.504
200.827
201.101
201.324
201.506
201.68
201.875
202.104
202.355
202.61
202.852
203.076
203.283
203.476
203.658
203.826
203.979
204.129
204.299
204.512
204.784
205.147
205.321
205.452
205.488
205.403
205.543
205.883
206.56
207.371
207.956
208.9
208.045
172.375
170.282
169.832
169.843
196.282
197.433
197.215
197.498
197.57
197.841
198.25
198.68
199.085
199.476
199.864
200.234
200.567
200.852
201.088
201.283
201.459
201.584
201.673
201.729
201.755
201.752
201.73
201.694
201.651
201.606
201.565
201.528
201.497
201.47
201.451
201.445
201.465
201.53
201.661
201.869
202.145
202.464
202.794
203.11
203.402
203.659
203.861
203.983
204.049
204.18
204.551
205.219
196.108
197.86
198.672
199.425
199.97
200.367
200.69
200.964
201.188
201.372
201.548
201.747
201.979
202.235
202.494
202.74
202.967
203.175
203.37
203.552
203.717
203.871
204.051
204.313
204.676
205.086
205.649
205.88
205.978
205.889
205.561
205.592
206.074
206.916
207.92
208.454
209.367
208.62
170.123
168.169
167.994
168.391
200.5
201.143
200.083
199.652
199.022
198.801
198.906
199.156
199.457
199.794
200.165
200.545
200.907
201.234
201.524
201.783
201.89
202.072
202.21
202.308
202.363
202.37
202.334
202.261
202.167
202.062
201.957
201.857
201.764
201.681
201.61
201.556
201.534
201.562
201.661
201.84
202.093
202.392
202.705
203.006
203.285
203.531
203.723
203.838
203.897
204.022
204.389
205.054
196.08
197.829
198.639
199.39
199.933
200.328
200.649
200.922
201.146
201.33
201.508
201.71
201.947
202.208
202.474
202.727
202.962
203.178
203.38
203.563
203.726
203.891
204.136
204.549
205.128
205.684
206.457
206.754
206.788
206.536
205.932
205.805
206.217
207.049
208.025
208.367
209.434
208.914
170.907
169.025
168.98
169.692
205.369
206.032
204.365
203.491
202.306
201.632
201.377
201.333
201.384
201.501
201.671
201.865
202.058
202.24
202.415
202.6
202.609
202.78
202.928
203.05
203.137
203.181
203.182
203.142
203.07
202.971
202.854
202.722
202.581
202.435
202.293
202.165
202.073
202.039
202.084
202.217
202.43
202.695
202.978
203.253
203.508
203.733
203.906
204.004
204.048
204.161
204.522
205.188
196.107
197.859
198.668
199.419
199.96
200.354
200.672
200.942
201.163
201.344
201.519
201.72
201.956
202.218
202.486
202.744
202.985
203.209
203.418
203.605
203.766
203.95
204.285
204.888
205.711
206.389
207.272
207.651
207.572
207.088
206.27
205.93
206.047
206.579
207.208
207.389
209.231
208.902
170.412
168.396
168.426
169.52
207.879
208.717
206.135
205.128
203.906
203.222
202.893
202.758
202.67
202.578
202.506
202.492
202.547
202.672
202.86
203.104
203.17
203.395
203.569
203.693
203.77
203.805
203.805
203.777
203.725
203.652
203.561
203.454
203.333
203.202
203.07
202.947
202.853
202.809
202.838
202.951
203.14
203.376
203.627
203.868
204.088
204.277
204.416
204.482
204.498
204.589
204.937
205.608
196.155
197.91
198.721
199.473
200.015
200.409
200.726
200.995
201.213
201.391
201.562
201.758
201.989
202.247
202.512
202.767
203.008
203.234
203.444
203.627
203.783
203.981
204.394
205.152
206.169
206.927
208.313
208.806
208.56
207.711
206.202
205.59
205.29
205.339
205.425
205.773
208.771
208.432
173.494
171.383
171.419
172.895
210.6
212.723
208.441
206.953
205.316
204.071
203.399
203.558
203.506
203.158
202.717
202.587
202.651
202.808
203.039
203.3
203.338
203.534
203.678
203.782
203.853
203.893
203.911
203.912
203.896
203.865
203.819
203.757
203.681
203.592
203.498
203.409
203.343
203.323
203.373
203.503
203.705
203.954
204.213
204.46
204.682
204.871
205.006
205.066
205.071
205.152
205.494
206.18
196.195
197.954
198.766
199.52
200.064
200.46
200.779
201.049
201.268
201.447
201.617
201.812
202.042
202.297
202.559
202.811
203.049
203.274
203.482
203.662
203.814
204.015
204.455
205.271
206.368
207.139
207.837
208.315
207.771
206.375
205.121
204.268
203.674
203.464
203.214
202.744
207.343
207.331
205.356
204.158
203.69
203.702
203.637
203.443
203.215
203.111
203.103
203.163
203.308
203.476
203.403
203.519
203.602
203.67
203.729
203.765
203.792
203.812
203.826
203.833
203.828
203.81
203.777
203.731
203.676
203.622
203.585
203.589
203.658
203.803
204.018
204.276
204.542
204.792
205.016
205.205
205.34
205.398
205.401
205.481
205.825
206.517
196.214
197.975
198.787
199.542
200.087
200.484
200.806
201.078
201.299
201.48
201.653
201.85
202.081
202.338
202.601
202.855
203.094
203.319
203.53
203.717
203.876
204.076
204.486
205.248
206.323
207.126
210.415
210.403
209.109
207.013
202.843
201.965
201.595
201.803
202.222
201.708
206.26
207.584
205.798
204.716
204.19
204.003
203.864
203.678
203.451
203.282
203.181
203.156
203.222
203.312
203.158
203.22
203.267
203.319
203.386
203.425
203.464
203.497
203.53
203.56
203.585
203.6
203.603
203.593
203.574
203.554
203.548
203.58
203.672
203.837
204.069
204.339
204.615
204.872
205.1
205.291
205.425
205.481
205.482
205.558
205.9
206.562
196.211
197.97
198.782
199.537
200.082
200.479
200.801
201.073
201.295
201.477
201.652
201.85
202.084
202.342
202.607
202.863
203.104
203.332
203.548
203.747
203.924
204.122
204.462
205.087
206.036
206.648
207.13
205.746
204.019
202.157
199.727
199.454
199.776
200.731
202.04
202.013
205.941
207.678
206.037
204.985
204.369
203.993
203.706
203.449
203.222
203.061
202.965
202.95
202.989
203.041
202.859
202.901
202.941
202.995
203.075
203.125
203.176
203.216
203.254
203.29
203.323
203.35
203.367
203.375
203.374
203.373
203.387
203.438
203.549
203.733
203.982
204.27
204.561
204.832
205.071
205.27
205.41
205.469
205.471
205.546
205.88
206.503
196.193
197.951
198.762
199.516
200.06
200.456
200.776
201.048
201.269
201.451
201.626
201.824
202.058
202.318
202.584
202.841
203.083
203.312
203.532
203.743
203.941
204.14
204.399
204.834
205.537
205.716
194.122
192.177
190.76
189.611
197.523
197.994
198.786
200.188
202.07
202.597
205.958
207.643
206.048
204.979
204.284
203.819
203.465
203.202
203.011
202.9
202.87
202.894
202.933
202.992
202.836
202.878
202.918
202.963
203.025
203.077
203.13
203.167
203.196
203.22
203.24
203.255
203.264
203.266
203.262
203.261
203.277
203.332
203.449
203.641
203.899
204.197
204.498
204.779
205.027
205.235
205.383
205.448
205.457
205.535
205.865
206.46
196.172
197.929
198.739
199.492
200.034
200.429
200.748
201.019
201.239
201.42
201.593
201.791
202.024
202.283
202.549
202.806
203.049
203.278
203.499
203.717
203.931
204.138
204.346
204.604
204.966
204.486
178.673
176.686
175.918
175.585
196.013
197.238
198.212
199.673
201.715
202.612
206.008
207.61
206.026
205.005
204.339
203.869
203.505
203.264
203.106
203.05
203.077
203.133
203.207
203.328
203.275
203.337
203.377
203.383
203.356
203.383
203.415
203.44
203.452
203.452
203.445
203.431
203.412
203.385
203.356
203.331
203.327
203.367
203.474
203.661
203.917
204.215
204.52
204.806
205.061
205.276
205.431
205.503
205.517
205.599
205.927
206.513
196.156
197.912
198.722
199.475
200.017
200.412
200.731
201
201.22
201.399
201.571
201.767
201.999
202.257
202.522
202.777
203.018
203.245
203.464
203.681
203.899
204.115
204.314
204.479
204.532
203.341
168.228
166.259
166.029
166.414
195.199
197
197.939
199.126
200.914
201.852
206.136
207.771
206.175
205.346
204.752
204.29
203.911
203.664
203.537