/*--------------------------------*- C++ -*----------------------------------*\
| =========                 |                                                 |
| \\      /  F ield         | OpenFOAM: The Open Source CFD Toolbox           |
|  \\    /   O peration     | Version:  v2012                                 |
|   \\  /    A nd           | Website:  www.openfoam.com                      |
|    \\/     M anipulation  |                                                 |
\*---------------------------------------------------------------------------*/
FoamFile
{
    version     2.0;
    format      ascii;
    class       volScalarField;
    location    "250/air";
    object      ILambda_8_0;
}
// * * * * * * * * * * * * * * * * * * * * * * * * * * * * * * * * * * * * * //

dimensions      [1 0 -3 0 0 0 0];


internalField   nonuniform List<scalar> 
287104
(
213.509
215.348
216.912
218.182
219.171
219.956
220.621
221.208
221.723
222.177
222.598
223.014
223.439
223.866
224.28
224.668
225.026
225.356
225.662
225.949
226.222
226.481
226.729
226.964
227.19
227.405
227.612
227.811
228.001
228.185
228.362
228.534
228.701
228.864
229.023
229.177
229.327
229.474
229.618
229.758
229.896
230.031
230.165
230.298
230.429
230.557
230.684
230.81
230.934
231.056
231.179
231.303
231.429
231.56
231.696
231.835
231.977
232.118
232.256
232.39
232.517
232.637
232.75
232.857
232.958
233.056
233.152
233.248
233.345
233.443
233.542
233.641
233.743
233.854
233.988
234.168
234.418
234.747
235.142
235.569
235.986
236.369
236.718
237.038
237.316
237.529
237.692
237.993
239.361
237.927
216.154
218.013
219.59
220.86
221.838
222.603
223.245
223.808
224.295
224.72
225.112
225.503
225.906
226.315
226.712
227.083
227.423
227.734
228.02
228.289
228.542
228.782
229.009
229.226
229.431
229.627
229.814
229.992
230.163
230.327
230.485
230.639
230.787
230.93
231.068
231.201
231.332
231.46
231.585
231.706
231.825
231.94
232.055
232.17
232.282
232.392
232.502
232.609
232.716
232.821
232.926
233.031
233.138
233.248
233.363
233.483
233.606
233.731
233.855
233.975
234.089
234.196
234.296
234.39
234.477
234.56
234.641
234.721
234.803
234.885
234.968
235.051
235.137
235.232
235.354
235.525
235.769
236.099
236.501
236.937
237.364
237.757
238.112
238.435
238.711
238.915
239.066
239.365
240.857
239.526
214.588
216.394
217.926
219.159
220.106
220.846
221.468
222.011
222.483
222.894
223.274
223.653
224.043
224.439
224.823
225.182
225.511
225.811
226.088
226.347
226.591
226.822
227.042
227.25
227.448
227.636
227.815
227.986
228.15
228.307
228.46
228.607
228.749
228.886
229.017
229.143
229.267
229.389
229.509
229.624
229.736
229.845
229.953
230.062
230.169
230.273
230.377
230.479
230.58
230.679
230.778
230.876
230.976
231.078
231.183
231.293
231.407
231.523
231.638
231.75
231.856
231.956
232.049
232.136
232.216
232.293
232.367
232.441
232.516
232.592
232.668
232.745
232.824
232.912
233.025
233.187
233.42
233.737
234.124
234.544
234.955
235.332
235.673
235.982
236.245
236.437
236.578
236.868
238.32
237.077
213.768
215.544
217.052
218.263
219.192
219.917
220.524
221.056
221.517
221.919
222.29
222.66
223.043
223.431
223.808
224.161
224.484
224.779
225.05
225.304
225.543
225.77
225.985
226.189
226.383
226.567
226.742
226.908
227.068
227.222
227.371
227.515
227.654
227.788
227.915
228.037
228.156
228.276
228.392
228.504
228.612
228.718
228.822
228.928
229.032
229.133
229.233
229.332
229.43
229.527
229.622
229.717
229.813
229.909
230.009
230.113
230.22
230.33
230.44
230.548
230.652
230.749
230.839
230.923
231
231.074
231.146
231.217
231.289
231.362
231.436
231.51
231.585
231.671
231.781
231.939
232.169
232.482
232.865
233.281
233.689
234.063
234.401
234.706
234.966
235.156
235.295
235.584
237.016
235.787
213.005
214.752
216.235
217.426
218.338
219.047
219.642
220.162
220.613
221.005
221.367
221.73
222.105
222.487
222.858
223.205
223.522
223.812
224.079
224.328
224.563
224.786
224.997
225.197
225.387
225.567
225.739
225.902
226.057
226.208
226.354
226.495
226.631
226.762
226.887
227.006
227.121
227.237
227.351
227.459
227.565
227.667
227.768
227.871
227.972
228.07
228.166
228.263
228.358
228.452
228.545
228.637
228.729
228.821
228.916
229.014
229.116
229.22
229.326
229.43
229.53
229.624
229.712
229.793
229.868
229.939
230.008
230.077
230.147
230.218
230.29
230.362
230.436
230.519
230.628
230.784
231.012
231.322
231.703
232.117
232.523
232.896
233.233
233.538
233.797
233.985
234.124
234.411
235.82
234.608
212.247
213.965
215.425
216.596
217.491
218.186
218.768
219.277
219.717
220.1
220.454
220.809
221.177
221.552
221.917
222.259
222.571
222.855
223.118
223.363
223.594
223.813
224.02
224.217
224.404
224.581
224.749
224.908
225.061
225.207
225.35
225.488
225.622
225.751
225.874
225.99
226.102
226.214
226.323
226.428
226.531
226.631
226.729
226.828
226.925
227.019
227.112
227.204
227.296
227.387
227.477
227.565
227.653
227.741
227.83
227.923
228.018
228.116
228.216
228.315
228.41
228.5
228.584
228.662
228.734
228.802
228.868
228.934
229.001
229.069
229.138
229.207
229.278
229.358
229.462
229.614
229.837
230.143
230.518
230.928
231.329
231.698
232.031
232.33
232.581
232.763
232.895
233.17
234.539
233.309
211.501
213.191
214.628
215.779
216.657
217.338
217.908
218.407
218.837
219.211
219.556
219.903
220.264
220.632
220.992
221.328
221.635
221.915
222.174
222.415
222.643
222.858
223.062
223.256
223.439
223.613
223.778
223.934
224.083
224.226
224.364
224.499
224.63
224.756
224.878
224.993
225.102
225.206
225.309
225.409
225.508
225.606
225.7
225.791
225.881
225.969
226.057
226.143
226.229
226.313
226.397
226.479
226.56
226.64
226.721
226.804
226.889
226.977
227.067
227.157
227.245
227.328
227.407
227.479
227.547
227.61
227.671
227.731
227.791
227.85
227.909
227.968
228.027
228.094
228.186
228.325
228.535
228.827
229.188
229.583
229.97
230.324
230.64
230.919
231.149
231.307
231.417
231.662
232.961
231.623
210.768
212.428
213.843
214.975
215.837
216.504
217.062
217.55
217.97
218.333
218.665
219
219.353
219.714
220.068
220.4
220.704
220.981
221.237
221.476
221.701
221.915
222.117
222.308
222.49
222.661
222.823
222.976
223.121
223.259
223.393
223.523
223.65
223.773
223.892
224.006
224.109
224.202
224.292
224.383
224.473
224.565
224.651
224.726
224.802
224.879
224.954
225.028
225.101
225.173
225.243
225.311
225.378
225.444
225.509
225.575
225.642
225.711
225.782
225.853
225.922
225.987
226.046
226.099
226.146
226.188
226.228
226.267
226.306
226.344
226.383
226.42
226.459
226.505
226.575
226.692
226.878
227.146
227.481
227.851
228.214
228.543
228.835
229.09
229.296
229.433
229.525
229.754
231.001
229.448
210.045
211.677
213.07
214.183
215.029
215.683
216.229
216.706
217.115
217.458
217.751
218.058
218.393
218.744
219.093
219.424
219.73
220.011
220.273
220.519
220.751
220.972
221.181
221.377
221.563
221.736
221.897
222.048
222.187
222.318
222.443
222.564
222.681
222.795
222.907
223.017
223.112
223.185
223.255
223.332
223.409
223.492
223.569
223.622
223.677
223.739
223.797
223.854
223.91
223.964
224.016
224.068
224.118
224.167
224.215
224.262
224.311
224.361
224.412
224.465
224.516
224.564
224.606
224.643
224.674
224.701
224.725
224.748
224.771
224.794
224.816
224.838
224.861
224.891
224.945
225.046
225.216
225.467
225.787
226.144
226.501
226.826
227.111
227.357
227.55
227.673
227.754
227.973
229.178
227.369
209.334
210.938
212.309
213.403
214.233
214.874
215.409
215.873
216.263
216.537
216.464
216.498
216.676
216.96
217.307
217.679
218.053
218.417
218.767
219.102
219.42
219.719
219.997
220.255
220.493
220.708
220.904
221.08
221.239
221.385
221.521
221.652
221.781
221.909
222.035
222.16
222.265
222.333
222.396
222.474
222.554
222.646
222.73
222.773
222.82
222.881
222.936
222.988
223.037
223.085
223.131
223.176
223.219
223.259
223.297
223.334
223.37
223.406
223.444
223.482
223.519
223.554
223.583
223.606
223.624
223.637
223.647
223.655
223.663
223.672
223.679
223.686
223.692
223.707
223.745
223.829
223.982
224.215
224.519
224.874
225.299
225.687
226.017
226.292
226.501
226.631
226.717
226.95
228.17
226.395
208.634
210.211
211.56
212.635
213.45
214.078
214.601
215.057
215.457
215.205
207.405
206.23
206.524
207.306
208.237
209.179
210.07
210.888
211.624
212.278
212.851
213.346
213.767
214.119
214.406
214.638
214.821
214.964
215.077
215.167
215.242
215.31
215.373
215.438
215.51
215.592
215.662
215.691
215.717
215.77
215.828
215.906
215.982
216.009
216.043
216.102
216.155
216.206
216.254
216.3
216.344
216.385
216.422
216.455
216.483
216.506
216.526
216.543
216.557
216.569
216.577
216.581
216.58
216.574
216.563
216.546
216.525
216.501
216.474
216.444
216.41
216.371
216.329
216.291
216.268
216.281
216.348
216.469
216.603
216.89
219.857
222.04
223.592
224.679
225.422
225.898
226.207
226.599
227.979
226.538
207.946
209.494
210.822
211.879
212.679
213.293
213.805
214.249
214.633
214.307
206.104
204.845
205.137
205.944
206.912
207.893
208.824
209.68
210.453
211.14
211.742
212.261
212.701
213.066
213.362
213.597
213.778
213.913
214.013
214.087
214.145
214.194
214.24
214.29
214.355
214.447
214.534
214.57
214.611
214.695
214.793
214.927
215.066
215.138
215.225
215.352
215.476
215.602
215.732
215.865
216
216.136
216.272
216.406
216.538
216.667
216.795
216.921
217.045
217.166
217.285
217.398
217.506
217.605
217.695
217.776
217.847
217.91
217.963
218.005
218.036
218.055
218.062
218.064
218.074
218.113
218.2
218.343
218.516
218.867
221.437
223.332
224.686
225.645
226.309
226.734
227.01
227.406
228.889
227.852
207.268
208.789
210.096
211.135
211.919
212.521
213.022
213.456
213.828
213.499
205.474
204.232
204.511
205.299
206.246
207.209
208.124
208.967
209.728
210.405
210.998
211.509
211.94
212.296
212.582
212.806
212.976
213.098
213.181
213.235
213.27
213.297
213.321
213.351
213.399
213.484
213.564
213.576
213.588
213.655
213.736
213.86
213.994
214.038
214.096
214.207
214.314
214.426
214.541
214.663
214.789
214.917
215.047
215.177
215.309
215.444
215.582
215.725
215.871
216.023
216.18
216.342
216.508
216.676
216.848
217.022
217.199
217.379
217.563
217.748
217.932
218.114
218.294
218.476
218.674
218.907
219.193
219.54
219.93
220.496
222.882
224.612
225.84
226.716
227.336
227.749
228.04
228.478
230.055
229.398
206.601
208.095
209.381
210.403
211.172
211.761
212.251
212.675
213.037
212.709
204.821
203.597
203.869
204.642
205.572
206.518
207.419
208.248
208.997
209.664
210.247
210.75
211.172
211.521
211.801
212.02
212.187
212.306
212.385
212.431
212.455
212.469
212.482
212.501
212.544
212.631
212.717
212.716
212.71
212.768
212.84
212.963
213.1
213.124
213.16
213.262
213.358
213.459
213.565
213.674
213.783
213.889
213.993
214.095
214.197
214.299
214.401
214.502
214.603
214.706
214.811
214.918
215.027
215.137
215.247
215.358
215.469
215.582
215.696
215.812
215.929
216.047
216.166
216.293
216.44
216.627
216.874
217.189
217.556
218.105
220.438
222.091
223.216
223.992
224.535
224.909
225.2
225.66
227.185
226.384
205.945
207.411
208.677
209.681
210.435
211.012
211.491
211.905
212.259
211.934
204.179
202.974
203.24
203.999
204.913
205.843
206.728
207.543
208.28
208.936
209.51
210.004
210.419
210.76
211.034
211.25
211.416
211.537
211.618
211.662
211.679
211.682
211.684
211.695
211.735
211.828
211.924
211.915
211.896
211.952
212.021
212.148
212.297
212.31
212.332
212.434
212.533
212.639
212.751
212.863
212.97
213.071
213.169
213.266
213.364
213.462
213.559
213.654
213.748
213.842
213.934
214.024
214.111
214.196
214.279
214.359
214.436
214.511
214.585
214.655
214.721
214.782
214.839
214.897
214.97
215.076
215.235
215.451
215.7
216.063
218.3
219.84
220.885
221.608
222.11
222.443
222.692
223.099
224.54
223.611
205.299
206.738
207.984
208.97
209.709
210.274
210.742
211.147
211.492
211.17
203.546
202.361
202.622
203.368
204.266
205.181
206.051
206.852
207.576
208.221
208.786
209.271
209.678
210.012
210.279
210.49
210.655
210.781
210.868
210.916
210.931
210.925
210.916
210.917
210.951
211.049
211.155
211.14
211.106
211.162
211.231
211.366
211.534
211.541
211.555
211.664
211.772
211.892
212.016
212.135
212.242
212.341
212.437
212.537
212.639
212.742
212.843
212.942
213.039
213.135
213.231
213.326
213.42
213.513
213.603
213.69
213.775
213.857
213.937
214.017
214.092
214.158
214.218
214.277
214.35
214.456
214.614
214.828
215.073
215.421
217.58
219.065
220.072
220.77
221.253
221.573
221.808
222.195
223.596
222.69
204.663
206.075
207.301
208.27
208.995
209.546
210.004
210.399
210.736
210.418
202.923
201.757
202.014
202.747
203.631
204.53
205.386
206.173
206.885
207.519
208.074
208.551
208.95
209.276
209.534
209.739
209.901
210.03
210.126
210.185
210.204
210.193
210.173
210.163
210.188
210.285
210.397
210.372
210.318
210.373
210.444
210.591
210.788
210.798
210.811
210.933
211.059
211.199
211.338
211.463
211.57
211.667
211.766
211.873
211.985
212.098
212.209
212.317
212.424
212.53
212.636
212.741
212.846
212.95
213.053
213.153
213.251
213.349
213.445
213.539
213.631
213.72
213.805
213.893
213.998
214.14
214.338
214.601
214.911
215.361
217.505
219.002
220.038
220.774
221.296
221.639
221.874
222.245
223.604
222.774
204.037
205.422
206.629
207.581
208.291
208.83
209.277
209.663
209.993
209.679
202.314
201.17
201.423
202.145
203.015
203.898
204.738
205.51
206.207
206.827
207.371
207.837
208.227
208.541
208.789
208.981
209.135
209.262
209.365
209.434
209.462
209.45
209.419
209.392
209.401
209.484
209.588
209.547
209.465
209.514
209.584
209.743
209.972
209.995
210.019
210.162
210.314
210.478
210.631
210.757
210.858
210.953
211.056
211.172
211.294
211.416
211.535
211.653
211.77
211.887
212.006
212.125
212.244
212.364
212.484
212.603
212.722
212.841
212.96
213.08
213.199
213.316
213.433
213.555
213.697
213.878
214.119
214.429
214.791
215.322
217.511
219.059
220.138
220.903
221.445
221.813
222.083
222.493
223.908
223.224
203.422
204.781
205.969
206.904
207.6
208.127
208.563
208.94
209.263
208.959
201.728
200.611
200.865
201.577
202.432
203.299
204.12
204.871
205.545
206.139
206.654
207.091
207.448
207.729
207.94
208.095
208.213
208.313
208.399
208.464
208.49
208.47
208.419
208.361
208.333
208.381
208.459
208.398
208.291
208.327
208.396
208.561
208.818
208.871
208.932
209.122
209.324
209.529
209.706
209.84
209.945
210.044
210.156
210.278
210.403
210.523
210.639
210.751
210.863
210.976
211.09
211.206
211.322
211.44
211.557
211.673
211.788
211.901
212.012
212.119
212.222
212.319
212.41
212.501
212.605
212.74
212.927
213.175
213.465
213.917
216.145
217.752
218.884
219.688
220.254
220.629
220.887
221.264
222.62
221.82
202.818
204.15
205.319
206.238
206.92
207.434
207.86
208.229
208.553
208.291
201.284
200.222
200.477
201.169
201.987
202.802
203.553
204.216
204.784
205.26
205.65
205.96
206.195
206.364
206.475
206.542
206.587
206.629
206.679
206.728
206.753
206.734
206.675
206.597
206.538
206.556
206.621
206.568
206.482
206.511
206.574
206.72
206.962
207.049
207.161
207.426
207.711
207.994
208.239
208.437
208.609
208.78
208.959
209.133
209.289
209.42
209.527
209.615
209.687
209.747
209.797
209.841
209.88
209.917
209.951
209.984
210.016
210.046
210.074
210.099
210.119
210.134
210.144
210.154
210.177
210.232
210.338
210.504
210.707
211.065
213.571
215.388
216.671
217.575
218.199
218.602
218.867
219.225
220.501
219.501
202.223
203.529
204.679
205.581
206.249
206.752
207.167
207.526
207.825
208.008
207.706
207.784
208.029
208.345
208.679
209.001
209.295
209.56
209.8
210.025
210.24
210.447
210.64
210.812
210.955
211.072
211.178
211.296
211.443
211.611
211.767
211.871
211.907
211.892
211.883
211.976
212.162
212.238
212.299
212.376
212.425
212.477
212.558
212.507
212.469
212.626
212.79
212.919
212.981
212.993
213.001
213.039
213.11
213.196
213.278
213.348
213.409
213.465
213.516
213.565
213.612
213.657
213.701
213.743
213.784
213.822
213.858
213.892
213.924
213.956
213.985
214.013
214.041
214.074
214.129
214.226
214.39
214.631
214.939
215.299
215.812
216.258
216.629
216.932
217.164
217.311
217.404
217.634
218.753
217.521
201.634
202.915
204.046
204.932
205.586
206.077
206.482
206.834
207.131
207.378
207.634
207.874
208.143
208.432
208.72
208.989
209.229
209.44
209.632
209.814
209.997
210.182
210.366
210.536
210.682
210.801
210.903
211.013
211.154
211.332
211.518
211.661
211.73
211.731
211.736
211.877
212.17
212.372
212.618
212.74
212.769
212.707
212.58
212.432
212.301
212.431
212.574
212.662
212.672
212.64
212.623
212.654
212.722
212.803
212.877
212.941
212.998
213.053
213.107
213.16
213.21
213.259
213.305
213.348
213.388
213.425
213.458
213.488
213.516
213.543
213.569
213.593
213.617
213.648
213.702
213.8
213.965
214.21
214.525
214.877
215.219
215.535
215.818
216.064
216.259
216.38
216.455
216.661
217.731
216.489
201.05
202.305
203.419
204.288
204.929
205.408
205.803
206.146
206.438
206.685
206.918
207.162
207.432
207.718
208.003
208.268
208.504
208.711
208.895
209.068
209.242
209.422
209.605
209.78
209.935
210.06
210.16
210.257
210.381
210.548
210.739
210.903
210.995
211.017
211.063
211.301
211.755
212.099
212.54
212.718
212.703
212.5
212.137
211.863
211.6
211.684
211.813
211.884
211.878
211.848
211.855
211.916
212.011
212.107
212.192
212.266
212.336
212.405
212.472
212.536
212.598
212.658
212.714
212.768
212.818
212.865
212.908
212.947
212.985
213.02
213.054
213.087
213.12
213.159
213.222
213.329
213.505
213.76
214.082
214.438
214.789
215.109
215.394
215.642
215.839
215.962
216.037
216.242
217.305
216.27
200.471
201.7
202.796
203.649
204.276
204.743
205.128
205.463
205.747
205.989
206.216
206.457
206.723
207.005
207.286
207.549
207.784
207.988
208.169
208.336
208.503
208.675
208.854
209.033
209.197
209.334
209.442
209.533
209.641
209.789
209.97
210.137
210.239
210.285
210.403
210.786
211.436
211.904
212.544
212.778
212.674
212.286
211.668
211.262
210.836
210.839
210.934
210.981
210.962
210.939
210.967
211.048
211.148
211.241
211.321
211.394
211.468
211.542
211.615
211.686
211.755
211.822
211.886
211.948
212.007
212.062
212.115
212.164
212.21
212.255
212.297
212.339
212.38
212.43
212.501
212.618
212.802
213.066
213.398
213.766
214.13
214.464
214.762
215.023
215.229
215.359
215.436
215.636
216.681
215.736
199.897
201.1
202.178
203.016
203.629
204.085
204.46
204.785
205.062
205.298
205.519
205.755
206.016
206.293
206.57
206.831
207.065
207.27
207.449
207.614
207.773
207.938
208.11
208.288
208.46
208.613
208.737
208.837
208.939
209.071
209.235
209.392
209.49
209.552
209.744
210.276
211.101
211.645
212.403
212.689
212.421
211.759
210.931
210.419
209.836
209.742
209.783
209.794
209.756
209.73
209.756
209.82
209.887
209.942
209.988
210.035
210.088
210.143
210.2
210.257
210.315
210.375
210.437
210.499
210.562
210.624
210.685
210.745
210.804
210.862
210.918
210.972
211.025
211.085
211.169
211.298
211.491
211.757
212.086
212.445
212.796
213.116
213.398
213.639
213.821
213.922
213.965
214.125
215.103
214.047
199.33
200.507
201.567
202.39
202.989
203.434
203.799
204.116
204.385
204.614
204.83
205.06
205.316
205.589
205.862
206.12
206.353
206.559
206.741
206.904
207.06
207.217
207.381
207.552
207.726
207.89
208.032
208.153
208.265
208.396
208.552
208.695
208.781
208.843
209.07
209.689
210.611
211.194
212.484
212.769
212.205
211.056
209.455
208.801
208.044
207.821
207.756
207.676
207.565
207.487
207.457
207.454
207.454
207.457
207.475
207.514
207.573
207.645
207.726
207.814
207.91
208.013
208.12
208.229
208.339
208.448
208.555
208.659
208.757
208.85
208.938
209.021
209.1
209.178
209.27
209.397
209.585
209.845
210.165
210.511
210.846
211.146
211.405
211.619
211.772
211.841
211.852
211.975
212.878
211.677
198.776
199.928
200.971
201.778
202.365
202.799
203.154
203.463
203.724
203.947
204.157
204.382
204.632
204.901
205.17
205.424
205.657
205.865
206.049
206.214
206.368
206.52
206.675
206.836
207
207.16
207.306
207.452
207.59
207.741
207.911
208.052
208.139
208.194
208.405
209.021
209.974
210.459
210.698
210.592
209.368
207.537
206.314
205.479
204.592
204.321
204.233
204.164
204.101
204.084
204.123
204.193
204.281
204.391
204.528
204.686
204.857
205.03
205.203
205.376
205.547
205.717
205.884
206.044
206.198
206.344
206.483
206.612
206.732
206.842
206.938
207.021
207.095
207.168
207.256
207.379
207.559
207.804
208.102
208.424
208.734
209.012
209.251
209.448
209.586
209.643
209.645
209.758
210.624
209.358
198.25
199.378
200.405
201.197
201.771
202.194
202.541
202.841
203.096
203.312
203.516
203.736
203.983
204.247
204.512
204.763
204.995
205.204
205.391
205.559
205.715
205.865
206.013
206.158
206.301
206.443
206.573
206.733
206.898
207.082
207.287
207.447
207.561
207.636
207.823
208.387
209.339
209.888
212.86
211.217
208.883
206.356
201.756
201.102
200.506
200.583
200.797
201.023
201.241
201.468
201.702
201.932
202.166
202.409
202.661
202.908
203.143
203.36
203.562
203.752
203.931
204.101
204.26
204.409
204.548
204.676
204.79
204.891
204.979
205.056
205.123
205.18
205.23
205.28
205.345
205.447
205.605
205.832
206.117
206.433
206.746
207.033
207.287
207.502
207.66
207.739
207.765
207.895
208.746
207.473
197.773
198.879
199.891
200.67
201.234
201.647
201.985
202.278
202.526
202.736
202.935
203.15
203.393
203.653
203.915
204.164
204.394
204.603
204.794
204.967
205.127
205.277
205.419
205.548
205.669
205.792
205.907
206.062
206.24
206.442
206.671
206.86
207.035
207.195
207.43
207.97
208.992
208.915
204.395
201.412
199.269
197.724
198.036
198.051
197.974
198.498
199.018
199.512
199.953
200.341
200.677
200.979
201.266
201.545
201.81
202.048
202.252
202.431
202.586
202.72
202.838
202.946
203.044
203.132
203.214
203.288
203.356
203.419
203.476
203.528
203.574
203.616
203.654
203.697
203.758
203.859
204.019
204.248
204.538
204.861
205.183
205.484
205.755
205.988
206.166
206.266
206.311
206.456
207.296
206.037
197.374
198.461
199.461
200.229
200.783
201.189
201.52
201.807
202.049
202.254
202.449
202.66
202.899
203.156
203.415
203.662
203.89
204.1
204.293
204.471
204.636
204.787
204.925
205.048
205.164
205.301
205.442
205.586
205.752
205.93
206.118
206.324
206.581
206.907
207.301
207.855
208.961
207.868
188.26
186.006
184.526
184.206
197.042
197.327
197.285
197.808
198.255
198.75
199.239
199.676
200.054
200.396
200.721
201.025
201.29
201.506
201.677
201.813
201.924
202.017
202.095
202.162
202.219
202.266
202.307
202.343
202.376
202.407
202.436
202.464
202.49
202.515
202.539
202.571
202.623
202.717
202.874
203.102
203.393
203.72
204.048
204.356
204.637
204.881
205.071
205.183
205.241
205.394
206.225
204.984
197.075
198.149
199.14
199.9
200.448
200.849
201.176
201.459
201.699
201.901
202.093
202.302
202.539
202.794
203.051
203.295
203.521
203.729
203.924
204.105
204.273
204.425
204.565
204.705
204.861
205.067
205.317
205.467
205.61
205.71
205.761
205.947
206.284
206.832
207.476
208.072
209.191
207.206
175.281
173.819
172.941
173.622
196.924
197.4
197.289
197.66
197.882
198.261
198.719
199.163
199.566
199.947
200.316
200.657
200.954
201.2
201.398
201.558
201.687
201.789
201.865
201.919
201.952
201.966
201.967
201.96
201.949
201.937
201.926
201.918
201.912
201.909
201.911
201.923
201.96
202.042
202.188
202.408
202.692
203.013
203.338
203.644
203.924
204.17
204.361
204.477
204.538
204.693
205.515
204.286
196.889
197.954
198.939
199.695
200.239
200.637
200.962
201.246
201.485
201.689
201.882
202.093
202.331
202.588
202.845
203.09
203.314
203.522
203.716
203.898
204.065
204.216
204.373
204.571
204.831
205.16
205.594
205.783
205.904
205.889
205.721
205.838
206.207
206.973
207.867
208.479
209.566
207.175
170.097
168.949
168.377
169.634
197.692
198.178
197.92
198.073
197.991
198.169
198.525
198.928
199.322
199.715
200.114
200.503
200.862
201.177
201.446
201.677
201.881
202.037
202.151
202.223
202.256
202.25
202.217
202.163
202.099
202.031
201.965
201.904
201.849
201.802
201.763
201.74
201.746
201.801
201.924
202.125
202.393
202.701
203.015
203.313
203.587
203.828
204.015
204.128
204.187
204.339
205.154
203.934
196.808
197.867
198.849
199.602
200.144
200.54
200.865
201.148
201.389
201.595
201.792
202.008
202.252
202.514
202.778
203.027
203.257
203.468
203.665
203.847
204.01
204.166
204.368
204.682
205.118
205.592
206.223
206.473
206.554
206.402
205.986
205.986
206.53
207.411
208.424
208.935
210.065
207.903
169.864
168.808
168.386
170.206
203.597
203.156
201.792
201.061
200.153
199.745
199.717
199.872
200.105
200.397
200.737
201.098
201.449
201.774
202.072
202.342
202.407
202.618
202.784
202.914
203.003
203.036
203.016
202.945
202.84
202.715
202.584
202.454
202.331
202.216
202.115
202.034
201.989
201.998
202.081
202.248
202.487
202.769
203.061
203.34
203.597
203.823
203.998
204.1
204.149
204.294
205.103
203.889
196.804
197.863
198.844
199.595
200.134
200.529
200.851
201.133
201.372
201.577
201.775
201.992
202.24
202.507
202.777
203.035
203.274
203.495
203.701
203.886
204.048
204.221
204.504
204.994
205.663
206.275
207.098
207.408
207.399
207.058
206.372
206.201
206.561
207.331
208.18
208.463
209.874
207.937
170.749
169.688
169.375
171.626
207.925
207.788
205.991
205.042
203.767
203.024
202.679
202.531
202.474
202.489
202.563
202.668
202.782
202.898
203.025
203.169
203.148
203.319
203.473
203.613
203.728
203.808
203.847
203.846
203.808
203.734
203.63
203.499
203.346
203.178
203.007
202.846
202.722
202.66
202.68
202.792
202.984
203.225
203.48
203.726
203.953
204.152
204.303
204.383
204.414
204.544
205.345
204.134
196.844
197.904
198.886
199.637
200.176
200.568
200.888
201.166
201.402
201.602
201.796
202.009
202.253
202.518
202.788
203.048
203.291
203.519
203.731
203.918
204.079
204.275
204.656
205.34
206.241
206.958
207.893
208.275
208.111
207.491
206.573
206.173
206.165
206.515
206.888
207.121
209.55
207.666
169.495
168.242
168.01
170.768
209.353
209.466
206.55
205.57
204.423
203.821
203.55
203.4
203.236
203.051
202.895
202.817
202.838
202.963
203.182
203.461
203.563
203.818
204.001
204.124
204.195
204.228
204.235
204.222
204.194
204.15
204.091
204.015
203.922
203.815
203.702
203.593
203.509
203.473
203.507
203.62
203.804
204.028
204.258
204.471
204.661
204.821
204.933
204.977
204.975
205.078
205.866
204.657
196.892
197.955
198.938
199.691
200.231
200.624
200.945
201.222
201.456
201.655
201.844
202.053
202.292
202.552
202.816
203.071
203.311
203.537
203.747
203.928
204.083
204.291
204.735
205.543
206.586
207.378
208.857
209.313
208.93
207.859
206.162
205.495
205.077
204.933
204.765
205.263
209.031
207.251
173.637
172.274
172.062
175.023
211.933
213.43
208.995
207.573
205.797
204.401
203.593
204.023
204.138
203.745
203.119
202.929
202.991
203.153
203.395
203.643
203.65
203.825
203.943
204.029
204.09
204.126
204.148
204.158
204.159
204.149
204.126
204.089
204.036
203.971
203.899
203.831
203.785
203.785
203.853
204
204.216
204.471
204.729
204.969
205.182
205.361
205.487
205.539
205.54
205.642
206.433
205.233
196.924
197.989
198.974
199.728
200.271
200.666
200.989
201.27
201.506
201.706
201.898
202.108
202.347
202.606
202.869
203.122
203.36
203.584
203.793
203.973
204.126
204.333
204.778
205.59
206.657
207.407
208.007
208.332
207.536
205.894
204.566
203.692
203.118
202.948
203.089
200.413
207.538
207.238
205.448
204.39
203.992
204.025
204.078
204.009
203.856
203.742
203.686
203.685
203.776
203.879
203.742
203.818
203.866
203.912
203.959
203.985
204.008
204.029
204.049
204.065
204.073
204.069
204.052
204.022
203.982
203.941
203.918
203.936
204.017
204.174
204.395
204.652
204.912
205.15
205.36
205.537
205.661
205.712
205.713
205.818
206.619
205.393
196.933
197.998
198.983
199.738
200.281
200.678
201.002
201.284
201.523
201.725
201.92
202.132
202.374
202.637
202.904
203.16
203.4
203.627
203.841
204.032
204.199
204.403
204.795
205.509
206.489
207.405
211.4
210.861
209.236
206.86
201.784
201.118
201.015
201.577
202.813
200.501
206.995
207.722
206.267
205.283
204.743
204.459
204.264
204.074
203.852
203.663
203.532
203.482
203.518
203.564
203.375
203.42
203.452
203.497
203.562
203.597
203.634
203.666
203.698
203.73
203.759
203.781
203.793
203.794
203.787
203.78
203.788
203.834
203.94
204.118
204.358
204.631
204.901
205.147
205.361
205.539
205.662
205.71
205.707
205.806
206.605
205.302
196.922
197.986
198.97
199.724
200.266
200.662
200.986
201.268
201.506
201.709
201.904
202.117
202.36
202.624
202.892
203.15
203.393
203.622
203.841
204.046
204.235
204.436
204.747
205.303
206.153
206.546
204.154
202.139
200.379
198.856
198.687
198.817
199.504
200.82
202.87
201.134
206.994
207.77
206.37
205.379
204.743
204.272
203.905
203.623
203.412
203.275
203.204
203.21
203.249
203.285
203.099
203.145
203.184
203.24
203.319
203.37
203.421
203.458
203.49
203.52
203.548
203.57
203.585
203.592
203.593
203.596
203.616
203.675
203.797
203.991
204.248
204.538
204.825
205.088
205.317
205.506
205.639
205.693
205.694
205.794
206.587
205.225
196.901
197.964
198.947
199.7
200.241
200.636
200.958
201.238
201.476
201.678
201.872
202.085
202.328
202.592
202.86
203.119
203.362
203.592
203.814
204.03
204.237
204.44
204.674
205.041
205.693
204.963
187.306
185.601
184.352
184.113
197.342
197.915
198.894
200.428
202.834
201.532
207.023
207.678
206.282
205.259
204.56
204.064
203.685
203.424
203.255
203.177
203.188
203.236
203.288
203.358
203.228
203.283
203.328
203.368
203.413
203.464
203.513
203.546
203.566
203.578
203.585
203.588
203.584
203.574
203.561
203.552
203.564
203.618
203.738
203.934
204.194
204.489
204.783
205.052
205.288
205.486
205.626
205.689
205.697
205.802
206.597
205.203
196.881
197.943
198.926
199.678
200.218
200.612
200.933
201.212
201.448
201.649
201.842
202.054
202.296
202.559
202.827
203.085
203.328
203.558
203.78
203.999
204.219
204.432
204.632
204.851
205.221
203.241
172.485
171.235
170.55
171.512
196.384
197.363
198.416
199.834
202.23
201.174
207.02
207.662
206.277
205.342
204.71
204.236
203.863
203.629
203.485
203.453
203.503
203.576
203.682
203.842
203.845
203.929
203.973
203.962
203.894
203.912
203.934
203.955
203.963
203.954
203.932
203.902
203.864
203.82
203.772
203.73
203.712
203.742
203.843
204.025
204.275
204.565
204.857
205.127
205.367
205.569
205.715
205.782
205.795
205.903
206.699
205.295
196.869
197.931
198.914
199.666
200.207
200.6
200.922
201.201
201.436
201.637
201.828
202.039
202.279
202.541
202.807
203.062
203.303
203.529
203.747
203.963
204.182
204.402
204.609
204.78
204.922
202.044
165.11
164.003
163.671
165.487
196.137
197.361
198.271
199.28
201.26
200.149
207.189
207.976
206.605
205.862
205.255