/*--------------------------------*- C++ -*----------------------------------*\
| =========                 |                                                 |
| \\      /  F ield         | OpenFOAM: The Open Source CFD Toolbox           |
|  \\    /   O peration     | Version:  v2012                                 |
|   \\  /    A nd           | Website:  www.openfoam.com                      |
|    \\/     M anipulation  |                                                 |
\*---------------------------------------------------------------------------*/
FoamFile
{
    version     2.0;
    format      ascii;
    class       volScalarField;
    location    "250/air";
    object      ILambda_35_0;
}
// * * * * * * * * * * * * * * * * * * * * * * * * * * * * * * * * * * * * * //

dimensions      [1 0 -3 0 0 0 0];


internalField   nonuniform List<scalar> 
287104
(
167.229
167.728
168.138
168.52
168.877
169.21
169.524
169.82
170.1
170.367
170.622
170.867
171.102
171.329
171.549
171.762
171.969
172.17
172.367
172.558
172.746
172.93
173.11
173.286
173.46
173.631
173.8
173.965
174.129
174.29
174.45
174.607
174.762
174.916
175.068
175.218
175.367
175.514
175.659
175.803
175.945
176.087
176.226
176.365
176.502
176.637
176.772
176.905
177.037
177.168
177.298
177.427
177.554
177.681
177.807
177.932
178.056
178.18
178.303
178.425
178.547
178.668
178.789
178.909
179.029
179.149
179.269
179.388
179.508
179.628
179.748
179.868
179.989
180.109
180.229
180.35
180.472
180.595
180.72
180.846
180.973
181.1
181.228
181.356
181.485
181.616
181.74
181.825
181.93
182.85
167.016
167.309
167.522
167.732
167.933
168.126
168.311
168.49
168.661
168.827
168.988
169.144
169.296
169.444
169.588
169.73
169.868
170.004
170.138
170.269
170.397
170.524
170.649
170.772
170.893
171.013
171.131
171.248
171.364
171.478
171.591
171.704
171.815
171.925
172.034
172.142
172.249
172.356
172.461
172.566
172.67
172.773
172.876
172.978
173.079
173.18
173.28
173.38
173.479
173.578
173.676
173.774
173.872
173.969
174.067
174.164
174.261
174.358
174.456
174.553
174.651
174.749
174.848
174.946
175.046
175.145
175.245
175.346
175.447
175.548
175.649
175.751
175.853
175.955
176.057
176.159
176.261
176.363
176.466
176.57
176.674
176.778
176.882
176.988
177.097
177.196
177.241
177.242
177.756
180.69
166.859
167.01
167.113
167.222
167.33
167.437
167.543
167.648
167.75
167.852
167.952
168.05
168.147
168.243
168.337
168.43
168.522
168.613
168.703
168.791
168.879
168.966
169.051
169.136
169.22
169.304
169.386
169.468
169.549
169.629
169.709
169.789
169.867
169.946
170.023
170.101
170.177
170.254
170.33
170.405
170.481
170.556
170.63
170.705
170.779
170.853
170.927
171.001
171.075
171.149
171.223
171.297
171.371
171.445
171.52
171.595
171.67
171.746
171.823
171.899
171.977
172.055
172.133
172.212
172.292
172.372
172.452
172.533
172.614
172.695
172.776
172.857
172.939
173.02
173.101
173.181
173.261
173.342
173.422
173.502
173.582
173.662
173.745
173.83
173.912
173.954
173.92
174.024
175.297
179.706
166.762
166.833
166.883
166.94
166.999
167.059
167.121
167.183
167.247
167.31
167.374
167.437
167.501
167.564
167.627
167.69
167.753
167.815
167.877
167.939
168
168.06
168.121
168.181
168.241
168.3
168.359
168.418
168.476
168.534
168.592
168.649
168.706
168.763
168.82
168.876
168.932
168.989
169.044
169.1
169.156
169.211
169.267
169.322
169.377
169.433
169.489
169.544
169.6
169.656
169.713
169.77
169.827
169.884
169.942
170.001
170.06
170.119
170.179
170.239
170.3
170.361
170.423
170.485
170.548
170.61
170.673
170.736
170.799
170.862
170.924
170.987
171.049
171.111
171.173
171.235
171.296
171.357
171.418
171.478
171.539
171.602
171.668
171.734
171.78
171.764
171.724
172.101
174.098
179.29
166.717
166.753
166.781
166.814
166.849
166.887
166.926
166.967
167.009
167.052
167.095
167.139
167.184
167.228
167.273
167.318
167.363
167.409
167.454
167.499
167.544
167.589
167.634
167.679
167.723
167.768
167.812
167.857
167.901
167.945
167.988
168.032
168.076
168.119
168.162
168.205
168.249
168.292
168.335
168.377
168.42
168.463
168.506
168.549
168.593
168.636
168.68
168.723
168.767
168.812
168.856
168.901
168.947
168.992
169.038
169.085
169.132
169.179
169.226
169.274
169.322
169.37
169.419
169.467
169.515
169.564
169.612
169.66
169.709
169.756
169.804
169.852
169.899
169.946
169.992
170.039
170.085
170.132
170.178
170.224
170.272
170.322
170.374
170.419
170.427
170.381
170.421
171.115
173.599
179.078
166.708
166.732
166.752
166.776
166.801
166.829
166.857
166.888
166.919
166.951
166.983
167.017
167.05
167.084
167.119
167.154
167.189
167.224
167.259
167.295
167.33
167.366
167.402
167.437
167.473
167.508
167.544
167.579
167.615
167.65
167.685
167.72
167.755
167.79
167.826
167.86
167.895
167.93
167.965
168
168.035
168.07
168.106
168.141
168.176
168.212
168.248
168.284
168.32
168.357
168.394
168.431
168.468
168.506
168.543
168.581
168.619
168.658
168.696
168.734
168.772
168.81
168.849
168.887
168.924
168.962
168.999
169.037
169.073
169.11
169.146
169.183
169.219
169.254
169.29
169.326
169.361
169.397
169.432
169.469
169.507
169.547
169.586
169.607
169.589
169.556
169.724
170.678
173.404
178.85
166.715
166.738
166.756
166.776
166.798
166.821
166.845
166.869
166.895
166.921
166.948
166.975
167.003
167.031
167.06
167.088
167.117
167.147
167.176
167.206
167.235
167.265
167.295
167.325
167.354
167.384
167.414
167.444
167.474
167.504
167.534
167.564
167.593
167.623
167.653
167.683
167.713
167.742
167.772
167.802
167.832
167.863
167.893
167.923
167.954
167.984
168.015
168.046
168.077
168.109
168.14
168.172
168.203
168.235
168.266
168.298
168.33
168.361
168.392
168.424
168.455
168.485
168.516
168.546
168.576
168.606
168.635
168.664
168.693
168.722
168.75
168.778
168.806
168.834
168.862
168.89
168.917
168.945
168.973
169.003
169.034
169.065
169.09
169.092
169.067
169.083
169.384
170.508
173.276
178.33
166.726
166.75
166.768
166.787
166.807
166.827
166.849
166.87
166.893
166.916
166.939
166.962
166.986
167.011
167.035
167.06
167.085
167.111
167.136
167.162
167.187
167.213
167.239
167.265
167.291
167.317
167.343
167.369
167.396
167.422
167.448
167.474
167.5
167.527
167.553
167.579
167.605
167.632
167.658
167.685
167.711
167.738
167.765
167.792
167.819
167.846
167.873
167.9
167.927
167.955
167.982
168.009
168.036
168.063
168.09
168.117
168.143
168.169
168.195
168.221
168.246
168.271
168.296
168.32
168.344
168.367
168.391
168.414
168.436
168.459
168.481
168.503
168.525
168.547
168.569
168.59
168.612
168.634
168.657
168.681
168.705
168.727
168.737
168.729
168.722
168.807
169.224
170.43
173.007
177.072
166.736
166.76
166.777
166.795
166.814
166.833
166.852
166.872
166.892
166.913
166.934
166.955
166.976
166.998
167.019
167.042
167.064
167.086
167.109
167.131
167.154
167.177
167.2
167.223
167.246
167.27
167.293
167.316
167.339
167.363
167.386
167.409
167.433
167.456
167.479
167.503
167.526
167.55
167.574
167.597
167.621
167.645
167.669
167.693
167.716
167.74
167.764
167.788
167.812
167.835
167.859
167.882
167.905
167.928
167.951
167.973
167.995
168.017
168.038
168.059
168.08
168.1
168.12
168.139
168.159
168.177
168.196
168.214
168.232
168.25
168.268
168.285
168.303
168.32
168.337
168.354
168.371
168.389
168.407
168.426
168.444
168.455
168.456
168.451
168.479
168.639
169.139
170.307
172.425
175.317
166.741
166.765
166.781
166.798
166.816
166.834
166.852
166.87
166.888
166.907
166.925
166.944
166.963
166.983
167.002
167.022
167.042
167.063
167.083
167.104
167.124
167.145
167.166
167.187
167.208
167.229
167.25
167.271
167.292
167.313
167.334
167.355
167.376
167.397
167.419
167.44
167.461
167.483
167.504
167.526
167.547
167.569
167.59
167.612
167.633
167.654
167.675
167.696
167.717
167.737
167.758
167.778
167.797
167.817
167.836
167.855
167.873
167.891
167.909
167.926
167.943
167.959
167.976
167.991
168.007
168.022
168.037
168.052
168.066
168.081
168.095
168.109
168.122
168.136
168.15
168.163
168.177
168.191
168.206
168.221
168.231
168.235
168.232
168.244
168.318
168.543
169.06
170.032
171.618
174.246
166.743
166.766
166.781
166.798
166.814
166.83
166.847
166.864
166.881
166.898
166.917
166.937
166.957
166.977
166.997
167.017
167.038
167.058
167.078
167.098
167.118
167.138
167.158
167.178
167.198
167.217
167.237
167.256
167.275
167.295
167.314
167.334
167.353
167.373
167.392
167.412
167.432
167.451
167.471
167.491
167.511
167.53
167.55
167.569
167.589
167.608
167.627
167.646
167.664
167.682
167.7
167.718
167.735
167.752
167.768
167.784
167.8
167.815
167.83
167.844
167.858
167.872
167.885
167.898
167.911
167.923
167.935
167.947
167.959
167.97
167.981
167.992
168.003
168.014
168.025
168.035
168.046
168.057
168.068
168.076
168.077
168.074
168.076
168.113
168.235
168.494
168.926
169.6
170.932
174.361
166.743
166.765
166.779
166.795
166.811
166.826
166.842
166.857
166.873
166.89
166.91
166.93
166.95
166.971
166.991
167.012
167.032
167.053
167.073
167.093
167.113
167.132
167.152
167.171
167.19
167.208
167.227
167.245
167.264
167.282
167.3
167.319
167.337
167.355
167.374
167.392
167.411
167.43
167.449
167.467
167.486
167.505
167.523
167.542
167.56
167.578
167.596
167.613
167.63
167.647
167.664
167.68
167.696
167.712
167.727
167.742
167.756
167.77
167.784
167.797
167.81
167.823
167.835
167.847
167.859
167.87
167.881
167.891
167.902
167.911
167.921
167.93
167.939
167.948
167.956
167.965
167.973
167.982
167.988
167.99
167.985
167.98
167.995
168.065
168.218
168.437
168.685
169.152
170.82
175.797
166.744
166.764
166.778
166.793
166.808
166.822
166.837
166.852
166.867
166.884
166.904
166.924
166.944
166.964
166.985
167.005
167.025
167.045
167.065
167.085
167.104
167.123
167.142
167.161
167.179
167.197
167.215
167.233
167.25
167.268
167.285
167.303
167.32
167.338
167.356
167.373
167.391
167.409
167.427
167.445
167.463
167.48
167.498
167.515
167.533
167.55
167.566
167.583
167.599
167.615
167.631
167.646
167.662
167.676
167.691
167.705
167.719
167.733
167.746
167.759
167.772
167.784
167.797
167.809
167.82
167.832
167.843
167.854
167.865
167.875
167.886
167.896
167.905
167.915
167.924
167.933
167.942
167.951
167.956
167.955
167.95
167.954
167.994
168.09
168.223
168.323
168.428
169.128
171.956
178.627
166.744
166.764
166.778
166.792
166.806
166.82
166.834
166.848
166.863
166.88
166.899
166.919
166.938
166.958
166.978
166.998
167.018
167.037
167.057
167.076
167.095
167.113
167.132
167.149
167.167
167.185
167.202
167.219
167.236
167.253
167.27
167.287
167.303
167.32
167.337
167.355
167.372
167.389
167.406
167.423
167.44
167.457
167.473
167.49
167.506
167.523
167.538
167.554
167.57
167.585
167.6
167.614
167.629
167.643
167.657
167.671
167.684
167.697
167.71
167.723
167.735
167.748
167.76
167.772
167.783
167.795
167.807
167.818
167.829
167.84
167.85
167.861
167.871
167.881
167.891
167.901
167.911
167.919
167.923
167.922
167.923
167.943
168.002
168.092
168.156
168.174
168.456
169.961
173.85
179.642
166.746
166.765
166.778
166.792
166.806
166.819
166.833
166.847
166.861
166.877
166.896
166.915
166.934
166.953
166.973
166.992
167.011
167.03
167.049
167.067
167.086
167.103
167.121
167.138
167.156
167.172
167.189
167.206
167.222
167.238
167.255
167.271
167.287
167.304
167.32
167.336
167.353
167.369
167.386
167.402
167.418
167.434
167.45
167.466
167.482
167.497
167.512
167.527
167.542
167.557
167.571
167.585
167.599
167.613
167.626
167.639
167.652
167.665
167.678
167.69
167.702
167.715
167.726
167.738
167.75
167.761
167.773
167.784
167.795
167.805
167.816
167.826
167.837
167.847
167.857
167.867
167.876
167.882
167.884
167.884
167.892
167.925
167.984
168.035
168.046
168.162
168.937
171.191
175.013
178.778
166.748
166.767
166.779
166.793
166.806
166.82
166.833
166.846
166.86
166.876
166.894
166.912
166.931
166.95
166.968
166.987
167.005
167.024
167.042
167.06
167.077
167.095
167.112
167.129
167.145
167.161
167.177
167.193
167.209
167.225
167.241
167.257
167.272
167.288
167.304
167.32
167.335
167.351
167.367
167.382
167.398
167.413
167.429
167.444
167.459
167.474
167.488
167.503
167.517
167.531
167.545
167.559
167.572
167.586
167.599
167.612
167.624
167.637
167.649
167.661
167.674
167.685
167.697
167.709
167.72
167.732
167.743
167.754
167.764
167.775
167.785
167.795
167.805
167.815
167.824
167.834
167.841
167.845
167.847
167.85
167.866
167.901
167.94
167.957
168.007
168.391
169.645
172.056
175.056
177.926
166.75
166.768
166.781
166.794
166.807
166.82
166.833
166.846
166.86
166.875
166.893
166.91
166.929
166.947
166.965
166.983
167.001
167.019
167.036
167.053
167.07
167.087
167.104
167.12
167.136
167.151
167.167
167.182
167.198
167.213
167.228
167.243
167.259
167.274
167.289
167.304
167.319
167.334
167.349
167.364
167.379
167.394
167.409
167.424
167.438
167.453
167.467
167.481
167.495
167.509
167.522
167.536
167.549
167.562
167.575
167.587
167.6
167.612
167.624
167.637
167.648
167.66
167.672
167.683
167.694
167.705
167.716
167.727
167.737
167.748
167.758
167.767
167.777
167.786
167.796
167.804
167.81
167.813
167.816
167.825
167.845
167.873
167.891
167.917
168.1
168.77
170.219
172.298
174.618
177.923
166.752
166.77
166.782
166.796
166.808
166.821
166.834
166.847
166.86
166.875
166.892
166.909
166.927
166.945
166.962
166.98
166.997
167.014
167.031
167.048
167.065
167.081
167.097
167.112
167.128
167.143
167.158
167.173
167.187
167.202
167.217
167.232
167.246
167.261
167.275
167.29
167.305
167.319
167.334
167.348
167.363
167.377
167.392
167.406
167.42
167.434
167.448
167.462
167.475
167.489
167.502
167.515
167.528
167.541
167.554
167.566
167.579
167.591
167.603
167.615
167.627
167.638
167.65
167.661
167.672
167.683
167.694
167.704
167.715
167.725
167.734
167.744
167.754
167.763
167.772
167.779
167.784
167.789
167.795
167.808
167.828
167.846
167.863
167.947
168.288
169.12
170.478
172.149
174.368
178.473
166.754
166.772
166.784
166.797
166.81
166.822
166.834
166.847
166.86
166.874
166.891
166.908
166.925
166.942
166.96
166.977
166.994
167.01
167.027
167.043
167.059
167.075
167.09
167.105
167.12
167.135
167.149
167.164
167.178
167.192
167.206
167.22
167.234
167.248
167.262
167.277
167.291
167.305
167.319
167.332
167.346
167.36
167.374
167.388
167.402
167.416
167.429
167.443
167.456
167.47
167.483
167.496
167.508
167.521
167.533
167.546
167.558
167.57
167.582
167.594
167.606
167.617
167.628
167.64
167.651
167.661
167.672
167.682
167.693
167.703
167.712
167.722
167.731
167.74
167.749
167.755
167.761
167.766
167.776
167.791
167.806
167.82
167.858
168.02
168.471
169.312
170.472
171.972
174.427
178.362
166.756
166.774
166.785
166.798
166.811
166.823
166.835
166.847
166.86
166.874
166.891
166.908
166.925
166.942
166.959
166.976
166.993
167.009
167.025
167.04
167.055
167.07
167.084
167.098
167.112
167.126
167.139
167.153
167.166
167.179
167.193
167.206
167.219
167.232
167.246
167.259
167.272
167.286
167.299
167.312
167.326
167.34
167.353
167.367
167.381
167.395
167.409
167.423
167.436
167.45
167.463
167.476
167.489
167.502
167.515
167.527
167.539
167.551
167.563
167.574
167.585
167.596
167.607
167.618
167.628
167.639
167.649
167.658
167.668
167.677
167.686
167.695
167.704
167.712
167.719
167.724
167.729
167.736
167.746
167.759
167.77
167.789
167.861
168.087
168.572
169.335
170.368
171.912
174.403
177.341
166.757
166.775
166.787
166.799
166.812
166.824
166.836
166.848
166.86
166.874
166.889
166.903
166.918
166.933
166.948
166.962
166.976
166.991
167.005
167.018
167.032
167.045
167.058
167.071
167.084
167.097
167.11
167.123
167.136
167.148
167.161
167.174
167.186
167.199
167.212
167.224
167.237
167.25
167.262
167.275
167.288
167.301
167.315
167.328
167.341
167.354
167.368
167.381
167.395
167.408
167.421
167.434
167.446
167.459
167.471
167.483
167.495
167.506
167.517
167.528
167.539
167.55
167.56
167.571
167.58
167.59
167.6
167.609
167.617
167.626
167.634
167.642
167.65
167.656
167.662
167.666
167.671
167.678
167.688
167.699
167.711
167.744
167.85
168.108
168.574
169.266
170.282
171.859
173.942
175.736
166.759
166.777
166.788
166.801
166.813
166.825
166.836
166.848
166.86
166.873
166.886
166.899
166.911
166.924
166.937
166.95
166.962
166.974
166.987
166.999
167.011
167.023
167.035
167.047
167.059
167.071
167.083
167.095
167.107
167.119
167.131
167.143
167.155
167.167
167.179
167.191
167.203
167.215
167.227
167.239
167.251
167.264
167.276
167.288
167.301
167.313
167.326
167.338
167.35
167.363
167.375
167.387
167.398
167.41
167.422
167.433
167.444
167.455
167.466
167.476
167.486
167.496
167.506
167.516
167.525
167.534
167.542
167.55
167.558
167.566
167.573
167.58
167.586
167.591
167.596
167.599
167.604
167.612
167.621
167.632
167.649
167.697
167.825
168.086
168.523
169.193
170.212
171.6
173.02
174.478
166.761
166.778
166.789
166.802
166.813
166.825
166.837
166.849
166.86
166.872
166.884
166.895
166.907
166.918
166.93
166.941
166.952
166.964
166.975
166.986
166.997
167.008
167.019
167.031
167.042
167.053
167.064
167.075
167.087
167.098
167.109
167.12
167.132
167.143
167.154
167.165
167.177
167.188
167.199
167.211
167.222
167.233
167.245
167.256
167.268
167.279
167.291
167.302
167.313
167.325
167.336
167.347
167.358
167.369
167.38
167.391
167.401
167.411
167.421
167.431
167.441
167.45
167.46
167.468
167.477
167.485
167.493
167.501
167.508
167.515
167.521
167.527
167.533
167.537
167.541
167.545
167.55
167.558
167.568
167.58
167.604
167.664
167.799
168.054
168.479
169.143
170.064
171.057
172.04
174.378
166.762
166.779
166.791
166.803
166.814
166.826
166.837
166.849
166.86
166.871
166.882
166.893
166.904
166.915
166.925
166.936
166.946
166.957
166.968
166.978
166.988
166.999
167.01
167.02
167.031
167.041
167.052
167.062
167.073
167.084
167.094
167.105
167.115
167.126
167.136
167.147
167.157
167.168
167.179
167.189
167.2
167.211
167.221
167.232
167.242
167.253
167.263
167.274
167.284
167.294
167.305
167.315
167.325
167.335
167.345
167.355
167.365
167.375
167.384
167.393
167.402
167.411
167.42
167.428
167.436
167.444
167.451
167.458
167.465
167.471
167.478
167.483
167.488
167.492
167.496
167.5
167.507
167.516
167.527
167.541
167.571
167.638
167.776
168.028
168.449
169.067
169.777
170.419
171.474
174.808
166.764
166.781
166.792
166.804
166.815
166.827
166.838
166.849
166.86
166.871
166.881
166.892
166.902
166.912
166.923
166.933
166.943
166.953
166.963
166.973
166.983
166.994
167.004
167.014
167.024
167.034
167.044
167.054
167.064
167.074
167.084
167.094
167.104
167.114
167.124
167.134
167.145
167.155
167.165
167.175
167.184
167.194
167.203
167.213
167.222
167.232
167.241
167.25
167.26
167.269
167.278
167.287
167.297
167.306
167.314
167.323
167.332
167.341
167.349
167.358
167.366
167.374
167.382
167.389
167.397
167.404
167.411
167.417
167.424
167.43
167.436
167.441
167.445
167.449
167.454
167.46
167.468
167.478
167.489
167.506
167.54
167.61
167.75
168.003
168.404
168.917
169.409
169.936
171.312
174.749
166.765
166.782
166.793
166.804
166.816
166.827
166.838
166.849
166.86
166.87
166.881
166.891
166.901
166.911
166.921
166.931
166.941
166.951
166.961
166.971
166.98
166.99
167
167.009
167.019
167.029
167.039
167.048
167.058
167.068
167.077
167.087
167.097
167.106
167.116
167.125
167.134
167.144
167.153
167.162
167.171
167.179
167.187
167.195
167.203
167.211
167.218
167.226
167.234
167.242
167.249
167.257
167.265
167.273
167.28
167.288
167.296
167.303
167.311
167.318
167.326
167.333
167.34
167.347
167.354
167.361
167.368
167.374
167.38
167.386
167.391
167.396
167.4
167.405
167.41
167.417
167.426
167.436
167.447
167.466
167.501
167.574
167.716
167.962
168.316
168.707
169.071
169.663
171.194
173.985
166.767
166.783
166.794
166.805
166.816
166.827
166.838
166.849
166.859
166.87
166.88
166.89
166.9
166.91
166.92
166.93
166.939
166.949
166.959
166.968
166.978
166.987
166.997
167.006
167.016
167.025
167.035
167.044
167.053
167.063
167.072
167.082
167.091
167.1
167.109
167.118
167.128
167.137
167.145
167.151
167.156
167.162
167.167
167.173
167.179
167.185
167.191
167.198
167.204
167.211
167.217
167.224
167.231
167.238
167.244
167.251
167.258
167.265
167.272
167.279
167.286
167.293
167.299
167.306
167.312
167.318
167.324
167.33
167.336
167.341
167.346
167.35
167.354
167.359
167.365
167.372
167.381
167.39
167.402
167.42
167.457
167.532
167.673
167.899
168.191
168.489
168.822
169.485
170.882
172.913
166.768
166.784
166.795
166.806
166.817
166.828
166.838
166.849
166.859
166.869
166.879
166.889
166.899
166.909
166.919
166.928
166.938
166.947
166.957
166.966
166.976
166.985
166.994
167.003
167.013
167.022
167.031
167.04
167.05
167.059
167.068
167.077
167.086
167.095
167.104
167.114
167.123
167.131
167.136
167.137
167.139
167.141
167.143
167.148
167.153
167.158
167.164
167.17
167.176
167.182
167.188
167.194
167.201
167.207
167.213
167.22
167.226
167.232
167.239
167.245
167.251
167.257
167.263
167.269
167.274
167.28
167.285
167.29
167.294
167.299
167.302
167.306
167.31
167.314
167.32
167.327
167.335
167.343
167.354
167.373
167.411
167.486
167.62
167.818
168.055
168.305
168.644
169.286
170.401
171.936
166.769
166.785
166.795
166.807
166.817
166.828
166.838
166.849
166.859
166.869
166.879
166.889
166.898
166.908
166.917
166.927
166.936
166.946
166.955
166.964
166.973
166.983
166.992
167.001
167.01
167.019
167.028
167.037
167.046
167.055
167.064
167.073
167.082
167.091
167.1
167.108
167.11
167.104
167.092
167.091
167.096
167.106
167.12
167.123
167.129
167.135
167.141
167.147
167.153
167.159
167.165
167.171
167.177
167.183
167.188
167.194
167.2
167.205
167.211
167.216
167.221
167.226
167.231
167.236
167.24
167.245
167.249
167.253
167.256
167.259
167.262
167.265
167.269
167.273
167.279
167.285
167.292
167.299
167.309
167.328
167.367
167.441
167.563
167.733
167.932
168.164
168.493
169.032
169.88
171.206
166.77
166.786
166.796
166.807
166.818
166.828
166.838
166.848
166.858
166.868
166.878
166.888
166.897
166.907
166.916
166.925
166.935
166.944
166.953
166.962
166.971
166.98
166.989
166.998
167.007
167.016
167.025
167.034
167.042
167.051
167.06
167.069
167.078
167.087
167.094
167.097
167.097
167.089
167.074
167.074
167.076
167.083
167.099
167.103
167.109
167.115
167.121
167.128
167.134
167.14
167.145
167.151
167.157
167.162
167.167
167.172
167.177
167.182
167.186
167.191
167.195
167.199
167.203
167.206
167.21
167.213
167.216
167.219
167.221
167.224
167.226
167.229
167.232
167.236
167.242
167.247
167.253
167.259
167.268
167.287
167.326
167.396
167.506
167.654
167.833
168.05
168.335
168.742
169.414
170.702
166.771
166.787
166.797
166.807
166.818
166.828
166.838
166.848
166.858
166.868
166.877
166.887
166.896
166.905
166.915
166.924
166.933
166.942
166.951
166.96
166.969
166.978
166.987
166.995
167.004
167.013
167.022
167.03
167.039
167.048
167.057
167.066
167.074
167.08
167.085
167.097
167.118
167.131
167.125
167.114
167.094
167.073
167.077
167.087
167.092
167.099
167.105
167.111
167.117
167.123
167.129
167.134
167.139
167.144
167.149
167.153
167.157
167.161
167.165
167.169
167.172
167.175
167.178
167.181
167.183
167.185
167.188
167.189
167.191
167.193
167.194
167.197
167.2
167.204
167.209
167.213
167.218
167.223
167.232
167.251
167.289
167.355
167.454
167.587
167.752
167.942
168.159
168.45
169.038
170.373
166.772
166.787
166.797
166.808
166.818
166.828
166.838
166.848
166.858
166.867
166.877
166.886
166.895
166.904
166.914
166.923
166.932
166.94
166.949
166.958
166.967
166.976
166.984
166.993
167.002
167.01
167.019
167.028
167.036
167.045
167.054
167.062
167.067
167.071
167.086
167.128
167.189
167.227
167.211
167.169
167.109
167.058
167.057
167.074
167.077
167.084
167.091
167.097
167.103
167.109
167.114
167.119
167.124
167.129
167.133
167.137
167.141
167.145
167.148
167.151
167.153
167.156
167.158
167.159
167.161
167.162
167.164
167.165
167.165
167.167
167.168
167.17
167.173
167.177
167.181
167.184
167.187
167.191
167.2
167.219
167.256
167.318
167.409
167.531
167.676
167.825
167.968
168.181
168.755
170.192
166.773
166.788
166.798
166.808
166.818
166.828
166.838
166.848
166.857
166.867
166.876
166.885
166.894
166.904
166.913
166.921
166.93
166.939
166.948
166.957
166.965
166.974
166.982
166.991
166.999
167.008
167.017
167.025
167.034
167.043
167.051
167.056
167.058
167.069
167.111
167.197
167.294
167.336
167.294
167.21
167.118
167.054
167.053
167.071
167.073
167.079
167.085
167.09
167.095
167.101
167.106
167.11
167.115
167.119
167.123
167.127
167.13
167.133
167.136
167.138
167.141
167.142
167.144
167.145
167.145
167.146
167.146
167.146
167.146
167.147
167.148
167.15
167.152
167.155
167.157
167.159
167.161
167.165
167.174
167.193
167.229
167.287
167.37
167.478
167.595
167.695
167.774
167.95
168.563
170.14
166.774
166.788
166.798
166.808
166.819
166.828
166.838
166.848
166.857
166.866
166.876
166.885
166.894
166.903
166.912
166.921
166.929
166.938
166.947
166.955
166.964
166.972
166.981
166.989
166.997
167.006
167.015
167.023
167.033
167.041
167.046
167.048
167.052
167.081
167.158
167.278
167.384
167.401
167.322
167.211
167.113
167.058
167.063
167.079
167.08
167.086
167.091
167.095
167.099
167.102
167.106
167.11
167.114
167.117
167.12
167.124
167.127
167.129
167.132
167.134
167.136
167.137
167.138
167.139
167.139
167.138
167.137
167.137
167.136
167.136
167.136
167.137
167.138
167.139
167.14
167.14
167.141
167.144
167.153
167.173
167.208
167.261
167.335
167.422
167.504
167.555
167.592
167.768
168.458
170.223
166.774
166.789
166.798
166.809
166.819
166.829
166.838
166.848
166.857
166.866
166.875
166.884
166.893
166.902
166.911
166.92
166.928
166.937
166.945
166.954
166.962
166.971
166.979
166.987
166.996
167.005
167.013
167.022
167.031
167.037
167.039
167.04
167.054
167.109
167.221
167.361
167.442
167.406
167.288
167.17
167.091
167.059
167.068
167.081
167.084
167.09
167.094
167.099
167.103
167.107
167.112
167.117
167.121
167.125
167.129
167.132
167.134
167.136
167.138
167.138
167.139
167.138
167.138
167.137
167.136
167.134
167.133
167.132
167.131
167.13
167.13
167.13
167.131
167.13
167.13
167.129
167.129
167.132
167.142
167.161
167.194
167.24
167.299
167.361
167.405
167.416
167.434
167.641
168.444
170.465
166.775
166.789
166.799
166.809
166.819
166.829
166.838
166.848
166.857
166.866
166.875
166.884
166.893
166.902
166.91
166.919
166.928
166.936
166.944
166.953
166.961
166.969
166.978
166.986
166.994
167.002
167.011
167.02
167.027
167.031
167.032
167.037
167.068
167.143
167.245
167.309
167.322
167.247
167.155
167.099
167.075
167.069
167.082
167.093
167.096
167.104
167.11
167.116
167.122
167.128
167.132
167.133
167.129
167.129
167.13
167.13
167.131
167.131
167.131
167.131
167.13
167.128
167.127
167.125
167.124
167.122
167.121
167.12
167.119
167.119
167.119
167.118
167.118
167.117
167.116
167.115
167.116
167.121
167.132
167.151
167.18
167.216
167.256
167.29
167.301
167.287
167.31
167.579
168.535
170.785
166.775
166.79
166.799
166.809
166.819
166.829
166.838
166.848
166.857
166.866
166.875
166.884
166.893
166.901
166.91
166.919
166.927
166.935
166.943
166.952
166.96
166.968
166.976
166.984
166.993
167.002
167.01
167.017
167.021
167.022
167.024
167.038
167.077
167.143
167.237
167.575
167.118
167.123
167.127
167.131
167.132
167.132
167.13
167.126
167.122
167.12
167.119
167.118
167.118
167.117
167.116
167.114
167.113
167.111
167.109
167.107
167.105
167.104
167.102
167.102
167.101
167.101
167.101
167.1
167.1
167.098
167.097
167.097
167.099
167.106
167.118
167.135
167.157
167.18
167.199
167.206
167.193
167.171
167.226
167.593
168.694
170.89
166.776
166.79
166.8
166.81
166.82
166.829
166.839
166.848
166.857
166.866
166.875
166.884
166.893
166.901
166.91
166.918
166.926
166.934
166.943
166.951
166.959
166.967
166.975
166.984
166.993
167.001
167.008
167.011
167.013
167.013
167.017
167.038
167.078
167.138
167.269
167.687
167.132
167.13
167.129
167.127
167.124
167.119
167.115
167.111
167.107
167.104
167.102
167.1
167.099
167.097
167.095
167.093
167.091
167.089
167.087
167.085
167.083
167.082
167.081
167.081
167.08
167.08
167.079
167.078
167.077
167.075
167.074
167.075
167.079
167.087
167.098
167.111
167.123
167.13
167.129
167.114
167.088
167.078
167.191
167.665
168.811
170.698
166.777
166.791
166.8
166.81
166.82
166.829
166.839
166.848
166.857
166.866
166.875
166.884
166.892
166.901
166.909
166.917
166.926
166.934
166.942
166.95
166.958
166.966
166.974
166.981
166.985
166.983
166.976
166.977
166.982
166.993
167.014
167.037
167.069
167.117
167.271
167.729
167.138
167.125
167.119
167.113
167.107
167.101
167.096
167.091
167.088
167.085
167.082
167.08
167.078
167.076
167.073
167.071
167.069
167.066
167.064
167.062
167.061
167.06
167.059
167.059
167.058
167.057
167.056
167.054
167.052
167.05
167.049
167.052
167.057
167.065
167.074
167.08
167.079
167.07
167.051
167.023
166.997
167.017
167.201
167.742
168.812
170.388
166.777
166.791
166.8
166.81
166.82
166.83
166.839
166.848
166.857
166.866
166.875
166.884
166.892
166.9
166.909
166.917
166.925
166.933
166.941
166.949
166.957
166.965
166.971
166.976
166.978
166.975
166.969
166.971
166.975
166.987
167.012
167.029
167.034
167.063
167.242
167.734
167.136
167.113
167.104
167.094
167.087
167.081
167.076
167.072
167.068
167.065
167.062
167.059
167.057
167.055
167.052
167.05
167.047
167.045
167.043
167.042
167.04
167.04
167.039
167.038
167.037
167.035
167.032
167.03
167.027
167.025
167.026
167.03
167.036
167.043
167.046
167.042
167.028
167.005
166.974
166.942
166.929
166.992
167.235
167.78
168.71
170.1
166.777
166.791
166.801
166.811
166.82
166.83
166.839
166.848
166.857
166.866
166.875
166.883
166.892
166.9
166.908
166.916
166.924
166.932
166.94
166.948
166.955
166.961
166.966
166.977
166.995
167.011
167.016
167.014
167.004
166.996
167.002
166.996
166.958
166.975
167.186
167.661
167.129
167.097
167.086
167.076
167.068
167.062
167.057
167.053
167.049
167.046
167.043
167.04
167.038
167.036
167.033
167.031
167.029
167.027
167.025
167.024
167.023
167.022
167.021
167.02
167.018
167.015
167.011
167.007
167.004
167.003
167.005
167.01
167.015
167.019
167.015
167.001
166.975
166.942
166.904
166.876
166.887
166.993
167.266
167.764
168.563
169.917
166.778
166.792
166.801
166.811
166.821
166.83
166.839
166.849
166.857
166.866
166.875
166.883
166.891
166.9
166.908
166.916
166.923
166.931
166.939
166.946
166.951
166.956
166.969
166.999
167.044
167.076
167.075
167.056
167.029
167.001
166.973
166.921
166.841
166.874
167.111
167.514
167.115
167.082
167.069
167.06
167.053
167.047
167.041
167.037