/*--------------------------------*- C++ -*----------------------------------*\
| =========                 |                                                 |
| \\      /  F ield         | OpenFOAM: The Open Source CFD Toolbox           |
|  \\    /   O peration     | Version:  v2012                                 |
|   \\  /    A nd           | Website:  www.openfoam.com                      |
|    \\/     M anipulation  |                                                 |
\*---------------------------------------------------------------------------*/
FoamFile
{
    version     2.0;
    format      ascii;
    class       volScalarField;
    location    "250/air";
    object      ILambda_16_0;
}
// * * * * * * * * * * * * * * * * * * * * * * * * * * * * * * * * * * * * * //

dimensions      [1 0 -3 0 0 0 0];


internalField   nonuniform List<scalar> 
287104
(
209.952
219.136
219.446
220.548
221.618
222.443
223.128
223.729
224.255
224.716
225.139
225.558
225.986
226.42
226.842
227.239
227.605
227.94
228.251
228.542
228.817
229.078
229.327
229.564
229.79
230.006
230.213
230.411
230.6
230.783
230.959
231.13
231.296
231.457
231.614
231.766
231.915
232.06
232.202
232.34
232.476
232.609
232.74
232.871
232.999
233.125
233.25
233.373
233.495
233.615
233.735
233.857
233.982
234.111
234.244
234.383
234.523
234.664
234.803
234.938
235.067
235.188
235.303
235.41
235.512
235.609
235.703
235.796
235.89
235.985
236.081
236.178
236.276
236.383
236.513
236.689
236.935
237.265
237.668
238.11
238.548
238.953
239.321
239.655
239.946
240.169
240.338
240.593
241.211
242.888
209.477
218.538
218.803
219.861
220.887
221.671
222.317
222.882
223.374
223.801
224.194
224.582
224.983
225.389
225.786
226.158
226.5
226.812
227.099
227.368
227.621
227.861
228.089
228.306
228.512
228.708
228.895
229.074
229.245
229.41
229.568
229.722
229.871
230.014
230.153
230.287
230.417
230.546
230.671
230.793
230.911
231.027
231.142
231.257
231.37
231.48
231.589
231.697
231.804
231.909
232.014
232.118
232.225
232.334
232.448
232.566
232.688
232.812
232.935
233.055
233.17
233.278
233.379
233.474
233.562
233.647
233.728
233.809
233.89
233.972
234.055
234.138
234.223
234.317
234.433
234.596
234.829
235.145
235.535
235.964
236.39
236.784
237.141
237.463
237.741
237.949
238.102
238.348
238.994
240.817
208.726
217.624
217.884
218.92
219.924
220.687
221.316
221.866
222.343
222.757
223.137
223.515
223.904
224.3
224.687
225.049
225.382
225.685
225.964
226.224
226.47
226.702
226.923
227.132
227.331
227.52
227.7
227.872
228.036
228.194
228.347
228.495
228.637
228.775
228.907
229.033
229.157
229.28
229.399
229.515
229.627
229.737
229.845
229.954
230.061
230.165
230.268
230.37
230.471
230.571
230.669
230.767
230.867
230.968
231.073
231.182
231.294
231.409
231.524
231.636
231.744
231.846
231.941
232.029
232.111
232.189
232.264
232.338
232.413
232.488
232.564
232.64
232.718
232.804
232.913
233.067
233.291
233.598
233.979
234.398
234.814
235.199
235.546
235.859
236.127
236.326
236.469
236.709
237.356
239.15
208.041
216.793
217.05
218.068
219.053
219.801
220.416
220.953
221.42
221.824
222.195
222.564
222.945
223.334
223.714
224.07
224.396
224.694
224.967
225.223
225.463
225.691
225.907
226.112
226.307
226.492
226.668
226.835
226.995
227.149
227.299
227.443
227.583
227.717
227.845
227.967
228.087
228.206
228.323
228.435
228.544
228.649
228.753
228.859
228.964
229.064
229.164
229.263
229.361
229.458
229.553
229.648
229.743
229.839
229.938
230.041
230.148
230.257
230.367
230.475
230.58
230.678
230.77
230.856
230.935
231.01
231.083
231.154
231.226
231.299
231.372
231.445
231.52
231.604
231.709
231.861
232.081
232.385
232.762
233.178
233.591
233.972
234.317
234.629
234.894
235.09
235.232
235.471
236.113
237.874
207.365
215.974
216.227
217.228
218.194
218.927
219.529
220.055
220.51
220.905
221.267
221.628
222.002
222.384
222.758
223.108
223.429
223.721
223.99
224.241
224.477
224.701
224.913
225.114
225.305
225.486
225.659
225.822
225.979
226.129
226.275
226.417
226.554
226.686
226.811
226.93
227.046
227.162
227.275
227.384
227.49
227.592
227.693
227.796
227.898
227.995
228.092
228.188
228.283
228.377
228.47
228.562
228.653
228.745
228.839
228.937
229.038
229.141
229.247
229.351
229.452
229.547
229.637
229.719
229.796
229.869
229.939
230.008
230.077
230.148
230.219
230.291
230.364
230.445
230.549
230.699
230.917
231.218
231.593
232.006
232.418
232.799
233.143
233.453
233.717
233.912
234.053
234.291
234.923
236.65
206.699
215.167
215.417
216.401
217.35
218.068
218.657
219.171
219.617
220.002
220.356
220.709
221.076
221.451
221.819
222.163
222.479
222.766
223.031
223.277
223.51
223.73
223.938
224.136
224.324
224.502
224.67
224.831
224.984
225.131
225.273
225.412
225.546
225.676
225.799
225.916
226.029
226.14
226.249
226.355
226.458
226.558
226.656
226.754
226.851
226.945
227.038
227.131
227.222
227.313
227.403
227.491
227.579
227.666
227.755
227.846
227.941
228.038
228.138
228.236
228.333
228.424
228.51
228.589
228.662
228.732
228.799
228.865
228.932
228.999
229.068
229.136
229.206
229.283
229.383
229.528
229.742
230.038
230.407
230.816
231.222
231.599
231.938
232.242
232.499
232.687
232.821
233.047
233.653
235.313
206.044
214.372
214.619
215.588
216.519
217.222
217.8
218.303
218.739
219.115
219.459
219.804
220.164
220.533
220.894
221.234
221.544
221.827
222.088
222.331
222.56
222.776
222.981
223.176
223.36
223.535
223.701
223.858
224.007
224.151
224.289
224.424
224.555
224.682
224.804
224.92
225.029
225.134
225.236
225.337
225.435
225.533
225.628
225.719
225.808
225.897
225.984
226.07
226.155
226.24
226.323
226.404
226.485
226.565
226.646
226.727
226.812
226.899
226.988
227.077
227.165
227.25
227.33
227.404
227.472
227.537
227.598
227.658
227.718
227.777
227.835
227.893
227.95
228.015
228.102
228.234
228.434
228.716
229.07
229.465
229.856
230.217
230.54
230.824
231.059
231.223
231.334
231.532
232.082
233.597
205.4
213.59
213.834
214.786
215.701
216.39
216.955
217.448
217.873
218.238
218.57
218.903
219.253
219.615
219.971
220.306
220.613
220.893
221.151
221.392
221.619
221.833
222.037
222.229
222.412
222.584
222.747
222.901
223.046
223.185
223.319
223.45
223.576
223.699
223.818
223.933
224.038
224.131
224.221
224.312
224.401
224.492
224.58
224.655
224.729
224.806
224.881
224.954
225.027
225.098
225.168
225.236
225.302
225.367
225.432
225.496
225.562
225.63
225.7
225.77
225.839
225.905
225.965
226.019
226.067
226.11
226.15
226.188
226.226
226.264
226.301
226.338
226.375
226.418
226.484
226.592
226.769
227.026
227.355
227.724
228.091
228.427
228.725
228.986
229.197
229.339
229.433
229.615
230.124
231.438
204.765
212.82
213.061
213.997
214.895
215.571
216.124
216.606
217.02
217.367
217.657
217.957
218.287
218.637
218.988
219.322
219.631
219.917
220.181
220.429
220.664
220.887
221.098
221.297
221.484
221.659
221.822
221.973
222.115
222.247
222.372
222.493
222.61
222.724
222.835
222.945
223.043
223.118
223.187
223.263
223.339
223.422
223.5
223.554
223.608
223.669
223.727
223.784
223.838
223.892
223.944
223.996
224.045
224.094
224.141
224.188
224.235
224.284
224.335
224.387
224.438
224.486
224.53
224.568
224.6
224.627
224.652
224.675
224.697
224.72
224.742
224.763
224.784
224.812
224.862
224.955
225.115
225.357
225.67
226.026
226.388
226.721
227.014
227.266
227.466
227.595
227.677
227.849
228.323
229.421
204.14
212.062
212.3
213.221
214.102
214.764
215.305
215.775
216.171
216.466
216.344
216.33
216.486
216.763
217.11
217.487
217.869
218.241
218.599
218.942
219.266
219.571
219.856
220.119
220.361
220.581
220.78
220.959
221.12
221.268
221.405
221.536
221.665
221.793
221.918
222.043
222.152
222.224
222.286
222.363
222.442
222.533
222.62
222.667
222.712
222.772
222.828
222.88
222.93
222.977
223.023
223.068
223.111
223.152
223.19
223.226
223.261
223.297
223.334
223.372
223.409
223.443
223.473
223.497
223.516
223.53
223.54
223.548
223.556
223.564
223.57
223.576
223.581
223.593
223.626
223.702
223.845
224.068
224.364
224.711
225.155
225.572
225.925
226.215
226.438
226.579
226.668
226.855
227.357
228.462
203.525
211.316
211.551
212.456
213.321
213.97
214.5
214.958
215.328
215.525
207.878
205.841
206.062
206.851
207.797
208.761
209.678
210.52
211.279
211.953
212.543
213.054
213.487
213.849
214.145
214.383
214.571
214.717
214.83
214.921
214.996
215.062
215.123
215.185
215.252
215.332
215.403
215.435
215.459
215.508
215.565
215.641
215.72
215.751
215.783
215.84
215.895
215.947
215.996
216.042
216.087
216.129
216.168
216.202
216.231
216.255
216.276
216.293
216.308
216.32
216.328
216.333
216.334
216.329
216.318
216.303
216.283
216.26
216.233
216.203
216.168
216.129
216.086
216.045
216.019
216.025
216.081
216.194
216.339
216.479
219.305
221.691
223.36
224.523
225.319
225.831
226.16
226.514
227.189
228.567
202.92
210.581
210.813
211.703
212.552
213.187
213.706
214.153
214.506
214.656
206.932
204.852
205.062
205.854
206.81
207.79
208.726
209.588
210.368
211.062
211.672
212.2
212.648
213.02
213.324
213.565
213.751
213.891
213.995
214.072
214.131
214.18
214.227
214.275
214.337
214.426
214.517
214.559
214.597
214.678
214.775
214.907
215.052
215.132
215.216
215.341
215.468
215.597
215.729
215.864
216.002
216.141
216.281
216.418
216.554
216.688
216.819
216.95
217.078
217.204
217.328
217.447
217.56
217.665
217.761
217.849
217.926
217.994
218.053
218.101
218.137
218.16
218.172
218.177
218.189
218.226
218.31
218.451
218.637
218.874
221.231
223.216
224.614
225.6
226.284
226.726
227.009
227.354
228.122
229.838
202.325
209.858
210.087
210.962
211.795
212.417
212.925
213.361
213.704
213.841
206.239
204.184
204.383
205.158
206.098
207.062
207.984
208.834
209.604
210.29
210.892
211.411
211.85
212.214
212.507
212.738
212.913
213.039
213.126
213.183
213.219
213.246
213.27
213.297
213.342
213.421
213.505
213.523
213.53
213.591
213.669
213.787
213.924
213.975
214.026
214.131
214.238
214.348
214.462
214.581
214.705
214.832
214.96
215.089
215.22
215.353
215.49
215.631
215.776
215.927
216.083
216.245
216.411
216.58
216.753
216.929
217.109
217.292
217.479
217.667
217.855
218.042
218.227
218.414
218.615
218.848
219.133
219.482
219.883
220.354
222.597
224.435
225.717
226.626
227.269
227.702
228
228.386
229.245
231.273
201.739
209.146
209.372
210.232
211.049
211.659
212.155
212.582
212.916
213.046
205.569
203.545
203.738
204.499
205.422
206.37
207.277
208.114
208.872
209.548
210.141
210.651
211.083
211.439
211.726
211.952
212.124
212.249
212.332
212.382
212.408
212.422
212.435
212.453
212.491
212.573
212.663
212.67
212.66
212.712
212.782
212.899
213.041
213.075
213.105
213.2
213.298
213.398
213.503
213.612
213.72
213.826
213.929
214.031
214.132
214.233
214.333
214.432
214.532
214.632
214.735
214.839
214.945
215.053
215.16
215.268
215.377
215.486
215.596
215.707
215.821
215.934
216.048
216.169
216.308
216.486
216.721
217.026
217.391
217.834
220.03
221.795
222.978
223.785
224.348
224.733
225.026
225.432
226.27
228.061
201.163
208.446
208.668
209.513
210.315
210.912
211.397
211.814
212.14
212.265
204.915
202.923
203.111
203.858
204.766
205.698
206.589
207.412
208.158
208.822
209.405
209.908
210.331
210.68
210.961
211.183
211.354
211.481
211.566
211.614
211.634
211.638
211.64
211.649
211.683
211.769
211.87
211.872
211.848
211.898
211.964
212.085
212.239
212.265
212.28
212.376
212.475
212.581
212.693
212.805
212.913
213.015
213.113
213.211
213.309
213.407
213.504
213.6
213.694
213.788
213.88
213.97
214.058
214.143
214.226
214.306
214.384
214.46
214.533
214.603
214.668
214.728
214.783
214.839
214.907
215.006
215.154
215.362
215.615
215.872
217.959
219.611
220.709
221.462
221.984
222.332
222.582
222.936
223.706
225.331
200.595
207.755
207.975
208.805
209.592
210.175
210.65
211.057
211.375
211.496
204.27
202.311
202.495
203.229
204.121
205.037
205.914
206.723
207.456
208.109
208.683
209.177
209.592
209.933
210.207
210.424
210.594
210.724
210.816
210.869
210.888
210.884
210.874
210.873
210.9
210.99
211.102
211.099
211.06
211.108
211.174
211.302
211.476
211.499
211.506
211.606
211.715
211.834
211.959
212.079
212.187
212.287
212.383
212.482
212.585
212.688
212.789
212.889
212.986
213.083
213.179
213.275
213.37
213.463
213.555
213.644
213.73
213.813
213.894
213.975
214.051
214.119
214.18
214.24
214.311
214.413
214.564
214.774
215.028
215.283
217.301
218.895
219.956
220.683
221.187
221.521
221.759
222.095
222.842
224.434
200.036
207.076
207.292
208.108
208.879
209.45
209.913
210.311
210.621
210.738
203.634
201.708
201.889
202.611
203.488
204.39
205.251
206.047
206.766
207.409
207.972
208.458
208.865
209.198
209.464
209.674
209.84
209.973
210.073
210.137
210.161
210.153
210.133
210.12
210.139
210.226
210.343
210.333
210.274
210.318
210.386
210.524
210.727
210.756
210.762
210.873
211
211.14
211.281
211.408
211.516
211.614
211.713
211.819
211.931
212.045
212.156
212.265
212.372
212.479
212.585
212.691
212.796
212.901
213.005
213.106
213.206
213.304
213.401
213.497
213.59
213.679
213.765
213.854
213.957
214.095
214.286
214.544
214.861
215.222
217.238
218.842
219.932
220.699
221.244
221.605
221.847
222.171
222.889
224.492
199.487
206.407
206.62
207.422
208.178
208.736
209.189
209.577
209.879
209.994
203.013
201.122
201.301
202.012
202.875
203.76
204.606
205.386
206.091
206.719
207.271
207.745
208.142
208.465
208.719
208.916
209.073
209.203
209.308
209.383
209.417
209.409
209.379
209.349
209.35
209.423
209.531
209.506
209.418
209.453
209.521
209.668
209.903
209.947
209.964
210.096
210.249
210.414
210.57
210.699
210.802
210.896
210.998
211.113
211.235
211.358
211.478
211.596
211.713
211.83
211.949
212.068
212.188
212.309
212.429
212.549
212.669
212.789
212.909
213.029
213.149
213.266
213.383
213.505
213.644
213.82
214.053
214.356
214.722
215.159
217.223
218.88
220.013
220.809
221.374
221.759
222.035
222.398
223.172
224.917
198.947
205.75
205.96
206.748
207.489
208.034
208.476
208.855
209.151
209.268
202.416
200.565
200.747
201.448
202.297
203.166
203.993
204.751
205.432
206.033
206.555
206.998
207.362
207.649
207.866
208.025
208.145
208.244
208.331
208.399
208.431
208.416
208.367
208.307
208.272
208.308
208.389
208.343
208.232
208.253
208.317
208.469
208.728
208.804
208.857
209.036
209.241
209.449
209.631
209.771
209.879
209.979
210.089
210.211
210.336
210.457
210.573
210.685
210.797
210.909
211.022
211.136
211.252
211.368
211.485
211.6
211.715
211.827
211.937
212.044
212.146
212.241
212.331
212.419
212.518
212.646
212.823
213.06
213.351
213.699
215.791
217.507
218.696
219.534
220.124
220.517
220.782
221.11
221.826
223.44
198.416
205.104
205.31
206.084
206.811
207.344
207.775
208.146
208.442
208.589
202.007
200.247
200.434
201.113
201.922
202.736
203.49
204.157
204.73
205.211
205.604
205.917
206.156
206.328
206.442
206.512
206.556
206.597
206.645
206.696
206.727
206.714
206.661
206.584
206.519
206.526
206.593
206.555
206.468
206.484
206.543
206.676
206.915
207.017
207.118
207.369
207.656
207.942
208.193
208.397
208.571
208.743
208.921
209.098
209.257
209.39
209.499
209.588
209.66
209.72
209.769
209.811
209.848
209.882
209.915
209.945
209.975
210.003
210.028
210.051
210.069
210.082
210.09
210.097
210.115
210.163
210.261
210.418
210.628
210.868
213.196
215.128
216.47
217.408
218.058
218.481
218.753
219.067
219.722
221.104
197.893
204.467
204.67
205.431
206.142
206.663
207.084
207.447
207.749
207.967
207.916
208.007
208.24
208.54
208.858
209.166
209.449
209.703
209.935
210.152
210.362
210.566
210.76
210.936
211.085
211.207
211.317
211.437
211.583
211.753
211.918
212.033
212.081
212.073
212.061
212.142
212.33
212.423
212.489
212.568
212.621
212.667
212.745
212.701
212.645
212.778
212.94
213.07
213.133
213.141
213.141
213.169
213.233
213.315
213.394
213.464
213.524
213.58
213.631
213.68
213.728
213.774
213.818
213.862
213.904
213.944
213.982
214.017
214.051
214.083
214.114
214.142
214.17
214.204
214.256
214.35
214.508
214.743
215.049
215.404
215.841
216.247
216.593
216.883
217.108
217.253
217.342
217.522
218.03
219.164
197.376
203.837
204.038
204.784
205.481
205.99
206.4
206.756
207.057
207.305
207.519
207.751
208.018
208.308
208.601
208.876
209.122
209.339
209.533
209.717
209.898
210.083
210.266
210.438
210.588
210.71
210.814
210.921
211.057
211.23
211.416
211.566
211.645
211.653
211.652
211.773
212.062
212.276
212.528
212.667
212.705
212.649
212.52
212.371
212.225
212.329
212.477
212.574
212.592
212.562
212.542
212.568
212.635
212.716
212.792
212.857
212.916
212.971
213.026
213.079
213.13
213.179
213.225
213.269
213.31
213.348
213.382
213.412
213.441
213.468
213.493
213.517
213.54
213.57
213.619
213.71
213.866
214.102
214.41
214.76
215.117
215.449
215.744
216
216.203
216.333
216.411
216.575
217.051
218.138
196.864
203.212
203.41
204.143
204.826
205.322
205.722
206.069
206.364
206.613
206.84
207.081
207.348
207.634
207.92
208.189
208.43
208.64
208.827
209.001
209.173
209.351
209.532
209.709
209.867
209.997
210.101
210.198
210.317
210.478
210.667
210.836
210.939
210.968
211.005
211.219
211.668
212.023
212.471
212.683
212.687
212.502
212.138
211.851
211.568
211.615
211.746
211.828
211.829
211.798
211.8
211.857
211.95
212.048
212.135
212.21
212.281
212.35
212.418
212.483
212.546
212.606
212.664
212.718
212.77
212.818
212.862
212.903
212.942
212.978
213.013
213.045
213.078
213.116
213.175
213.276
213.444
213.69
214.007
214.362
214.718
215.047
215.339
215.594
215.797
215.928
216.005
216.168
216.655
217.846
196.355
202.592
202.787
203.506
204.175
204.66
205.049
205.387
205.675
205.918
206.144
206.382
206.645
206.926
207.209
207.475
207.714
207.923
208.106
208.275
208.439
208.609
208.785
208.964
209.131
209.273
209.386
209.48
209.584
209.725
209.902
210.073
210.184
210.235
210.338
210.689
211.336
211.818
212.461
212.749
212.677
212.315
211.694
211.264
210.818
210.773
210.866
210.923
210.91
210.884
210.905
210.981
211.081
211.174
211.255
211.329
211.402
211.476
211.549
211.621
211.69
211.757
211.822
211.884
211.944
212.001
212.054
212.104
212.152
212.198
212.241
212.282
212.323
212.371
212.439
212.549
212.725
212.98
213.306
213.673
214.041
214.383
214.688
214.955
215.168
215.305
215.385
215.544
216.024
217.234
195.851
201.977
202.169
202.875
203.53
204.002
204.382
204.711
204.991
205.228
205.448
205.68
205.938
206.215
206.494
206.757
206.995
207.204
207.387
207.553
207.712
207.873
208.043
208.219
208.393
208.55
208.68
208.784
208.885
209.011
209.171
209.33
209.436
209.498
209.666
210.158
210.983
211.547
212.305
212.66
212.447
211.81
210.96
210.418
209.818
209.667
209.703
209.723
209.688
209.657
209.676
209.736
209.803
209.857
209.902
209.948
209.999
210.054
210.11
210.167
210.225
210.285
210.346
210.409
210.472
210.535
210.598
210.659
210.719
210.778
210.835
210.89
210.942
211.001
211.082
211.204
211.389
211.647
211.97
212.328
212.683
213.009
213.297
213.543
213.732
213.839
213.884
214.002
214.428
215.492
195.353
201.369
201.558
202.252
202.892
203.354
203.723
204.044
204.315
204.545
204.76
204.987
205.24
205.512
205.786
206.047
206.284
206.494
206.679
206.845
207
207.155
207.316
207.485
207.659
207.825
207.972
208.097
208.211
208.338
208.491
208.637
208.73
208.789
208.987
209.558
210.485
211.065
212.331
212.752
212.261
211.156
209.515
208.767
208.003
207.718
207.646
207.573
207.463
207.378
207.342
207.335
207.333
207.336
207.352
207.39
207.448
207.519
207.601
207.691
207.788
207.892
208.001
208.112
208.224
208.335
208.445
208.551
208.652
208.746
208.835
208.92
209
209.078
209.167
209.289
209.468
209.72
210.033
210.379
210.718
211.025
211.29
211.51
211.67
211.747
211.759
211.843
212.21
213.099
194.867
200.776
200.963
201.643
202.27
202.72
203.08
203.392
203.656
203.88
204.088
204.31
204.558
204.825
205.095
205.353
205.588
205.8
205.987
206.155
206.31
206.461
206.614
206.771
206.934
207.095
207.244
207.392
207.532
207.681
207.851
207.997
208.09
208.144
208.325
208.887
209.84
210.382
210.63
210.575
209.449
207.597
206.269
205.411
204.508
204.172
204.081
204.022
203.963
203.945
203.982
204.054
204.145
204.257
204.396
204.558
204.732
204.909
205.085
205.26
205.434
205.607
205.775
205.937
206.093
206.241
206.381
206.512
206.634
206.745
206.843
206.926
206.999
207.071
207.156
207.273
207.445
207.682
207.975
208.296
208.61
208.894
209.139
209.343
209.488
209.553
209.558
209.634
209.981
210.768
194.406
200.213
200.397
201.065
201.68
202.119
202.469
202.773
203.03
203.247
203.45
203.667
203.91
204.174
204.44
204.694
204.928
205.139
205.33
205.502
205.659
205.809
205.955
206.098
206.24
206.381
206.512
206.67
206.837
207.019
207.224
207.39
207.512
207.589
207.752
208.259
209.23
209.67
212.663
211.471
209.083
206.661
201.986
200.94
200.382
200.416
200.642
200.887
201.119
201.354
201.594
201.83
202.067
202.314
202.568
202.819
203.056
203.275
203.478
203.669
203.849
204.018
204.178
204.326
204.465
204.593
204.707
204.808
204.896
204.973
205.039
205.096
205.146
205.194
205.256
205.351
205.501
205.719
205.999
206.314
206.63
206.923
207.184
207.406
207.573
207.662
207.691
207.786
208.134
208.87
193.989
199.704
199.886
200.543
201.146
201.575
201.917
202.213
202.464
202.674
202.872
203.084
203.324
203.584
203.846
204.097
204.33
204.542
204.735
204.911
205.073
205.224
205.365
205.495
205.613
205.736
205.851
206.002
206.179
206.379
206.606
206.8
206.979
207.144
207.366
207.85
208.858
209.083
204.505
201.24
199.044
197.413
197.865
197.973
197.88
198.358
198.9
199.409
199.863
200.261
200.604
200.91
201.198
201.479
201.746
201.985
202.192
202.371
202.526
202.66
202.777
202.884
202.981
203.067
203.147
203.22
203.288
203.35
203.406
203.458
203.504
203.546
203.584
203.625
203.683
203.778
203.93
204.151
204.436
204.758
205.084
205.39
205.667
205.907
206.093
206.201
206.25
206.36
206.711
207.419
193.641
199.279
199.458
200.107
200.7
201.121
201.457
201.747
201.992
202.197
202.39
202.598
202.835
203.091
203.351
203.6
203.83
204.042
204.237
204.418
204.585
204.738
204.877
205.001
205.115
205.25
205.393
205.536
205.701
205.877
206.061
206.262
206.515
206.84
207.234
207.741
208.752
208.842
189.608
185.42
184.179
183.122
195.781
197.498
197.282
197.71
198.17
198.66
199.151
199.594
199.979
200.324
200.652
200.96
201.23
201.451
201.627
201.765
201.877
201.971
202.05
202.117
202.174
202.221
202.261
202.297
202.329
202.359
202.388
202.415
202.44
202.464
202.488
202.517
202.566
202.653
202.801
203.021
203.307
203.631
203.962
204.276
204.562
204.812
205.01
205.131
205.192
205.311
205.663
206.353
193.382
198.963
199.141
199.783
200.37
200.786
201.117
201.404
201.646
201.849
202.039
202.246
202.48
202.734
202.992
203.238
203.466
203.676
203.872
204.056
204.226
204.38
204.522
204.662
204.815
205.016
205.272
205.433
205.578
205.682
205.726
205.891
206.209
206.742
207.399
207.966
208.927
208.844
177.977
173.181
172.775
172.184
194.717
197.731
197.342
197.595
197.83
198.186
198.636
199.083
199.491
199.875
200.246
200.592
200.896
201.149
201.354
201.519
201.653
201.759
201.838
201.895
201.93
201.945
201.946
201.938
201.926
201.912
201.9
201.89
201.883
201.879
201.878
201.888
201.921
201.995
202.132
202.343
202.621
202.94
203.267
203.578
203.863
204.114
204.313
204.437
204.501
204.622
204.972
205.649
193.222
198.767
198.944
199.582
200.165
200.579
200.909
201.195
201.437
201.642
201.833
202.041
202.277
202.533
202.792
203.039
203.266
203.475
203.671
203.854
204.023
204.176
204.332
204.526
204.783
205.104
205.546
205.764
205.892
205.894
205.718
205.794
206.129
206.861
207.776
208.382
209.286
209.1
173.525
168.465
168.443
168.177
195.133
198.645
198.056
198.077
198.003
198.136
198.47
198.869
199.263
199.654
200.052
200.444
200.808
201.13
201.407
201.643
201.852
202.016
202.135
202.214
202.252
202.251
202.219
202.166
202.101
202.032
201.964
201.901
201.844
201.793
201.752
201.725
201.725
201.772
201.885
202.076
202.337
202.642
202.958
203.261
203.539
203.785
203.98
204.1
204.162
204.281
204.628
205.298
193.154
198.682
198.858
199.493
200.074
200.486
200.815
201.101
201.345
201.551
201.747
201.959
202.2
202.462
202.727
202.98
203.212
203.426
203.624
203.808
203.974
204.129
204.325
204.628
205.062
205.528
206.168
206.463
206.561
206.439
206.019
205.949
206.437
207.289
208.328
208.844
209.758
209.868
173.458
168.373
168.549
168.562
200.741
203.98
202.175
201.252
200.327
199.834
199.755
199.888
200.109
200.388
200.718
201.073
201.422
201.749
202.047
202.33
202.401
202.596
202.769
202.905
203
203.042
203.03
202.965
202.864
202.741
202.609
202.478
202.351
202.233
202.128
202.042
201.989
201.989
202.061
202.217
202.447
202.726
203.02
203.302
203.563
203.793
203.975
204.084
204.136
204.247
204.588
205.258
193.153
198.68
198.855
199.489
200.067
200.477
200.804
201.088
201.33
201.535
201.731
201.945
202.189
202.456
202.728
202.988
203.229
203.453
203.66
203.848
204.013
204.182
204.45
204.921
205.59
206.2
207.03
207.404
207.426
207.123
206.434
206.181
206.471
207.196
208.076
208.34
209.508
209.818
174.245
169.234
169.503
169.786
204.666
208.561
206.375
205.235
203.985
203.168
202.779
202.612
202.54
202.536
202.593
202.685
202.789
202.898
203.016
203.165
203.151
203.3
203.456
203.597
203.714
203.798
203.843
203.85
203.819
203.753
203.655
203.53
203.38
203.214
203.042
202.878
202.746
202.674
202.682
202.781
202.964
203.2
203.456
203.704
203.934
204.137
204.293
204.38
204.413
204.507
204.84
205.512
193.189
198.724
198.898
199.532
200.11
200.518
200.842
201.123
201.361
201.562
201.753
201.963
202.203
202.468
202.738
203
203.245
203.475
203.689
203.879
204.042
204.229
204.586
205.24
206.145
206.872
207.811
208.271
208.162
207.58
206.646
206.17
206.101
206.405
206.796
206.922
209.078
209.603
173.06
167.744
168.076
168.741
205.802
210.231
206.94
205.624
204.507
203.843
203.554
203.412
203.25
203.057
202.889
202.796
202.803
202.918
203.129
203.418
203.536
203.78
203.973
204.102
204.176
204.21
204.216
204.203
204.175
204.134
204.078
204.006
203.919
203.818
203.708
203.602
203.517
203.477
203.504
203.61
203.787
204.01
204.242
204.46
204.654
204.818
204.936
204.986
204.986
205.052
205.368
206.045
193.231
198.775
198.95
199.585
200.165
200.574
200.899
201.18
201.416
201.615
201.803
202.008
202.244
202.503
202.768
203.024
203.265
203.493
203.705
203.89
204.046
204.24
204.652
205.42
206.472
207.253
208.714
209.312
209.009
208.002
206.279
205.487
205.033
204.863
204.699
204.938
208.475
208.995
176.908
171.998
172.252
173.194
208.496
214.144
209.614
207.726
206.013
204.516
203.577
203.961
204.154
203.802
203.174
202.942
202.978
203.125
203.357
203.613
203.631
203.784
203.906
203.993
204.056
204.095
204.118
204.13
204.132
204.124
204.103
204.068
204.018
203.956
203.885
203.817
203.769
203.763
203.824
203.963
204.174
204.429
204.692
204.938
205.158
205.343
205.478
205.539
205.542
205.61
205.926
206.623
193.259
198.809
198.985
199.622
200.203
200.615
200.942
201.226
201.465
201.666
201.856
202.062
202.299
202.557
202.822
203.076
203.316
203.542
203.752
203.936
204.091
204.285
204.694
205.461
206.528
207.316
207.927
208.311
207.635
206.011
204.598
203.673
203.063
202.855
202.643
201.777
202.941
208.479
205.776
204.436
203.997
203.979
204.035
203.997
203.872
203.759
203.692
203.677
203.751
203.861
203.733
203.784
203.834
203.879
203.926
203.953
203.976
203.998
204.018
204.035
204.045
204.044
204.03
204.002
203.964
203.924
203.899
203.911
203.984
204.132
204.348
204.604
204.866
205.109
205.325
205.506
205.638
205.696
205.7
205.769
206.091
206.786
193.266
198.818
198.993
199.63
200.212
200.625
200.954
201.238
201.48
201.683
201.876
202.085
202.325
202.587
202.854
203.112
203.355
203.584
203.799
203.993
204.163
204.358
204.719
205.388
206.381
207.128
211.11
211.061
209.449
207.252
202.118
200.983
200.891
201.408
202.301
202.034
202.446
208.9
206.616
205.355
204.787
204.477
204.261
204.063
203.84
203.646
203.507
203.448
203.474
203.532
203.355
203.376
203.41
203.454
203.518
203.557
203.594
203.627
203.658
203.691
203.721
203.744
203.758
203.762
203.757
203.75
203.756
203.797
203.897
204.068
204.303
204.575
204.849
205.102
205.322
205.506
205.637
205.692
205.692
205.755
206.07
206.716
193.256
198.805
198.98
199.616
200.197
200.609
200.937
201.221
201.462
201.666
201.859
202.069
202.309
202.572
202.841
203.101
203.345
203.576
203.796
204.004
204.195
204.392
204.682
205.195
206.023
206.57
204.053
201.906
200.129
198.564
198.561
198.697
199.332
200.58
202.259
202.64
202.441
208.919
206.676
205.415
204.763
204.284
203.905
203.612
203.394
203.252
203.176
203.177
203.214
203.262
203.089
203.111
203.153
203.207
203.286
203.34
203.391
203.429
203.461
203.491
203.519
203.542
203.557
203.565
203.566
203.568
203.585
203.638
203.752
203.938
204.19
204.479
204.771
205.04
205.275
205.472
205.613
205.676
205.68
205.744
206.052
206.661
193.238
198.782
198.957
199.592
200.172
200.583
200.909
201.192
201.432
201.635
201.827
202.036
202.276
202.539
202.809
203.069
203.314
203.546
203.768
203.985
204.194
204.397
204.623
204.954
205.5
205.783
188.404
184.916
183.924
182.941
196.009
198.006
198.759
200.166
202.159
203.012
202.463
208.839
206.588
205.303
204.589
204.086
203.697
203.425
203.248
203.161
203.166
203.213
203.264
203.345
203.23
203.266
203.314
203.353
203.395
203.445
203.495
203.53
203.551
203.563
203.57
203.571
203.567
203.558
203.544
203.533
203.541
203.589
203.699
203.886
204.14
204.434
204.731
205.006
205.248
205.452
205.601
205.672
205.683
205.754
206.06
206.653
193.22
198.761
198.936
199.57
200.15
200.559
200.885
201.166
201.405
201.607
201.797
202.006
202.245
202.507
202.776
203.036
203.281
203.511
203.734
203.953
204.173
204.388
204.59
204.789
205.002
204.774
174.989
170.501
170.283
169.901
193.979
197.598
198.317
199.577
201.526
202.599
202.46
208.829
206.585
205.388
204.751
204.275
203.891
203.642
203.488
203.444
203.488
203.561
203.663
203.829
203.851
203.928
203.978
203.972
203.899
203.906
203.927
203.949
203.959
203.951
203.93
203.9
203.863
203.817
203.768
203.724
203.701
203.724
203.814
203.986
204.229
204.517
204.811
205.087
205.332
205.541
205.694
205.77
205.785
205.858
206.164
206.756
193.21
198.749
198.924
199.559
200.138
200.548
200.874
201.155
201.394
201.595
201.784
201.991
202.229
202.49
202.756
203.014
203.256
203.483
203.702
203.918
204.136
204.356
204.566
204.731
204.72
203.955
168.444
163.426
163.629
163.793
193.253
197.701
198.245
199.087
200.597
201.52
202.613
209.147
206.922
205.909
205.312
204.829
204.421
204.15
204.017
203.965