/*--------------------------------*- C++ -*----------------------------------*\
| =========                 |                                                 |
| \\      /  F ield         | OpenFOAM: The Open Source CFD Toolbox           |
|  \\    /   O peration     | Version:  v2012                                 |
|   \\  /    A nd           | Website:  www.openfoam.com                      |
|    \\/     M anipulation  |                                                 |
\*---------------------------------------------------------------------------*/
FoamFile
{
    version     2.0;
    format      ascii;
    class       volScalarField;
    location    "250/air";
    object      k;
}
// * * * * * * * * * * * * * * * * * * * * * * * * * * * * * * * * * * * * * //

dimensions      [0 2 -2 0 0 0 0];


internalField   nonuniform List<scalar> 
287104
(
0.0833974
0.071696
0.063298
0.0569775
0.0520642
0.0481503
0.0449705
0.0423447
0.040146
0.0382829
0.0366877
0.0353096
0.0341093
0.0330565
0.0321271
0.0313017
0.0305649
0.0299037
0.0293078
0.0287684
0.0282782
0.0278311
0.0274218
0.027046
0.0266998
0.0263799
0.0260834
0.0258079
0.0255513
0.0253115
0.0250868
0.0248758
0.0246771
0.0244895
0.0243118
0.0241431
0.0239823
0.0238288
0.0236817
0.0235403
0.0234039
0.0232721
0.0231441
0.0230197
0.0228982
0.0227793
0.0226627
0.022548
0.022435
0.0223233
0.0222128
0.0221033
0.0219945
0.0218864
0.0217787
0.0216714
0.0215642
0.0214571
0.0213497
0.0212421
0.0211339
0.021025
0.0209152
0.0208042
0.020692
0.0205781
0.0204625
0.020345
0.0202253
0.0201034
0.0199791
0.0198524
0.0197232
0.0195915
0.0194575
0.0193214
0.0191833
0.0190437
0.0189027
0.0187608
0.0186183
0.0184752
0.0183317
0.0181877
0.0180427
0.0178949
0.0177423
0.017575
0.0173969
0.0170646
0.083394
0.0716897
0.0632891
0.0569668
0.0520521
0.048137
0.0449564
0.0423298
0.0401305
0.038267
0.0366716
0.0352933
0.034093
0.0330403
0.0321111
0.031286
0.0305495
0.0298887
0.0292932
0.0287542
0.0282645
0.0278178
0.0274091
0.0270337
0.026688
0.0263687
0.0260729
0.0257981
0.0255422
0.0253033
0.0250795
0.0248695
0.0246719
0.0244855
0.0243091
0.0241417
0.0239825
0.0238305
0.023685
0.0235452
0.0234105
0.0232804
0.0231541
0.0230313
0.0229115
0.0227942
0.0226791
0.0225658
0.022454
0.0223435
0.022234
0.0221253
0.0220173
0.0219096
0.0218023
0.021695
0.0215877
0.0214803
0.0213724
0.021264
0.0211549
0.0210449
0.0209338
0.0208214
0.0207074
0.0205918
0.0204743
0.0203547
0.0202329
0.0201088
0.0199823
0.0198533
0.019722
0.0195882
0.0194523
0.0193144
0.0191747
0.0190337
0.0188916
0.0187489
0.0186057
0.0184625
0.0183193
0.018176
0.0180321
0.017886
0.0177357
0.0175715
0.0173972
0.017073
0.0833928
0.0716868
0.0632853
0.056962
0.0520465
0.0481308
0.0449494
0.0423223
0.0401225
0.0382586
0.0366629
0.0352844
0.0340841
0.0330315
0.0321024
0.0312775
0.0305412
0.0298807
0.0292855
0.0287468
0.0282574
0.0278111
0.0274027
0.0270278
0.0266825
0.0263637
0.0260684
0.0257942
0.025539
0.0253008
0.0250779
0.0248689
0.0246723
0.024487
0.0243118
0.0241457
0.0239878
0.0238373
0.0236934
0.0235552
0.0234223
0.0232938
0.0231694
0.0230484
0.0229303
0.0228148
0.0227015
0.02259
0.02248
0.0223712
0.0222635
0.0221565
0.0220501
0.0219441
0.0218383
0.0217327
0.0216269
0.021521
0.0214147
0.0213078
0.0212002
0.0210916
0.020982
0.020871
0.0207586
0.0206445
0.0205285
0.0204106
0.0202905
0.0201682
0.0200436
0.0199167
0.0197876
0.0196562
0.0195229
0.0193879
0.0192514
0.0191138
0.0189755
0.0188368
0.0186982
0.0185598
0.0184219
0.0182844
0.0181469
0.018008
0.0178657
0.0177109
0.0175473
0.0172417
0.0833913
0.0716839
0.0632808
0.0569562
0.0520394
0.0481224
0.04494
0.0423118
0.0401111
0.0382464
0.0366501
0.0352713
0.0340709
0.0330182
0.0320892
0.0312644
0.0305283
0.0298679
0.0292729
0.0287343
0.0282451
0.0277989
0.0273906
0.0270159
0.0266708
0.0263523
0.0260573
0.0257836
0.0255288
0.0252912
0.025069
0.0248608
0.0246652
0.0244809
0.0243069
0.0241421
0.0239857
0.0238367
0.0236943
0.0235578
0.0234266
0.0232999
0.0231772
0.0230579
0.0229416
0.0228278
0.022716
0.0226061
0.0224975
0.0223901
0.0222835
0.0221777
0.0220722
0.0219671
0.0218621
0.0217571
0.0216519
0.0215463
0.0214403
0.0213336
0.0212261
0.0211176
0.0210079
0.0208968
0.0207841
0.0206697
0.0205535
0.0204351
0.0203146
0.0201919
0.0200669
0.0199395
0.01981
0.0196782
0.0195445
0.019409
0.0192721
0.0191341
0.0189955
0.0188564
0.0187174
0.0185786
0.0184403
0.0183026
0.0181652
0.0180267
0.0178853
0.0177321
0.0175708
0.0172713
0.0833902
0.0716813
0.063277
0.0569512
0.0520333
0.0481152
0.0449317
0.0423025
0.0401008
0.0382352
0.0366383
0.0352591
0.0340585
0.0330059
0.032077
0.0312524
0.0305165
0.0298564
0.0292615
0.0287232
0.0282341
0.0277881
0.0273801
0.0270055
0.0266608
0.0263425
0.0260479
0.0257746
0.0255204
0.0252834
0.025062
0.0248547
0.0246602
0.0244771
0.0243044
0.0241411
0.0239863
0.023839
0.0236984
0.0235638
0.0234345
0.0233098
0.023189
0.0230717
0.0229574
0.0228455
0.0227356
0.0226274
0.0225205
0.0224146
0.0223095
0.022205
0.0221009
0.0219969
0.0218929
0.0217888
0.0216844
0.0215796
0.0214742
0.021368
0.021261
0.0211528
0.0210433
0.0209324
0.0208198
0.0207054
0.0205891
0.0204706
0.0203498
0.0202268
0.0201014
0.0199735
0.0198434
0.019711
0.0195765
0.0194402
0.0193024
0.0191634
0.0190235
0.018883
0.0187424
0.0186018
0.0184616
0.0183219
0.0181825
0.0180422
0.0178995
0.0177459
0.0175849
0.0172889
0.0833889
0.0716786
0.0632729
0.0569457
0.0520264
0.048107
0.0449221
0.0422914
0.0400885
0.0382219
0.0366244
0.035245
0.0340446
0.0329923
0.0320638
0.0312396
0.0305039
0.029844
0.0292493
0.0287111
0.028222
0.027776
0.027368
0.0269935
0.0266488
0.0263307
0.0260364
0.0257635
0.0255099
0.0252737
0.0250533
0.0248472
0.024654
0.0244725
0.0243017
0.0241404
0.0239878
0.0238429
0.0237049
0.023573
0.0234465
0.0233246
0.0232069
0.0230925
0.0229811
0.0228721
0.0227651
0.0226597
0.0225556
0.0224523
0.0223498
0.0222477
0.0221458
0.022044
0.0219422
0.02184
0.0217375
0.0216344
0.0215306
0.021426
0.0213203
0.0212134
0.0211052
0.0209954
0.0208838
0.0207703
0.0206548
0.0205371
0.0204171
0.0202947
0.0201699
0.0200427
0.0199132
0.0197815
0.0196477
0.0195122
0.0193752
0.0192371
0.0190983
0.018959
0.0188197
0.0186808
0.0185427
0.0184058
0.0182702
0.0181351
0.0179992
0.0178548
0.0177047
0.0174272
0.0833877
0.071676
0.0632689
0.0569403
0.0520195
0.0480984
0.0449117
0.0422791
0.040074
0.0382054
0.0366063
0.0352262
0.0340256
0.0329735
0.0320454
0.0312216
0.0304864
0.0298269
0.0292325
0.0286944
0.0282055
0.0277597
0.0273518
0.0269775
0.0266331
0.0263154
0.0260217
0.0257496
0.025497
0.0252621
0.0250432
0.024839
0.024648
0.0244691
0.0243012
0.0241431
0.023994
0.023853
0.0237191
0.0235916
0.0234696
0.0233524
0.0232395
0.02313
0.0230235
0.0229195
0.0228172
0.0227163
0.0226164
0.0225175
0.0224191
0.0223212
0.0222235
0.0221258
0.022028
0.0219299
0.0218314
0.0217322
0.0216324
0.0215316
0.0214298
0.0213268
0.0212226
0.0211168
0.0210095
0.0209006
0.0207899
0.0206774
0.0205632
0.0204471
0.0203291
0.0202092
0.0200876
0.0199645
0.01984
0.0197145
0.0195884
0.019462
0.0193358
0.01921
0.0190849
0.018961
0.0188389
0.0187194
0.0186026
0.018488
0.0183745
0.0182557
0.0181336
0.017902
0.0833865
0.0716733
0.0632648
0.0569346
0.0520122
0.0480892
0.0449004
0.0422656
0.0400582
0.0381876
0.0365878
0.0352083
0.0340089
0.0329579
0.0320307
0.0312074
0.0304723
0.0298123
0.0292171
0.0286779
0.0281877
0.0277405
0.0273311
0.0269555
0.02661
0.0262915
0.0259974
0.0257253
0.0254733
0.0252395
0.0250224
0.0248204
0.0246323
0.0244568
0.0242923
0.024138
0.023993
0.0238563
0.0237269
0.0236041
0.023487
0.0233746
0.0232664
0.0231614
0.0230593
0.0229594
0.0228612
0.0227644
0.0226686
0.0225735
0.0224789
0.0223845
0.0222903
0.0221961
0.0221017
0.022007
0.0219119
0.0218162
0.0217199
0.0216227
0.0215246
0.0214254
0.0213249
0.021223
0.0211197
0.0210147
0.0209079
0.0207994
0.0206891
0.0205769
0.0204631
0.0203476
0.0202307
0.0201127
0.0199937
0.0198742
0.0197546
0.0196353
0.0195165
0.0193985
0.0192811
0.0191649
0.0190509
0.0189398
0.0188321
0.0187278
0.0186273
0.0185277
0.0184402
0.0182879
0.0833853
0.0716707
0.0632606
0.0569287
0.0520042
0.0480786
0.0448864
0.0422471
0.0400333
0.0381551
0.0365594
0.0351962
0.034018
0.0329869
0.032074
0.031258
0.0305229
0.0298567
0.0292504
0.0286966
0.0281898
0.0277252
0.0272987
0.0269071
0.0265472
0.0262164
0.025912
0.025632
0.0253741
0.0251365
0.0249172
0.0247147
0.0245272
0.0243533
0.0241919
0.0240417
0.0239015
0.0237701
0.0236462
0.0235287
0.0234162
0.0233079
0.023203
0.0231006
0.0230004
0.0229018
0.0228047
0.0227089
0.0226142
0.0225203
0.0224272
0.0223344
0.0222419
0.0221496
0.0220571
0.0219644
0.0218713
0.0217777
0.0216833
0.0215881
0.0214918
0.0213944
0.0212955
0.0211951
0.0210931
0.0209893
0.0208836
0.0207761
0.0206667
0.0205554
0.0204425
0.0203281
0.0202124
0.0200958
0.0199787
0.0198615
0.0197448
0.019629
0.0195145
0.0194006
0.0192866
0.0191741
0.0190648
0.0189598
0.0188595
0.018764
0.0186738
0.0185876
0.0185169
0.0184144
0.0833842
0.071668
0.0632564
0.0569227
0.0519962
0.0480681
0.0448727
0.0422292
0.0400097
0.0381277
0.0375616
0.0372792
0.0368563
0.0362191
0.0354086
0.0344923
0.0335311
0.0325704
0.0316409
0.0307622
0.0299452
0.0291953
0.0285137
0.0278991
0.0273482
0.026857
0.0264202
0.026032
0.0256858
0.0253748
0.025092
0.0248305
0.0245833
0.0243473
0.0241505
0.0239828
0.0238366
0.023706
0.0235865
0.0234751
0.0233694
0.0232676
0.0231682
0.0230706
0.022977
0.0228883
0.0228042
0.022724
0.0226469
0.0225721
0.0224989
0.0224267
0.0223549
0.0222833
0.0222113
0.0221386
0.022065
0.0219901
0.0219138
0.0218358
0.0217559
0.0216741
0.0215901
0.0215039
0.0214154
0.0213245
0.0212312
0.0211355
0.0210374
0.0209371
0.0208348
0.0207307
0.0206253
0.0205188
0.0204118
0.0203048
0.0201986
0.0200935
0.0199905
0.0198887
0.0197142
0.0195284
0.0193519
0.0191906
0.0190453
0.0189146
0.0187968
0.018688
0.0185964
0.0184742
0.083383
0.0716654
0.0632521
0.0569164
0.0519872
0.0480552
0.0448532
0.042198
0.0399469
0.0381801
0.118692
0.142221
0.14201
0.133622
0.123376
0.113569
0.104915
0.0975431
0.0913751
0.0862776
0.0821124
0.0787527
0.0760857
0.0740105
0.0724357
0.0712774
0.0704578
0.0699055
0.0695549
0.0693481
0.0692349
0.0691742
0.0691343
0.0690915
0.0690523
0.0690295
0.0690207
0.0690195
0.0690205
0.0690206
0.0690187
0.0690167
0.0690087
0.0689953
0.0689736
0.0689466
0.0689212
0.0689051
0.068904
0.0689214
0.0689598
0.0690197
0.0691004
0.0692013
0.0693221
0.0694623
0.0696204
0.0697951
0.0699848
0.0701882
0.0704034
0.0706283
0.0708611
0.0711003
0.0713441
0.0715912
0.0718402
0.0720897
0.0723386
0.0725859
0.0728307
0.0730729
0.0733123
0.0735507
0.0737906
0.074038
0.0743076
0.0746248
0.0751482
0.0757512
0.0488666
0.0357823
0.0287236
0.024633
0.0221426
0.0205722
0.0195549
0.0188748
0.0184135
0.0180169
0.0833819
0.0716628
0.063248
0.0569107
0.0519794
0.048045
0.0448398
0.0421808
0.0399242
0.0381521
0.118686
0.142267
0.141994
0.133465
0.123043
0.113048
0.104208
0.0966586
0.090327
0.0850817
0.0807864
0.0773159
0.074559
0.0724161
0.0707967
0.069617
0.0687983
0.068267
0.0679545
0.0677993
0.067747
0.0677518
0.0677762
0.0677911
0.067775
0.0677138
0.0675985
0.0674232
0.0671852
0.0668838
0.0665202
0.0660969
0.0656265
0.0651135
0.0645633
0.0639829
0.0633795
0.0627584
0.0621243
0.0614834
0.0608432
0.060206
0.0595753
0.0589538
0.0583447
0.0577506
0.0571745
0.0566191
0.056087
0.0555809
0.0551032
0.0546569
0.0542449
0.0538703
0.053536
0.0532448
0.0529995
0.0528023
0.0526554
0.0525602
0.0525178
0.052529
0.052594
0.0527131
0.0528875
0.0531194
0.053417
0.0537921
0.0543458
0.0548916
0.0381149
0.0293583
0.0243593
0.0213201
0.0193914
0.01813
0.0172846
0.0166919
0.0162576
0.0157862
0.0833808
0.0716603
0.063244
0.056905
0.0519717
0.0480348
0.0448263
0.0421628
0.0398999
0.0381197
0.118458
0.142032
0.141812
0.133338
0.122955
0.112981
0.104147
0.0965937
0.0902527
0.0849975
0.0806958
0.0772259
0.0744795
0.0723595
0.0707773
0.0696499
0.0688984
0.0684481
0.0682291
0.0681773
0.0682361
0.0683575
0.0685024
0.0686404
0.068749
0.0688124
0.0688206
0.0687676
0.0686508
0.0684701
0.0682268
0.0679233
0.0675635
0.0671516
0.0666928
0.0661927
0.0656569
0.065091
0.0645003
0.0638885
0.0632561
0.062608
0.0619456
0.0612691
0.0605781
0.0598718
0.0591494
0.0584097
0.0576516
0.056874
0.0560759
0.0552567
0.0544163
0.0535554
0.0526751
0.0517775
0.0508653
0.0499422
0.0490138
0.0480883
0.0471714
0.04627
0.0453918
0.0445456
0.0437412
0.0429898
0.0423067
0.041703
0.0412485
0.040747
0.0287063
0.0225136
0.0190131
0.0168844
0.0155144
0.0145907
0.0139404
0.0134437
0.0130459
0.0125144
0.0833797
0.0716579
0.0632403
0.0568999
0.0519651
0.0480266
0.0448161
0.0421505
0.0398854
0.0381032
0.11838
0.141951
0.141742
0.133275
0.122893
0.112914
0.104073
0.0965105
0.0901611
0.0848989
0.0805923
0.0771203
0.074375
0.0722601
0.0706871
0.0695732
0.0688399
0.0684125
0.0682207
0.0682002
0.0682942
0.0684539
0.0686401
0.0688218
0.0689764
0.069088
0.0691459
0.0691432
0.0690761
0.0689433
0.068745
0.0684832
0.0681613
0.0677839
0.0673576
0.0668903
0.0663903
0.0658659
0.0653244
0.0647725
0.0642156
0.0636567
0.063098
0.0625412
0.0619872
0.0614358
0.0608912
0.0603513
0.0598115
0.0592673
0.0587152
0.0581522
0.0575766
0.0569873
0.0563836
0.0557661
0.0551364
0.0545
0.0538599
0.053211
0.0525528
0.0518878
0.0512198
0.050553
0.0498932
0.0492478
0.0486284
0.0480448
0.0475626
0.0470257
0.033646
0.0269965
0.0233897
0.0212635
0.0199031
0.0189559
0.0182364
0.0176299
0.0170715
0.0163504
0.0833786
0.0716556
0.0632368
0.0568952
0.0519591
0.0480191
0.0448071
0.0421398
0.0398727
0.0380882
0.118283
0.141829
0.14162
0.13316
0.122785
0.112811
0.103973
0.0964111
0.0900607
0.0847969
0.0804888
0.0770163
0.0742722
0.0721604
0.0705929
0.0694872
0.0687647
0.0683507
0.0681747
0.0681724
0.0682866
0.0684687
0.0686792
0.0688875
0.0690705
0.0692123
0.0693014
0.0693294
0.0692909
0.0691826
0.0690031
0.0687526
0.0684339
0.0680515
0.0676127
0.0671271
0.0666044
0.0660544
0.0654863
0.0649076
0.0643242
0.0637409
0.0631614
0.0625877
0.0620211
0.0614621
0.0609102
0.060365
0.0598256
0.0592927
0.0587723
0.0582616
0.0577576
0.0572579
0.0567614
0.0562683
0.0557796
0.0552974
0.0548238
0.0543627
0.0539188
0.0534947
0.0530942
0.0527224
0.052386
0.0520937
0.0518612
0.051709
0.0517299
0.0519816
0.0374055
0.0303364
0.0265199
0.0242735
0.0228462
0.0218689
0.0211414
0.0205347
0.0199255
0.0190989
0.0833776
0.0716533
0.0632335
0.0568908
0.0519538
0.0480129
0.0448
0.0421316
0.0398635
0.0380779
0.118216
0.141735
0.141513
0.133045
0.122665
0.112688
0.103847
0.0962839
0.0899327
0.0846691
0.0803623
0.0768922
0.0741519
0.0720453
0.0704844
0.0693866
0.0686732
0.0682693
0.0681043
0.0681138
0.0682407
0.0684367
0.0686625
0.0688877
0.0690898
0.0692528
0.0693646
0.0694154
0.0693976
0.0693053
0.0691339
0.0688814
0.0685492
0.0681415
0.0676671
0.0671377
0.0665657
0.0659637
0.0653428
0.0647124
0.0640796
0.0634497
0.0628265
0.0622123
0.0616078
0.0610131
0.0604275
0.0598498
0.0592788
0.0587133
0.0581525
0.0575954
0.0570417
0.0564909
0.0559429
0.0553981
0.0548576
0.0543226
0.0537951
0.0532779
0.052777
0.0523116
0.0518827
0.0514902
0.0511366
0.0508284
0.0505806
0.0504151
0.0504296
0.0506959
0.0366894
0.0298934
0.0262236
0.0240648
0.0226952
0.0217596
0.0210653
0.0204866
0.0198973
0.0191412
0.0833766
0.0716512
0.0632304
0.056887
0.0519493
0.0480079
0.0447946
0.0421261
0.039858
0.0380723
0.118182
0.141674
0.141426
0.132937
0.122539
0.112548
0.103697
0.0961275
0.0897735
0.0845101
0.0802065
0.0767424
0.0740102
0.0719135
0.0703636
0.0692772
0.068575
0.0681813
0.0680253
0.0680425
0.0681762
0.0683787
0.0686121
0.0688474
0.0690632
0.0692442
0.0693782
0.0694537
0.06946
0.0693867
0.0692241
0.068966
0.0686113
0.0681642
0.0676357
0.0670406
0.0663952
0.0657156
0.0650153
0.0643061
0.0635975
0.0628949
0.0622016
0.0615192
0.0608479
0.0601867
0.0595346
0.0588904
0.058253
0.0576209
0.0569931
0.0563685
0.0557464
0.0551264
0.0545084
0.0538926
0.0532802
0.0526723
0.0520706
0.0514772
0.0508947
0.0503263
0.0497756
0.0492464
0.0487428
0.04827
0.0478374
0.0474534
0.0471755
0.0469748
0.0339624
0.0275808
0.0240958
0.0220193
0.020714
0.0198542
0.0192413
0.0187545
0.0183278
0.0177684
0.0833756
0.0716491
0.0632275
0.0568834
0.0519453
0.0480036
0.0447903
0.0421219
0.039854
0.0380679
0.118121
0.141558
0.141273
0.132763
0.122358
0.112368
0.103523
0.0959632
0.0896213
0.0843724
0.080086
0.0766423
0.0739343
0.0718653
0.070346
0.0692918
0.0686217
0.0682589
0.0681317
0.0681761
0.0683366
0.0685679
0.0688348
0.0691112
0.069378
0.0696208
0.0698259
0.0699778
0.0700583
0.0700469
0.0699233
0.0696732
0.0692921
0.0687866
0.0681737
0.0674776
0.0667237
0.0659354
0.0651322
0.0643287
0.0635342
0.062754
0.0619893
0.0612395
0.0605026
0.0597758
0.0590556
0.0583393
0.0576247
0.05691
0.0561941
0.0554761
0.0547553
0.0540312
0.0533033
0.0525715
0.0518362
0.0510983
0.0503592
0.0496209
0.0488855
0.0481559
0.0474355
0.0467286
0.0460402
0.0453765
0.0447481
0.0441633
0.0436874
0.0431582
0.0308019
0.0246591
0.0213008
0.0193057
0.0180231
0.017131
0.0164598
0.0159039
0.0154146
0.0147856
0.0833746
0.0716472
0.0632248
0.0568804
0.0519424
0.0480013
0.0447894
0.0421234
0.0398599
0.0380798
0.11822
0.141615
0.141252
0.132673
0.122221
0.112211
0.103376
0.0958577
0.0895908
0.0844526
0.0803133
0.077051
0.0745539
0.0727176
0.0714433
0.0706367
0.0702087
0.0700771
0.0701687
0.0704211
0.0707829
0.0712144
0.0716859
0.0721753
0.0726655
0.0731402
0.0735795
0.0739553
0.0742307
0.0743614
0.0743028
0.0740236
0.073515
0.0727925
0.0718934
0.070868
0.0697685
0.0686428
0.0675299
0.0664576
0.0654428
0.0644918
0.063603
0.0627688
0.0619781
0.0612186
0.0604793
0.0597507
0.0590255
0.0582983
0.0575663
0.0568289
0.0560868
0.0553417
0.0545966
0.0538554
0.0531233
0.0524055
0.0517079
0.0510368
0.0503989
0.0498008
0.0492495
0.0487518
0.0483148
0.0479454
0.0476555
0.0474568
0.0474231
0.0473897
0.03342
0.0262901
0.0222906
0.0198783
0.0183384
0.0173071
0.0165843
0.0160417
0.015608
0.0150962
0.0833737
0.0716452
0.0632222
0.0568775
0.0519394
0.0479988
0.0447879
0.0421237
0.0398632
0.0380851
0.11805
0.141326
0.141008
0.13256
0.122347
0.112725
0.104439
0.0976296
0.0922102
0.088025
0.0849019
0.082673
0.0811819
0.0802862
0.07986
0.0797939
0.0799963
0.080393
0.0809258
0.0815513
0.0822381
0.0829652
0.0837189
0.0844899
0.0852704
0.0860496
0.0868079
0.0875097
0.0881
0.0885013
0.0886232
0.0883876
0.0877486
0.0867019
0.085286
0.0835692
0.0816351
0.079572
0.0774653
0.0753916
0.0734165
0.0715906
0.0699491
0.068513
0.0672916
0.0662797
0.065459
0.0648048
0.0642901
0.0638859
0.063564
0.0632993
0.0630725
0.0628676
0.0626738
0.0624868
0.0623075
0.0621393
0.0619872
0.0618567
0.0617536
0.0616833
0.0616501
0.0616581
0.0617119
0.0618152
0.0619752
0.0622046
0.0625935
0.0630079
0.0418669
0.0315031
0.0258798
0.0226019
0.0205899
0.0193041
0.0184511
0.0178539
0.017405
0.0169663
0.0833728
0.0716434
0.0632199
0.0568751
0.0519377
0.0479989
0.0447927
0.0421383
0.0399078
0.0380131
0.0367204
0.0356191
0.0345078
0.0334681
0.0325113
0.0316306
0.030822
0.0300821
0.0294071
0.028793
0.0282358
0.0277312
0.0272753
0.0268639
0.0264933
0.02616
0.0258606
0.0255922
0.0253522
0.0251381
0.0249483
0.024781
0.0246353
0.0245106
0.0244067
0.024324
0.024263
0.0242232
0.0242033
0.0241996
0.0242057
0.0242136
0.0242152
0.0242039
0.024175
0.0241266
0.0240584
0.0239709
0.0238642
0.0237421
0.0236083
0.0234668
0.0233208
0.0231734
0.023027
0.0228832
0.0227437
0.0226092
0.0224792
0.0223518
0.0222252
0.0220973
0.0219659
0.0218306
0.0216911
0.0215478
0.0214005
0.0212497
0.021096
0.02094
0.0207825
0.020624
0.020465
0.0203061
0.0201481
0.0199918
0.0198383
0.0196884
0.019543
0.0194015
0.01921
0.0190133
0.0188273
0.0186563
0.0185007
0.018359
0.018229
0.0181053
0.0179908
0.0178227
0.0833718
0.0716415
0.0632173
0.0568721
0.0519347
0.0479963
0.0447911
0.0421383
0.0399107
0.0380179
0.0363976
0.0350002
0.0337837
0.0327156
0.0317706
0.030929
0.0301751
0.0294962
0.0288823
0.0283249
0.0278174
0.0273542
0.0269306
0.0265428
0.0261876
0.0258621
0.0255641
0.0252917
0.0250434
0.0248178
0.0246142
0.0244319
0.0242706
0.0241308
0.0240133
0.0239198
0.0238521
0.0238115
0.0237979
0.0238072
0.0238309
0.0238584
0.023878
0.0238816
0.0238643
0.0238249
0.0237638
0.0236828
0.0235847
0.0234728
0.0233504
0.02322
0.0230842
0.0229447
0.0228028
0.0226595
0.0225155
0.0223714
0.0222273
0.0220833
0.0219392
0.0217948
0.0216497
0.0215037
0.0213564
0.0212076
0.0210577
0.0209064
0.0207535
0.020599
0.0204431
0.0202859
0.0201281
0.0199705
0.0198139
0.019659
0.0195067
0.0193575
0.019212
0.0190694
0.0189297
0.0187941
0.0186648
0.0185428
0.0184289
0.018323
0.0182249
0.0181322
0.018052
0.0179301
0.0833709
0.0716396
0.0632148
0.0568692
0.0519318
0.0479938
0.0447898
0.0421393
0.0399156
0.038028
0.0364103
0.0350119
0.0337924
0.0327204
0.0317713
0.0309256
0.0301674
0.0294843
0.0288659
0.0283039
0.0277914
0.0273228
0.0268933
0.0264992
0.0261372
0.0258047
0.0254993
0.0252193
0.0249632
0.0247298
0.0245184
0.0243286
0.0241606
0.0240151
0.0238939
0.0238002
0.0237379
0.0237108
0.0237215
0.0237656
0.0238307
0.0239003
0.0239581
0.0239923
0.0239968
0.0239702
0.0239139
0.023831
0.0237257
0.0236036
0.0234682
0.0233232
0.023172
0.0230169
0.02286
0.0227016
0.0225433
0.022386
0.0222303
0.0220764
0.0219243
0.0217739
0.0216247
0.0214765
0.0213289
0.0211816
0.0210344
0.0208869
0.0207391
0.020591
0.0204426
0.0202943
0.0201462
0.019999
0.019853
0.019709
0.0195674
0.019429
0.0192945
0.0191644
0.0190385
0.0189173
0.0188017
0.018692
0.0185883
0.0184901
0.0183962
0.0183026
0.0182104
0.0180487
0.08337
0.0716377
0.063212
0.0568658
0.0519278
0.0479894
0.0447851
0.0421343
0.0399102
0.0380216
0.0364015
0.0349991
0.0337751
0.0326984
0.0317447
0.0308944
0.0301318
0.0294443
0.0288214
0.0282549
0.0277377
0.0272643
0.02683
0.0264309
0.0260638
0.0257262
0.0254158
0.0251306
0.0248694
0.0246308
0.0244142
0.0242192
0.024046
0.023896
0.0237716
0.023678
0.023622
0.0236121
0.0236583
0.0237579
0.0238934
0.0240391
0.0241668
0.0242579
0.024304
0.0243042
0.0242616
0.0241817
0.0240723
0.0239421
0.0237965
0.0236402
0.0234772
0.0233104
0.023142
0.0229737
0.0228065
0.022641
0.0224776
0.0223163
0.022157
0.0219994
0.0218431
0.0216878
0.0215332
0.0213788
0.0212245
0.0210701
0.0209154
0.0207604
0.0206053
0.0204502
0.0202954
0.0201414
0.0199884
0.0198372
0.0196881
0.0195417
0.0193986
0.0192591
0.0191235
0.0189922
0.0188678
0.0187512
0.0186425
0.0185413
0.0184468
0.0183552
0.0182661
0.0181055
0.0833691
0.0716357
0.0632091
0.0568621
0.0519234
0.0479845
0.0447797
0.0421284
0.0399038
0.0380144
0.0363927
0.0349878
0.0337604
0.0326797
0.0317213
0.0308659
0.0300978
0.0294045
0.0287757
0.028203
0.0276795
0.0271996
0.0267588
0.0263533
0.0259799
0.025636
0.0253195
0.0250284
0.0247612
0.0245166
0.0242938
0.0240921
0.0239118
0.0237541
0.0236222
0.0235231
0.0234672
0.0234727
0.0235724
0.0237833
0.0240879
0.0244342
0.0247583
0.0250211
0.0252066
0.0253136
0.0253495
0.025325
0.02525
0.0251543
0.025046
0.0249312
0.0248139
0.0246964
0.0245795
0.0244629
0.0243454
0.0242254
0.024101
0.0239706
0.0238325
0.0236857
0.0235297
0.0233643
0.02319
0.0230073
0.0228175
0.0226216
0.0224211
0.0222174
0.0220121
0.0218066
0.0216023
0.0214006
0.0212029
0.0210103
0.0208242
0.0206503
0.0204913
0.0203471
0.0202182
0.020105
0.0200066
0.0199246
0.0198606
0.019815
0.0197867
0.0197716
0.0197638
0.0197044
0.0833682
0.0716337
0.0632061
0.0568581
0.0519185
0.0479785
0.0447725
0.0421199
0.0398936
0.0380021
0.0363776
0.0349692
0.0337375
0.0326521
0.0316886
0.0308278
0.0300541
0.0293548
0.0287197
0.0281405
0.0276103
0.0271236
0.0266757
0.0262631
0.0258827
0.0255319
0.0252086
0.0249108
0.0246369
0.0243855
0.0241554
0.0239457
0.023756
0.0235873
0.0234424
0.0233304
0.0232651
0.0232837
0.0235283
0.0241379
0.0251013
0.0262233
0.0272886
0.0282069
0.028949
0.0295236
0.0299557
0.0302731
0.0305011
0.0306402
0.0307427
0.0308122
0.030839
0.0308151
0.0307352
0.0305974
0.030403
0.0301558
0.0298617
0.0295277
0.0291612
0.0287698
0.0283607
0.0279405
0.027515
0.0270894
0.0266682
0.0262551
0.0258534
0.0254656
0.0250941
0.0247406
0.0244067
0.0240991
0.0238196
0.0235685
0.0233464
0.02315
0.0229789
0.0228352
0.0227222
0.0226422
0.0225954
0.0225801
0.0225937
0.0226331
0.0226936
0.0227696
0.0228474
0.0228899
0.0833673
0.0716317
0.0632031
0.056854
0.0519133
0.0479721
0.0447648
0.0421106
0.0398825
0.0379887
0.0363615
0.0349497
0.0337141
0.0326242
0.0316556
0.0307891
0.0300091
0.0293031
0.0286609
0.028074
0.0275357
0.0270406
0.0265842
0.026163
0.025774
0.0254148
0.0250832
0.0247775
0.0244957
0.0242363
0.0239976
0.0237782
0.0235765
0.0233922
0.0232259
0.0230872
0.0229903
0.023018
0.0239515
0.0265166
0.0304332
0.0345973
0.0381861
0.0409987
0.0430212
0.0443574
0.045134
0.0454701
0.0454656
0.0451991
0.0446971
0.0440136
0.0432089
0.0423151
0.0413616
0.0403737
0.0393727
0.0383753
0.0373944
0.0364398
0.0355183
0.034635
0.0337933
0.0329953
0.0322424
0.0315353
0.0308741
0.0302588
0.029689
0.0291641
0.0286876
0.028259
0.0278778
0.0275386
0.0272407
0.0269849
0.0267711
0.026599
0.0264679
0.0263801
0.0263394
0.0263356
0.0263609
0.0264087
0.0264732
0.0265496
0.0266303
0.0267096
0.0267584
0.0267727
0.0833664
0.0716298
0.0632001
0.0568499
0.0519079
0.0479653
0.0447564
0.0421003
0.03987
0.0379735
0.0363431
0.0349276
0.0336876
0.0325926
0.0316185
0.0307458
0.029959
0.0292456
0.0285953
0.0279998
0.0274524
0.0269478
0.0264815
0.0260503
0.0256513
0.0252824
0.0249414
0.0246267
0.0243362
0.0240682
0.0238207
0.0235916
0.0233786
0.0231796
0.0229909
0.0228206
0.0226743
0.0227969
0.0275332
0.0385695
0.0517792
0.062285
0.0685824
0.07134
0.0715145
0.0700636
0.0677126
0.0649488
0.0620708
0.0592444
0.05655
0.0540304
0.0516962
0.0495584
0.0476122
0.0458448
0.0442407
0.0427844
0.0414617
0.0402593
0.0391656
0.0381701
0.0372641
0.0364402
0.0356923
0.0350171
0.0344092
0.033873
0.0334001
0.0329793
0.0326015
0.0322622
0.0319591
0.0316904
0.0314547
0.0312506
0.031077
0.0309321
0.030814
0.030718
0.0306419
0.0305838
0.0305413
0.0305116
0.0304913
0.0304771
0.0304626
0.0304458
0.030397
0.0303378
0.0833656
0.071628
0.0631972
0.0568459
0.0519026
0.0479586
0.0447479
0.0420898
0.0398571
0.0379579
0.0363242
0.0349048
0.0336604
0.0325603
0.0315802
0.0307009
0.0299067
0.0291851
0.0285256
0.0279202
0.0273621
0.0268462
0.0263681
0.0259249
0.025514
0.0251334
0.0247814
0.0244563
0.024156
0.0238786
0.0236219
0.0233838
0.0231608
0.0229487
0.0227365
0.0225246
0.0222751
0.0228462
0.0427434
0.0733771
0.0973876
0.108501
0.108903
0.103258
0.095171
0.0867507
0.078998
0.0722653
0.0665847
0.0618535
0.0579266
0.0546609
0.051932
0.0496363
0.0476911
0.046032
0.0446094
0.0433866
0.042341
0.0414663
0.0407263
0.0400842
0.0395173
0.0390096
0.0385495
0.038128
0.0377384
0.0373753
0.0370353
0.0367154
0.0364128
0.0361268
0.0358573
0.0356041
0.0353674
0.0351473
0.0349449
0.0347612
0.0345943
0.0344424
0.0343019
0.0341703
0.0340457
0.0339275
0.0338144
0.033705
0.0335935
0.0334809
0.0333375
0.0332046
0.083365
0.0716265
0.0631947
0.0568423
0.0518977
0.0479521
0.0447397
0.0420795
0.0398443
0.0379421
0.0363049
0.0348814
0.0336322
0.0325266
0.0315402
0.0306537
0.0298513
0.0291204
0.0284506
0.0278338
0.0272634
0.0267341
0.0262421
0.0257845
0.0253594
0.0249653
0.0246007
0.0242641
0.0239534
0.0236666
0.0234022
0.0231595
0.0229372
0.0227351
0.0225432
0.0223621
0.0221368
0.022769
0.0445944
0.0780339
0.104032
0.11486
0.114719
0.108316
0.0992177
0.0896965
0.0808975
0.0732572
0.0668422
0.0615546
0.0572387
0.0537306
0.0508803
0.0485626
0.0467148
0.0452402
0.0440511
0.0430893
0.0423134
0.0416903
0.0411921
0.0407934
0.040471
0.0402048
0.0399777
0.0397761
0.0395891
0.039409
0.0392305
0.0390507
0.0388682
0.0386828
0.0384951
0.0383059
0.0381165
0.0379278
0.0377393
0.0375502
0.0373618
0.0371748
0.0369897
0.0368064
0.0366249
0.0364443
0.0362631
0.0360823
0.0358976
0.0357128
0.0354982
0.0353097
0.0833645
0.0716253
0.0631927
0.0568392
0.0518933
0.0479463
0.044732
0.0420697
0.0398319
0.0379267
0.036286
0.0348583
0.0336041
0.0324928
0.0314997
0.0306054
0.0297941
0.0290529
0.0283715
0.0277416
0.0271565
0.0266113
0.0261025
0.0256276
0.0251853
0.0247749
0.0243958
0.0240462
0.0237239
0.023427
0.0231547
0.0229101
0.022698
0.0225305
0.0224093
0.0223506
0.0222608
0.0228968
0.043895
0.0770992
0.103448
0.114662
0.114737
0.108524
0.0995887
0.0902077
0.0815058
0.0738984
0.0674453
0.0620507
0.0575695
0.0538547
0.0507746
0.0482702
0.046216
0.0445219
0.0431292
0.0419994
0.0411043
0.0404202
0.0399239
0.0395902
0.0393915
0.0392991
0.0392838
0.0393184
0.0393791
0.0394466
0.0395063
0.0395484
0.0395668
0.0395588
0.0395239
0.039463
0.0393782
0.0392722
0.0391475
0.0390069
0.0388528
0.0386873
0.038512
0.0383287
0.0381383
0.0379419
0.0377398
0.0375318
0.0373151
0.0370969
0.0368478
0.0366347
0.0833642
0.0716244
0.0631911
0.0568367
0.0518897
0.0479412
0.0447252
0.0420607
0.0398204
0.0379121
0.0362678
0.0348357
0.0335765
0.0324591
0.031459
0.0305564
0.0297353
0.0289828
0.0282882
0.0276433
0.0270413
0.0264773
0.0259482
0.0254523
0.0249893
0.0245597
0.0241639
0.0238005
0.0234661
0.0231586
0.0228788
0.0226369
0.022452
0.0223672
0.0224246
0.0226998
0.0229513
0.0236087
0.0416818
0.0718028
0.0967447
0.108446
0.109399
0.104074
0.0962127
0.0880122
0.0804222
0.0737144
0.0678863
0.0628448
0.058482
0.0547012
0.0514172
0.0485552
0.0460539
0.0438807
0.0420124
0.040427
0.0391147
0.0380708
0.0372901
0.0367625
0.0364694
0.0363829
0.036467
0.0366807
0.0369814
0.0373291
0.0376899
0.0380371
0.0383517
0.0386215
0.0388402
0.0390058
0.039119
0.0391831
0.0392021
0.0391809
0.0391241
0.0390362
0.0389215
0.0387839
0.0386267
0.0384531
0.0382653
0.0380664
0.0378548
0.0376393
0.0373891
0.0371797
0.083364
0.0716239
0.06319
0.0568348
0.0518868
0.0479369
0.0447192
0.0420527
0.0398099
0.0378986
0.0362506
0.0348143
0.0335499
0.0324264
0.0314189
0.0305075
0.029676
0.0289111
0.0282019
0.0275398
0.0269179
0.0263315
0.0257776
0.0252558
0.024767
0.0243139
0.0238994
0.023522
0.023177
0.0228616
0.0225806
0.0223584
0.0222462
0.0223639
0.0228778
0.0240128
0.0249481
0.0254834
0.0264655
0.0302091
0.0370895
0.0444128
0.0506244
0.0555767
0.0589185
0.0606893
0.0610692
0.0603249
0.0587469
0.0566115
0.0541578
0.0515803
0.0490197
0.0465586
0.0442393
0.0420843
0.0401075
0.0383202
0.0367328
0.0353573
0.034207
0.0332957
0.0326357
0.0322345
0.0320954
0.0322564
0.032659
0.0332228
0.0338766
0.0345616
0.0352324
0.0358575
0.0364168
0.0368993
0.0373009