/*--------------------------------*- C++ -*----------------------------------*\
| =========                 |                                                 |
| \\      /  F ield         | OpenFOAM: The Open Source CFD Toolbox           |
|  \\    /   O peration     | Version:  v2012                                 |
|   \\  /    A nd           | Website:  www.openfoam.com                      |
|    \\/     M anipulation  |                                                 |
\*---------------------------------------------------------------------------*/
FoamFile
{
    version     2.0;
    format      ascii;
    class       volScalarField;
    location    "250/air";
    object      nut;
}
// * * * * * * * * * * * * * * * * * * * * * * * * * * * * * * * * * * * * * //

dimensions      [0 2 -1 0 0 0 0];


internalField   nonuniform List<scalar> 
287104
(
0.00648516
0.00601302
0.0056499
0.00536041
0.00512409
0.00492773
0.00476225
0.00462113
0.00449957
0.00439393
0.00430143
0.00421988
0.00414755
0.00408305
0.00402525
0.00397322
0.00392619
0.00388351
0.00384463
0.0038091
0.00377653
0.00374657
0.00371894
0.00369338
0.00366968
0.00364765
0.00362712
0.00360793
0.00358997
0.0035731
0.00355723
0.00354226
0.00352811
0.00351469
0.00350194
0.0034898
0.00347819
0.00346707
0.00345638
0.00344608
0.00343612
0.00342646
0.00341707
0.00340791
0.00339896
0.00339017
0.00338153
0.00337302
0.00336462
0.0033563
0.00334805
0.00333986
0.00333171
0.0033236
0.00331551
0.00330743
0.00329936
0.00329127
0.00328317
0.00327504
0.00326685
0.00325861
0.00325029
0.00324188
0.00323336
0.00322471
0.00321592
0.00320696
0.00319783
0.0031885
0.00317895
0.00316919
0.00315919
0.00314895
0.00313847
0.00312776
0.00311683
0.00310569
0.00309435
0.00308284
0.00307117
0.00305934
0.00304736
0.00303521
0.00302284
0.00301011
0.00299683
0.00298215
0.00296643
0.00293721
0.00648503
0.00601276
0.0056495
0.0053599
0.00512349
0.00492705
0.0047615
0.00462032
0.0044987
0.00439302
0.00430048
0.0042189
0.00414655
0.00408205
0.00402425
0.00397222
0.0039252
0.00388253
0.00384367
0.00380816
0.00377561
0.00374567
0.00371807
0.00369254
0.00366888
0.00364688
0.00362638
0.00360724
0.00358933
0.00357252
0.00355671
0.00354181
0.00352773
0.0035144
0.00350174
0.00348969
0.00347819
0.00346718
0.00345661
0.00344643
0.0034366
0.00342707
0.00341781
0.00340877
0.00339994
0.00339128
0.00338275
0.00337435
0.00336604
0.00335782
0.00334965
0.00334153
0.00333344
0.00332537
0.00331731
0.00330925
0.00330118
0.00329308
0.00328495
0.00327677
0.00326853
0.00326021
0.0032518
0.00324328
0.00323464
0.00322586
0.00321692
0.00320781
0.00319851
0.00318901
0.00317929
0.00316934
0.00315916
0.00314875
0.0031381
0.00312723
0.00311615
0.00310487
0.00309342
0.00308181
0.00307005
0.00305818
0.00304618
0.00303405
0.00302174
0.00300912
0.002996
0.00298155
0.00296613
0.00293757
0.00648498
0.00601263
0.00564933
0.00535968
0.00512322
0.00492673
0.00476114
0.00461991
0.00449826
0.00439254
0.00429997
0.00421837
0.00414601
0.0040815
0.0040237
0.00397168
0.00392467
0.00388201
0.00384317
0.00380767
0.00377513
0.00374522
0.00371763
0.00369213
0.00366849
0.00364653
0.00362607
0.00360697
0.0035891
0.00357234
0.00355659
0.00354176
0.00352775
0.0035145
0.00350193
0.00348998
0.00347858
0.00346767
0.00345722
0.00344716
0.00343745
0.00342805
0.00341892
0.00341002
0.00340133
0.0033928
0.00338442
0.00337615
0.00336798
0.00335989
0.00335186
0.00334387
0.00333591
0.00332798
0.00332005
0.00331212
0.00330417
0.0032962
0.00328819
0.00328014
0.00327202
0.00326383
0.00325555
0.00324716
0.00323865
0.00323
0.00322119
0.00321222
0.00320307
0.00319372
0.00318416
0.00317439
0.0031644
0.00315418
0.00314376
0.00313312
0.0031223
0.0031113
0.00310016
0.00308889
0.00307751
0.00306604
0.00305449
0.00304285
0.00303108
0.00301906
0.00300663
0.00299301
0.00297852
0.00295165
0.00648493
0.00601251
0.00564913
0.00535941
0.00512287
0.00492631
0.00476063
0.00461934
0.00449762
0.00439184
0.00429922
0.00421759
0.00414521
0.00408068
0.00402288
0.00397085
0.00392384
0.00388118
0.00384234
0.00380684
0.00377431
0.0037444
0.00371681
0.00369132
0.00366769
0.00364573
0.00362529
0.00360622
0.00358838
0.00357166
0.00355595
0.00354118
0.00352724
0.00351406
0.00350158
0.00348971
0.00347841
0.00346762
0.00345728
0.00344734
0.00343776
0.00342849
0.00341949
0.00341072
0.00340215
0.00339375
0.00338549
0.00337734
0.00336928
0.00336129
0.00335336
0.00334546
0.00333758
0.00332972
0.00332185
0.00331397
0.00330607
0.00329814
0.00329016
0.00328213
0.00327403
0.00326584
0.00325756
0.00324917
0.00324065
0.00323198
0.00322316
0.00321417
0.00320499
0.00319561
0.00318602
0.00317622
0.0031662
0.00315595
0.0031455
0.00313483
0.00312398
0.00311295
0.00310177
0.00309046
0.00307905
0.00306754
0.00305594
0.00304427
0.00303249
0.00302049
0.00300812
0.00299461
0.00298029
0.00295392
0.00648488
0.0060124
0.00564896
0.00535917
0.00512257
0.00492594
0.0047602
0.00461883
0.00449704
0.0043912
0.00429853
0.00421686
0.00414445
0.00407992
0.00402211
0.00397009
0.00392308
0.00388043
0.00384159
0.0038061
0.00377358
0.00374367
0.0037161
0.00369061
0.00366699
0.00364506
0.00362464
0.00360559
0.00358778
0.00357111
0.00355546
0.00354074
0.00352688
0.00351379
0.00350139
0.00348964
0.00347845
0.00346779
0.00345758
0.00344778
0.00343834
0.00342921
0.00342036
0.00341174
0.00340332
0.00339506
0.00338694
0.00337892
0.003371
0.00336313
0.00335531
0.00334752
0.00333974
0.00333197
0.00332419
0.00331639
0.00330856
0.00330069
0.00329277
0.00328479
0.00327673
0.00326858
0.00326032
0.00325195
0.00324345
0.00323479
0.00322597
0.00321698
0.00320779
0.00319839
0.00318878
0.00317894
0.00316888
0.00315859
0.00314808
0.00313735
0.00312642
0.00311531
0.00310403
0.00309261
0.00308105
0.00306939
0.00305762
0.00304577
0.0030338
0.00302164
0.00300913
0.00299555
0.00298121
0.0029551
0.00648483
0.00601229
0.00564878
0.00535891
0.00512223
0.00492551
0.00475968
0.00461823
0.00449635
0.00439043
0.00429771
0.00421602
0.00414361
0.00407908
0.00402128
0.00396927
0.00392227
0.00387963
0.00384079
0.0038053
0.00377276
0.00374285
0.00371527
0.00368978
0.00366617
0.00364424
0.00362383
0.00360481
0.00358704
0.00357042
0.00355484
0.0035402
0.00352643
0.00351345
0.00350119
0.00348958
0.00347856
0.00346806
0.00345804
0.00344844
0.00343921
0.0034303
0.00342167
0.00341327
0.00340507
0.00339704
0.00338914
0.00338134
0.00337362
0.00336596
0.00335834
0.00335074
0.00334315
0.00333555
0.00332794
0.0033203
0.00331262
0.0033049
0.00329711
0.00328926
0.00328133
0.00327329
0.00326515
0.00325688
0.00324847
0.0032399
0.00323117
0.00322225
0.00321313
0.0032038
0.00319425
0.00318448
0.00317449
0.00316426
0.00315382
0.00314316
0.00313232
0.00312129
0.00311011
0.00309878
0.00308734
0.0030758
0.0030642
0.00305258
0.00304092
0.00302918
0.00301723
0.00300443
0.00299104
0.00296656
0.00648479
0.00601218
0.0056486
0.00535866
0.00512189
0.00492508
0.00475914
0.00461755
0.00449554
0.00438948
0.00429665
0.00421489
0.00414245
0.00407791
0.00402012
0.00396813
0.00392114
0.00387851
0.00383968
0.0038042
0.00377166
0.00374175
0.00371417
0.00368869
0.00366508
0.00364318
0.00362281
0.00360383
0.00358613
0.00356959
0.00355412
0.00353962
0.003526
0.00351321
0.00350115
0.00348978
0.00347901
0.0034688
0.00345908
0.0034498
0.0034409
0.00343234
0.00342407
0.00341604
0.00340821
0.00340056
0.00339301
0.00338555
0.00337817
0.00337084
0.00336355
0.00335627
0.00334901
0.00334174
0.00333445
0.00332714
0.00331979
0.00331239
0.00330492
0.00329739
0.00328977
0.00328206
0.00327424
0.00326631
0.00325825
0.00325006
0.00324171
0.00323322
0.00322456
0.00321575
0.00320677
0.00319761
0.00318827
0.00317876
0.0031691
0.00315929
0.00314935
0.00313932
0.0031292
0.00311901
0.00310877
0.00309851
0.00308828
0.00307814
0.00306811
0.00305815
0.00304819
0.00303768
0.00302682
0.00300661
0.00648474
0.00601207
0.00564842
0.00535839
0.00512153
0.00492461
0.00475854
0.00461681
0.00449465
0.00438846
0.00429557
0.00421382
0.00414143
0.00407695
0.0040192
0.00396723
0.00392023
0.00387756
0.00383867
0.0038031
0.00377047
0.00374045
0.00371277
0.00368719
0.0036635
0.00364152
0.00362112
0.00360214
0.00358447
0.003568
0.00355264
0.00353829
0.00352488
0.00351232
0.00350051
0.0034894
0.00347893
0.00346903
0.00345965
0.00345071
0.00344217
0.00343397
0.00342604
0.00341835
0.00341085
0.0034035
0.00339627
0.00338913
0.00338205
0.00337501
0.00336801
0.00336101
0.00335402
0.00334702
0.00334001
0.00333297
0.00332589
0.00331876
0.00331159
0.00330434
0.00329703
0.00328963
0.00328213
0.00327452
0.00326678
0.00325892
0.00325091
0.00324275
0.00323442
0.00322594
0.00321729
0.00320848
0.00319951
0.00319041
0.00318117
0.00317183
0.00316241
0.00315293
0.00314341
0.00313385
0.00312426
0.00311466
0.00310514
0.00309576
0.00308656
0.00307756
0.00306879
0.00306002
0.00305226
0.00303904
0.00648469
0.00601196
0.00564823
0.00535811
0.00512113
0.00492406
0.00475779
0.0046158
0.00449325
0.00438659
0.00429389
0.00421309
0.00414199
0.00407875
0.00402193
0.00397045
0.00392349
0.00388045
0.00384086
0.00380434
0.00377061
0.00373942
0.00371057
0.00368387
0.00365917
0.00363631
0.00361516
0.00359559
0.00357748
0.0035607
0.00354516
0.00353074
0.00351734
0.00350488
0.00349327
0.00348243
0.00347229
0.00346276
0.00345375
0.00344519
0.00343697
0.00342905
0.00342136
0.00341384
0.00340646
0.0033992
0.00339203
0.00338494
0.00337793
0.00337098
0.00336407
0.00335718
0.0033503
0.00334343
0.00333655
0.00332965
0.00332272
0.00331574
0.00330871
0.00330161
0.00329443
0.00328716
0.00327978
0.00327229
0.00326465
0.00325688
0.00324894
0.00324085
0.00323259
0.00322416
0.00321557
0.00320682
0.00319793
0.00318891
0.00317979
0.00317059
0.00316136
0.00315212
0.00314289
0.00313363
0.00312427
0.00311492
0.00310575
0.00309683
0.00308822
0.00307993
0.00307201
0.00306436
0.00305798
0.00304894
0.00648465
0.00601185
0.00564804
0.00535783
0.00512074
0.00492352
0.00475707
0.00461483
0.00449192
0.00438502
0.00435237
0.00433601
0.00431137
0.00427396
0.00422587
0.00417084
0.00411231
0.00405296
0.00399471
0.00393884
0.00388618
0.00383721
0.00379216
0.00375106
0.00371384
0.00368034
0.00365029
0.00362338
0.00359921
0.00357735
0.00355737
0.00353879
0.00352113
0.00350428
0.00349015
0.00347808
0.00346751
0.00345805
0.00344936
0.00344125
0.00343353
0.00342607
0.00341879
0.00341161
0.00340471
0.00339817
0.00339196
0.00338603
0.00338033
0.0033748
0.00336939
0.00336406
0.00335876
0.00335347
0.00334817
0.00334282
0.0033374
0.0033319
0.0033263
0.00332057
0.00331471
0.0033087
0.00330254
0.0032962
0.00328969
0.003283
0.00327611
0.00326902
0.00326173
0.00325425
0.00324659
0.00323875
0.00323075
0.00322263
0.00321441
0.00320613
0.00319783
0.00318955
0.00318135
0.00317316
0.00315902
0.00314381
0.00312922
0.00311575
0.00310347
0.00309229
0.0030821
0.00307261
0.00306452
0.0030539
0.0064846
0.00601173
0.00564785
0.00535753
0.00512029
0.00492286
0.00475603
0.00461312
0.0044884
0.00438803
0.00773692
0.00846918
0.00846294
0.00820926
0.0078883
0.00756832
0.00727432
0.00701412
0.00678877
0.00659672
0.00643554
0.00630253
0.00619491
0.00610985
0.0060445
0.00599598
0.00596141
0.00593799
0.00592308
0.00591426
0.00590943
0.00590684
0.00590514
0.00590334
0.00590174
0.00590084
0.00590054
0.00590057
0.00590069
0.00590078
0.00590079
0.0059008
0.00590056
0.0059001
0.00589929
0.00589826
0.00589731
0.00589677
0.00589689
0.00589782
0.00589968
0.0059025
0.00590624
0.00591089
0.00591643
0.00592284
0.00593007
0.00593804
0.0059467
0.00595597
0.00596579
0.00597606
0.00598669
0.00599762
0.00600876
0.00602007
0.00603146
0.00604289
0.00605429
0.00606562
0.00607685
0.00608794
0.00609889
0.00610975
0.00612062
0.00613173
0.00614367
0.00615754
0.00617994
0.00620536
0.00498274
0.0042626
0.00381796
0.00353461
0.00335022
0.00322835
0.00314671
0.00309079
0.00305219
0.00301878
0.00648456
0.00601163
0.00564767
0.00535726
0.00511991
0.00492234
0.00475532
0.00461218
0.00448712
0.00438642
0.00773672
0.00847054
0.00846245
0.00820443
0.00787764
0.00755094
0.00724976
0.00698226
0.00674973
0.00655086
0.00638338
0.00624479
0.00613246
0.0060437
0.00597575
0.00592576
0.00589082
0.00586802
0.00585458
0.00584789
0.00584564
0.00584585
0.00584691
0.00584757
0.00584689
0.00584428
0.00583932
0.00583178
0.00582152
0.00580849
0.00579273
0.00577432
0.00575378
0.00573131
0.00570712
0.00568149
0.00565473
0.00562706
0.00559869
0.00556985
0.00554093
0.00551202
0.00548328
0.00545484
0.00542686
0.00539948
0.00537283
0.00534707
0.00532233
0.00529876
0.00527648
0.00525565
0.00523642
0.00521898
0.00520346
0.00519003
0.00517883
0.00517
0.00516365
0.00515987
0.00515873
0.00516026
0.00516448
0.00517141
0.00518108
0.00519361
0.00520934
0.00522887
0.00525706
0.00528478
0.00440344
0.0038643
0.00351957
0.00329229
0.00313944
0.00303524
0.0029633
0.00291176
0.00287341
0.00283141
0.00648452
0.00601152
0.00564749
0.005357
0.00511953
0.00492182
0.00475461
0.0046112
0.00448576
0.00438456
0.00772928
0.00846354
0.00845704
0.00820053
0.00787484
0.00754872
0.00724765
0.00697992
0.00674697
0.00654762
0.00637981
0.00624117
0.00612921
0.00604137
0.00597497
0.0059272
0.00589515
0.00587587
0.00586648
0.00586427
0.00586682
0.00587206
0.00587831
0.00588427
0.00588896
0.00589173
0.00589213
0.00588993
0.005885
0.00587732
0.00586696
0.00585399
0.00583857
0.00582086
0.00580107
0.00577943
0.00575616
0.00573149
0.00570564
0.00567878
0.0056509
0.00562219
0.00559274
0.00556252
0.00553151
0.00549966
0.00546691
0.00543319
0.00539843
0.00536254
0.00532546
0.0052871
0.00524745
0.00520647
0.00516419
0.00512066
0.00507597
0.00503026
0.00498384
0.00493702
0.00489009
0.0048434
0.00479737
0.00475251
0.0047094
0.00466871
0.00463139
0.00459818
0.00457308
0.00454535
0.00381475
0.00337774
0.00310344
0.00292399
0.00280244
0.00271751
0.00265625
0.00260866
0.00257104
0.00251943
0.00648447
0.00601142
0.00564732
0.00535676
0.00511921
0.00492139
0.00475407
0.00461052
0.00448494
0.0043836
0.00772673
0.00846113
0.00845496
0.0081986
0.00787284
0.00754648
0.00724505
0.00697691
0.00674354
0.00654382
0.00637571
0.00623689
0.0061249
0.00603721
0.00597115
0.00592394
0.00589265
0.00587434
0.00586612
0.00586526
0.00586932
0.00587621
0.00588422
0.00589205
0.0058987
0.00590352
0.00590606
0.005906
0.00590321
0.00589761
0.00588921
0.00587808
0.00586435
0.00584822
0.00582993
0.00580982
0.00578824
0.00576552
0.005742
0.00571794
0.00569359
0.00566911
0.00564456
0.00562004
0.00559558
0.0055712
0.0055472
0.00552335
0.00549943
0.00547521
0.00545052
0.00542521
0.00539919
0.00537237
0.0053447
0.00531615
0.00528672
0.00525655
0.00522604
0.00519498
0.00516323
0.00513082
0.00509788
0.00506456
0.00503113
0.00499791
0.00496551
0.00493442
0.00490805
0.00487833
0.00412435
0.00369251
0.00343489
0.00327279
0.00316402
0.00308538
0.00302379
0.00297057
0.00291989
0.00285396
0.00648443
0.00601132
0.00564716
0.00535653
0.00511891
0.00492101
0.00475359
0.00460993
0.00448423
0.00438274
0.00772358
0.0084575
0.00845131
0.00819504
0.00786937
0.00754304
0.00724157
0.00697331
0.00673978
0.00653988
0.00637162
0.00623268
0.00612066
0.00603303
0.00596716
0.00592026
0.00588942
0.00587168
0.00586413
0.00586405
0.00586898
0.00587682
0.00588588
0.00589483
0.0059027
0.0059088
0.00591265
0.0059139
0.00591232
0.00590776
0.00590017
0.00588953
0.00587595
0.00585962
0.00584081
0.00581993
0.00579738
0.00577357
0.00574889
0.00572367
0.00569816
0.00567258
0.00564709
0.00562179
0.00559674
0.00557196
0.00554745
0.00552317
0.0054991
0.00547533
0.00545207
0.00542917
0.00540647
0.00538385
0.00536124
0.00533865
0.00531612
0.00529372
0.00527156
0.00524981
0.00522869
0.00520832
0.00518887
0.00517059
0.00515382
0.00513898
0.00512688
0.00511858
0.00511869
0.00512999
0.00435038
0.00391636
0.00366032
0.00350051
0.00339475
0.00332011
0.00326325
0.00321493
0.00316576
0.0030979
0.00648439
0.00601123
0.00564702
0.00535633
0.00511865
0.00492069
0.00475321
0.00460949
0.00448371
0.00438215
0.0077214
0.0084547
0.00844811
0.0081915
0.00786553
0.00753892
0.00723719
0.00696871
0.00673498
0.00653495
0.0063666
0.00622765
0.00611569
0.00602821
0.00596257
0.00591596
0.00588548
0.00586816
0.00586108
0.00586151
0.00586698
0.00587542
0.00588513
0.0058948
0.00590347
0.00591046
0.00591527
0.00591748
0.00591676
0.00591288
0.00590562
0.00589489
0.00588073
0.0058633
0.00584294
0.00582015
0.00579543
0.00576931
0.00574227
0.00571471
0.00568695
0.0056592
0.00563167
0.00560444
0.00557757
0.00555106
0.00552487
0.00549897
0.00547329
0.00544777
0.00542238
0.00539707
0.00537179
0.00534652
0.00532125
0.00529597
0.00527072
0.00524554
0.00522052
0.00519577
0.00517148
0.00514869
0.00512744
0.00510778
0.00508982
0.00507388
0.00506074
0.00505152
0.00505113
0.00506319
0.00430629
0.00388588
0.00363837
0.00348429
0.00338264
0.00331122
0.00325706
0.00321115
0.00316379
0.00310187
0.00648435
0.00601114
0.00564688
0.00535615
0.00511843
0.00492044
0.00475292
0.00460919
0.0044834
0.00438183
0.00772026
0.00845286
0.00844552
0.00818818
0.00786149
0.00753424
0.00723196
0.00696304
0.00672901
0.0065288
0.00636042
0.00622157
0.00610984
0.00602268
0.00595744
0.00591128
0.00588126
0.00586436
0.00585766
0.0058584
0.00586417
0.00587289
0.00588292
0.00589301
0.00590226
0.00591001
0.00591575
0.005919
0.0059193
0.00591621
0.00590932
0.00589834
0.00588321
0.00586407
0.00584137
0.0058157
0.00578775
0.00575818
0.00572757
0.00569643
0.00566517
0.00563405
0.00560322
0.00557274
0.00554265
0.00551291
0.00548345
0.00545424
0.0054252
0.00539628
0.00536742
0.00533857
0.00530968
0.00528071
0.00525165
0.0052225
0.00519329
0.00516406
0.00513487
0.00510582
0.005077
0.00504859
0.00502074
0.00499365
0.00496755
0.00494269
0.00491957
0.00489864
0.00488294
0.00486996
0.00413894
0.00372773
0.00348223
0.00332705
0.00322673
0.00315836
0.00310819
0.00306733
0.00303078
0.00298217
0.00648432
0.00601105
0.00564675
0.00535598
0.00511823
0.00492022
0.0047527
0.00460896
0.00448317
0.00438157
0.00771827
0.00844942
0.00844093
0.00818281
0.00785566
0.00752819
0.00722588
0.00695708
0.0067233
0.00652348
0.00635563
0.00621751
0.00610669
0.00602066
0.00595669
0.0059119
0.00588325
0.00586769
0.00586223
0.00586414
0.00587106
0.005881
0.00589245
0.00590429
0.00591571
0.00592608
0.00593484
0.00594134
0.0059448
0.00594438
0.0059392
0.00592864
0.00591248
0.00589097
0.00586477
0.00583487
0.00580232
0.00576811
0.00573307
0.00569783
0.00566281
0.00562825
0.00559423
0.00556071
0.00552761
0.00549481
0.00546214
0.00542947
0.00539669
0.00536372
0.0053305
0.00529696
0.00526306
0.00522876
0.00519401
0.00515879
0.00512309
0.00508694
0.00505038
0.00501347
0.00497631
0.004939
0.00490172
0.00486468
0.00482814
0.00479243
0.00475814
0.00472573
0.00469875
0.00466854
0.00394237
0.00352532
0.00327422
0.00311485
0.00300742
0.00292996
0.00287
0.00281915
0.00277357
0.00271405
0.00648428
0.00601097
0.00564663
0.00535584
0.00511808
0.0049201
0.00475264
0.00460904
0.0044835
0.00438226
0.0077215
0.0084511
0.00844031
0.00818005
0.00785128
0.00752295
0.00722076
0.00695326
0.00672217
0.00652659
0.00636467
0.0062341
0.00613229
0.00605633
0.00600307
0.00596912
0.00595105
0.0059455
0.00594943
0.00596016
0.0059755
0.00599374
0.0060136
0.00603416
0.00605469
0.00607451
0.00609282
0.00610846
0.00611994
0.00612545
0.00612317
0.00611181
0.00609095
0.00606114
0.0060238
0.00598092
0.0059346
0.00588681
0.0058392
0.00579301
0.005749
0.00570753
0.00566859
0.0056319
0.00559701
0.00556339
0.00553056
0.00549807
0.00546557
0.0054328
0.00539959
0.00536589
0.0053317
0.0052971
0.00526222
0.00522723
0.00519236
0.00515785
0.00512399
0.00509109
0.0050595
0.00502958
0.00500171
0.0049763
0.00495376
0.00493451
0.00491924
0.00490861
0.0049065
0.00490449
0.00411783
0.00365122
0.00336089
0.00317267
0.00304617
0.00295822
0.0028948
0.00284613
0.00280653
0.00275916
0.00648424
0.00601089
0.00564651
0.0053557
0.00511794
0.00491997
0.00475257
0.00460906
0.00448369
0.00438256
0.00771595
0.00844249
0.00843302
0.00817654
0.00785534
0.00754017
0.00725787
0.00701735
0.00681989
0.00666342
0.00654423
0.00645784
0.00639941
0.00636409
0.00634724
0.00634467
0.00635278
0.00636857
0.0063897
0.0064144
0.00644142
0.0064699
0.00649929
0.00652922
0.00655939
0.00658938
0.00661845
0.00664526
0.00666777
0.00668309
0.00668789
0.00667923
0.00665535
0.00661592
0.00656214
0.00649634
0.00642142
0.00634058
0.00625702
0.00617377
0.00609351
0.00601847
0.00595033
0.00589014
0.00583853
0.00579554
0.0057606
0.00573268
0.0057107
0.00569346
0.00567979
0.00566862
0.0056591
0.00565045
0.00564226
0.00563434
0.00562674
0.00561959
0.00561311
0.00560754
0.00560316
0.0056002
0.00559888
0.0055994
0.00560197
0.0056068
0.00561419
0.00562472
0.00564243
0.00566144
0.00461444
0.00400216
0.00362667
0.00338834
0.00323307
0.00312953
0.00305865
0.00300781
0.00296887
0.00293018
0.00648421
0.00601081
0.00564641
0.00535558
0.00511785
0.00491997
0.00475282
0.00460985
0.0044862
0.00437842
0.00430331
0.00423826
0.00417159
0.0041083
0.00404918
0.00399399
0.00394263
0.00389504
0.00385111
0.0038107
0.00377367
0.00373981
0.00370896
0.00368089
0.00365543
0.00363238
0.00361155
0.00359278
0.0035759
0.00356079
0.00354734
0.00353544
0.00352505
0.00351613
0.00350868
0.00350275
0.00349837
0.00349551
0.00349409
0.00349384
0.00349429
0.00349488
0.00349502
0.00349422
0.00349216
0.00348869
0.00348379
0.00347748
0.00346978
0.00346096
0.00345128
0.00344103
0.00343043
0.00341972
0.00340908
0.00339862
0.0033884
0.00337854
0.00336903
0.00335974
0.00335055
0.00334129
0.0033318
0.00332208
0.00331209
0.00330178
0.00329112
0.00328014
0.00326885
0.00325729
0.0032455
0.00323354
0.00322143
0.00320922
0.00319696
0.00318471
0.00317256
0.00316058
0.00314883
0.00313728
0.00312151
0.00310514
0.00308948
0.00307491
0.00306147
0.00304908
0.00303757
0.00302652
0.00301626
0.0030015
0.00648417
0.00601073
0.00564629
0.00535545
0.00511771
0.00491984
0.00475273
0.00460985
0.00448636
0.00437869
0.00428437
0.00420134
0.00412769
0.00406192
0.00400284
0.00394948
0.00390105
0.00385693
0.00381659
0.0037796
0.0037456
0.00371429
0.00368543
0.00365882
0.00363426
0.00361162
0.00359076
0.0035716
0.00355403
0.00353801
0.00352347
0.00351041
0.00349882
0.00348874
0.00348025
0.00347348
0.00346857
0.00346562
0.00346464
0.00346532
0.00346706
0.00346906
0.00347049
0.00347075
0.0034695
0.00346665
0.00346221
0.00345633
0.00344919
0.00344105
0.00343212
0.0034226
0.00341267
0.00340247
0.00339208
0.00338159
0.00337105
0.00336049
0.00334993
0.00333938
0.00332881
0.00331821
0.00330755
0.0032968
0.00328594
0.00327493
0.0032638
0.00325252
0.00324106
0.00322942
0.0032176
0.00320561
0.00319348
0.00318127
0.00316903
0.00315683
0.00314472
0.00313275
0.00312095
0.00310928
0.0030977
0.00308633
0.00307534
0.00306485
0.0030549
0.00304553
0.00303672
0.00302831
0.00302094
0.00301007
0.00648413
0.00601065
0.00564618
0.00535531
0.00511756
0.00491971
0.00475267
0.0046099
0.00448663
0.00437927
0.00428513
0.00420204
0.00412822
0.00406222
0.00400288
0.00394925
0.00390056
0.00385615
0.00381551
0.00377819
0.00374384
0.00371215
0.00368287
0.0036558
0.00363075
0.00360759
0.0035862
0.00356646
0.00354832
0.00353171
0.00351659
0.00350297
0.00349086
0.00348034
0.00347156
0.00346476
0.00346022
0.00345825
0.00345904
0.00346226
0.00346699
0.00347205
0.00347625
0.00347874
0.00347906
0.00347715
0.00347307
0.00346706
0.00345942
0.00345054
0.00344069
0.00343012
0.00341909
0.00340776
0.00339628
0.00338468
0.00337308
0.00336155
0.00335015
0.00333887
0.00332772
0.00331669
0.00330574
0.00329484
0.00328397
0.00327309
0.00326218
0.0032512
0.00324015
0.00322902
0.0032178
0.00320651
0.00319516
0.00318378
0.0031724
0.00316107
0.00314983
0.00313873
0.00312781
0.00311713
0.00310668
0.0030965
0.00308666
0.00307721
0.00306817
0.00305951
0.00305115
0.00304274
0.00303445
0.00302023
0.0064841
0.00601057
0.00564606
0.00535515
0.00511736
0.00491949
0.00475242
0.00460963
0.00448633
0.0043789
0.0042846
0.00420127
0.00412716
0.00406086
0.0040012
0.00394726
0.00389825
0.00385353
0.00381256
0.00377491
0.00374022
0.00370817
0.00367853
0.00365108
0.00362565
0.0036021
0.00358031
0.00356019
0.00354164
0.00352463
0.00350911
0.00349507
0.00348257
0.00347169
0.00346266
0.00345584
0.00345175
0.00345104
0.00345441
0.00346167
0.00347153
0.00348209
0.00349133
0.0034979
0.00350123
0.00350125
0.0034982
0.00349246
0.00348458
0.00347519
0.00346467
0.00345337
0.00344157
0.00342948
0.00341728
0.00340508
0.00339296
0.00338096
0.00336912
0.00335743
0.00334588
0.00333445
0.0033231
0.0033118
0.00330051
0.0032892
0.00327784
0.00326642
0.00325491
0.00324331
0.00323161
0.00321983
0.00320797
0.00319606
0.00318414
0.00317222
0.00316036
0.0031486
0.00313696
0.00312548
0.00311418
0.00310306
0.00309223
0.00308192
0.00307212
0.00306281
0.00305389
0.00304507
0.00303638
0.00302149
0.00648406
0.00601049
0.00564593
0.00535497
0.00511715
0.00491923
0.00475213
0.00460931
0.00448597
0.00437849
0.00428409
0.00420059
0.00412626
0.00405969
0.00399973
0.00394544
0.00389605
0.00385093
0.00380954
0.00377144
0.00373629
0.00370377
0.00367365
0.00364571
0.0036198
0.00359578
0.00357352
0.00355293
0.00353393
0.00351644
0.00350044
0.00348589
0.00347283
0.00346137
0.00345175
0.00344451
0.00344043
0.00344083
0.00344813
0.00346351
0.00348562
0.00351058
0.00353378
0.00355249
0.00356564
0.00357323
0.00357581
0.00357416
0.00356899
0.0035623
0.00355474
0.00354677
0.00353866
0.00353059
0.00352262
0.00351472
0.00350681
0.00349876
0.00349042
0.00348164
0.0034723
0.0034623
0.00345156
0.00344007
0.00342783
0.00341488
0.00340127
0.00338709
0.00337242
0.00335737
0.00334204
0.00332654
0.00331097
0.00329544
0.00328005
0.00326489
0.00325004
0.00323572
0.00322241
0.00321011
0.00319886
0.00318873
0.0031797
0.00317179
0.00316513
0.00315983
0.00315583
0.00315285
0.00315046
0.0031438
0.00648403
0.0060104
0.00564579
0.00535479
0.00511691
0.00491893
0.00475175
0.00460884
0.0044854
0.00437778
0.0042832
0.00419947
0.00412486
0.00405798
0.00399767
0.00394301
0.00389322
0.00384767
0.00380583
0.00376726
0.00373161
0.00369859
0.00366794
0.00363947
0.00361303
0.00358847
0.00356568
0.00354457
0.00352505
0.00350703
0.00349045
0.00347528
0.0034615
0.0034492
0.0034386
0.00343037
0.00342557
0.00342695
0.00344489
0.00348922
0.00355816
0.0036368
0.00370994
0.00377185
0.00382117
0.00385895
0.00388716
0.00390782
0.0039227
0.00393199
0.00393896
0.00394392
0.00394626
0.00394546
0.00394116
0.00393318
0.00392155
0.00390646
0.00388822
0.00386723
0.0038439
0.00381869
0.00379203
0.00376431
0.00373592
0.00370719
0.00367842
0.00364988
0.00362179
0.00359435
0.00356775
0.00354213
0.00351762
0.00349452
0.00347321
0.00345375
0.00343622
0.00342061
0.00340666
0.00339452
0.00338444
0.00337669
0.0033714
0.00336848
0.00336778
0.00336908
0.00337202
0.00337621
0.00338067
0.00338249
0.00648399
0.00601032
0.00564566
0.00535459
0.00511665
0.0049186
0.00475134
0.00460833
0.00448477
0.00437701
0.00428225
0.0041983
0.00412343
0.00405624
0.00399558
0.00394053
0.0038903
0.00384428
0.00380192
0.00376281
0.00372657
0.00369292
0.00366164
0.00363252
0.00360543
0.00358022
0.00355681
0.00353507
0.00351493
0.00349628
0.00347903
0.0034631
0.00344839
0.0034349
0.00342268
0.00341245
0.00340528
0.00340733
0.00347572
0.00365707
0.00391783
0.00417722
0.00438849
0.00454721
0.00465801
0.00472983
0.00477115
0.00478906
0.00478912
0.0047755
0.00474956
0.00471389
0.00467149
0.00462383
0.00457235
0.00451831
0.00446279
0.00440669
0.00435071
0.00429543
0.00424127
0.00418859
0.00413764
0.00408862
0.0040417
0.00399699
0.00395458
0.00391456
0.00387698
0.00384187
0.00380943
0.00377981
0.00375304
0.003729
0.00370749
0.00368864
0.00367251
0.00365912
0.00364842
0.00364024
0.00363567
0.00363393
0.00363444
0.00363671
0.00364028
0.00364481
0.00364976
0.00365471
0.00365764
0.00365818
0.00648396
0.00601024
0.00564552
0.0053544
0.00511638
0.00491825
0.00475089
0.00460777
0.00448407
0.00437613
0.00428117
0.00419697
0.00412181
0.00405428
0.00399324
0.00393775
0.00388705
0.0038405
0.00379757
0.00375783
0.00372093
0.00368658
0.00365456
0.00362469
0.00359684
0.00357089
0.00354674
0.0035243
0.00350347
0.00348413
0.00346618
0.00344949
0.00343389
0.00341926
0.00340532
0.00339269
0.0033818
0.00339092
0.00372651
0.00441055
0.0051103
0.00560473
0.0058812
0.00599829
0.0060057
0.00594463
0.00584431
0.00572418
0.00559639
0.00546803
0.00534281
0.00522302
0.0051095
0.00500327
0.00490453
0.00481303
0.00472838
0.0046501
0.00457773
0.00451083
0.00444899
0.00439182
0.004339
0.00429028
0.00424535
0.00420423
0.00416675
0.00413291
0.00410291
0.00407602
0.00405173
0.0040297
0.00400981
0.00399197
0.00397614
0.00396227
0.0039503
0.00394018
0.00393184
0.00392502
0.00391951
0.00391521
0.00391199
0.00390967
0.00390806
0.00390692
0.00390583
0.00390466
0.00390145
0.00389756
0.00648393
0.00601017
0.0056454
0.00535421
0.00511612
0.0049179
0.00475044
0.0046072
0.00448335
0.00437523
0.00428005
0.00419561
0.00412015
0.00405227
0.00399082
0.00393488
0.00388366
0.00383652
0.00379294
0.00375249
0.0037148
0.00367962
0.00364672
0.00361595
0.00358719
0.00356035
0.00353534
0.00351208
0.00349047
0.00347038
0.00345169
0.00343426
0.00341786
0.00340219
0.00338644
0.00337063
0.0033519
0.00339457
0.00464317
0.00608364
0.00700869
0.00739775
0.00741143
0.00721687
0.00692864
0.00661523
0.00631297
0.00603826
0.0057964
0.005587
0.00540701
0.0052526
0.00511991
0.00500543
0.00490616
0.00481966
0.00474398
0.00467762
0.00461987
0.00457041
0.00452825
0.00449136
0.00445856
0.00442902
0.00440212
0.00437738
0.00435443
0.00433297
0.00431279
0.00429374
0.00427564
0.00425847
0.0042422
0.00422685
0.00421243
0.00419896
0.00418646
0.00417509
0.00416476
0.00415537
0.00414678
0.00413875
0.00413119
0.004124
0.00411714
0.00411054
0.00410385
0.00409712
0.00408846
0.00408046
0.0064839
0.0060101
0.00564528
0.00535404
0.00511588
0.00491757
0.00475
0.00460663
0.00448262
0.00437432
0.00427891
0.0041942
0.00411842
0.00405017
0.00398829
0.00393185
0.00388006
0.00383227
0.00378795
0.00374668
0.00370809
0.00367193
0.00363799
0.00360615
0.00357631
0.00354842
0.00352243
0.00349826
0.0034758
0.00345494
0.0034356
0.00341775
0.00340133
0.00338632
0.00337202
0.00335846
0.0033415
0.00338886
0.00474275
0.00627389
0.00724402
0.00761172
0.00760706
0.00739187
0.00707487
0.00672713
0.00638895
0.00608001
0.00580786
0.00557347
0.00537449
0.00520702
0.00506671
0.00494945
0.00485353
0.00477514
0.00471049
0.00465708
0.00461311
0.00457713
0.00454789
0.00452423
0.00450499
0.00448908