/*--------------------------------*- C++ -*----------------------------------*\
| =========                 |                                                 |
| \\      /  F ield         | OpenFOAM: The Open Source CFD Toolbox           |
|  \\    /   O peration     | Version:  v2012                                 |
|   \\  /    A nd           | Website:  www.openfoam.com                      |
|    \\/     M anipulation  |                                                 |
\*---------------------------------------------------------------------------*/
FoamFile
{
    version     2.0;
    format      ascii;
    class       volScalarField;
    location    "250/air";
    object      qin;
}
// * * * * * * * * * * * * * * * * * * * * * * * * * * * * * * * * * * * * * //

dimensions      [1 0 -3 0 0 0 0];


internalField   uniform 0;

boundaryField
{
    inlet
    {
        type            calculated;
        value           nonuniform List<scalar> 
3200
(
574.617
578.54
576.904
575.639
574.563
573.526
572.498
571.476
570.459
569.45
568.454
567.473
566.507
565.556
564.62
563.696
562.781
561.879
560.99
560.113
559.245
558.382
557.523
556.667
555.816
554.977
554.162
553.394
552.707
552.134
551.705
551.434
551.317
551.321
551.379
551.424
551.425
551.395
551.357
551.323
551.292
551.262
551.239
551.238
551.258
551.296
551.355
551.439
551.552
551.697
551.877
552.095
552.355
552.662
553.018
553.417
553.837
554.245
554.608
554.909
555.162
555.402
555.665
555.958
556.241
556.437
556.469
556.3
555.97
555.582
555.278
555.176
555.333
555.712
556.191
556.596
556.717
556.288
554.899
549.298
565.074
576.167
575.831
574.279
572.945
571.758
570.66
569.612
568.59
567.587
566.612
565.67
564.758
563.862
562.963
562.047
561.119
560.192
559.283
558.395
557.527
556.677
555.843
555.026
554.228
553.453
552.711
552.021
551.407
550.895
550.511
550.271
550.174
550.184
550.233
550.269
550.279
550.273
550.263
550.25
550.231
550.21
550.201
550.215
550.25
550.302
550.374
550.471
550.597
550.755
550.948
551.18
551.455
551.778
552.153
552.579
553.042
553.515
553.971
554.389
554.772
555.14
555.518
555.91
556.281
556.564
556.683
556.591
556.292
555.848
555.352
554.894
554.526
554.23
553.908
553.385
552.466
551.112
549.112
542.603
555.575
570.161
572.623
571.776
570.646
569.519
568.416
567.359
566.352
565.39
564.468
563.576
562.694
561.807
560.906
559.995
559.087
558.199
557.336
556.488
555.639
554.777
553.907
553.042
552.203
551.414
550.693
550.056
549.516
549.086
548.775
548.592
548.525
548.542
548.59
548.633
548.657
548.667
548.67
548.667
548.66
548.651
548.653
548.675
548.715
548.77
548.844
548.941
549.066
549.224
549.419
549.658
549.944
550.287
550.692
551.159
551.676
552.219
552.756
553.265
553.734
554.172
554.588
554.969
555.273
555.426
555.351
555.003
554.397
553.609
552.758
551.97
551.322
550.804
550.294
549.626
548.789
547.995
546.393
539.648
548.784
563.916
568.89
569.171
568.555
567.729
566.743
565.685
564.634
563.621
562.667
561.747
560.822
559.882
558.945
558.038
557.182
556.374
555.588
554.783
553.905
552.941
551.928
550.921
549.977
549.143
548.448
547.895
547.477
547.183
547.004
546.927
546.931
546.983
547.048
547.101
547.137
547.159
547.17
547.173
547.171
547.171
547.18
547.207
547.249
547.308
547.388
547.496
547.637
547.816
548.037
548.303
548.617
548.983
549.406
549.887
550.418
550.975
551.519
552.006
552.404
552.701
552.897
552.994
552.976
552.81
552.465
551.941
551.285
550.587
549.952
549.449
549.072
548.726
548.282
547.739
547.343
547.088
545.082
537.934
544.107
558.315
565.071
566.398
566.195
565.683
564.94
564.022
563.024
562.008
561.018
560.045
559.063
558.071
557.087
556.146
555.274
554.465
553.68
552.858
551.94
550.931
549.885
548.882
547.995
547.271
546.716
546.307
546.016
545.818
545.7
545.65
545.655
545.693
545.745
545.796
545.839
545.869
545.888
545.898
545.905
545.917
545.942
545.982
546.041
546.12
546.223
546.356
546.522
546.724
546.962
547.234
547.539
547.875
548.241
548.636
549.048
549.454
549.817
550.102
550.284
550.361
550.351
550.28
550.164
550.004
549.792
549.53
549.234
548.931
548.634
548.326
547.967
547.525
547.058
546.791
546.924
546.737
543.792
536.665
540.534
553.004
560.858
563.17
563.29
563.028
562.609
562.022
561.308
560.51
559.591
558.533
557.413
556.293
555.191
554.128
553.142
552.248
551.425
550.606
549.787
548.992
548.205
547.447
546.783
546.253
545.847
545.528
545.259
545.024
544.827
544.68
544.593
544.562
544.575
544.613
544.661
544.707
544.745
544.777
544.808
544.846
544.898
544.965
545.047
545.145
545.259
545.391
545.541
545.71
545.895
546.091
546.296
546.509
546.731
546.966
547.209
547.448
547.66
547.823
547.926
547.98
548.018
548.076
548.174
548.3
548.415
548.463
548.393
548.17
547.79
547.287
546.741
546.285
546.112
546.401
546.908
546.243
542.312
535.717
537.394
547.86
556.297
559.693
560.259
560.239
560.136
559.915
559.574
559.149
558.428
557.29
555.944
554.602
553.316
552.097
550.991
550.038
549.244
548.518
547.93
547.524
547.141
546.664
546.14
545.652
545.228
544.85
544.494
544.152
543.838
543.582
543.41
543.327
543.32
543.361
543.427
543.5
543.57
543.634
543.695
543.759
543.828
543.902
543.979
544.056
544.132
544.207
544.283
544.361
544.443
544.528
544.619
544.721
544.843
544.993
545.177
545.39
545.619
545.848
546.07
546.295
546.544
546.836
547.159
547.46
547.655
547.656
547.409
546.928
546.304
545.69
545.262
545.187
545.579
546.347
546.782
545.29
540.709
535.008
534.604
543.215
551.813
556.365
557.563
557.782
557.912
557.944
557.852
557.733
557.268
556.17
554.678
553.148
551.708
550.379
549.214
548.268
547.56
546.961
546.572
546.466
546.37
546.025
545.451
544.808
544.207
543.682
543.225
542.823
542.475
542.197
542.013
541.931
541.936
541.998
542.088
542.187
542.283
542.369
542.441
542.501
542.552
542.594
542.626
542.648
542.661
542.669
542.676
542.691
542.717
542.762
542.829
542.927
543.064
543.253
543.5
543.805
544.154
544.53
544.915
545.299
545.677
546.032
546.321
546.476
546.424
546.123
545.6
544.964
544.38
544.025
544.032
544.467
545.293
546.172
546.137
543.822
539.071
534.424
532.368
539.398
547.716
553.302
555.233
555.654
555.915
556.118
556.156
556.161
555.879
554.937
553.483
551.912
550.428
549.077
547.913
546.997
546.356
545.837
545.51
545.476
545.459
545.118
544.427
543.597
542.818
542.178
541.681
541.294
540.988
540.751
540.596
540.53
540.543
540.607
540.695
540.79
540.88
540.955
541.009
541.04
541.052
541.05
541.041
541.027
541.013
541.007
541.013
541.041
541.095
541.18
541.301
541.461
541.671
541.94
542.276
542.676
543.123
543.586
544.027
544.409
544.699
544.867
544.88
544.715
544.366
543.877
543.34
542.886
542.648
542.72
543.141
543.902
544.861
545.519
544.851
541.94
537.429
533.837
530.898
536.546
544.101
550.378
553.066
553.665
553.958
554.321
554.52
554.565
554.329
553.515
552.182
550.682
549.259
547.979
546.884
546.018
545.411
544.92
544.552
544.413
544.325
543.962
543.244
542.358
541.527
540.861
540.37
540.011
539.736
539.52
539.366
539.28
539.259
539.28
539.322
539.371
539.419
539.457
539.478
539.483
539.478
539.472
539.47
539.475
539.49
539.519
539.569
539.643
539.745
539.879
540.049
540.262
540.527
540.853
541.243
541.683
542.14
542.565
542.9
543.097
543.129
542.995
542.72
542.346
541.934
541.556
541.286
541.194
541.322
541.698
542.33
543.185
544.046
544.299
543.001
539.78
535.779
533.154
530.231
534.631
540.992
547.491
550.916
551.75
551.978
552.432
552.872
553.046
552.822
552.037
550.75
549.292
547.942
546.791
545.845
545.103
544.557
544.089
543.654
543.353
543.135
542.77
542.138
541.352
540.594
539.97
539.487
539.108
538.796
538.535
538.327
538.179
538.089
538.04
538.014
538
537.995
537.991
537.984
537.982
537.996
538.032
538.084
538.144
538.207
538.275
538.353
538.449
538.568
538.716
538.905
539.143
539.437
539.784
540.169
540.559
540.904
541.149
541.243
541.165
540.933
540.6
540.239
539.926
539.714
539.634
539.691
539.882
540.212
540.708
541.394
542.209
542.834
542.591
540.754
537.485
534.127
532.331
530.097
533.433
538.359
544.601
548.695
549.923
550.044
550.408
551.044
551.491
551.415
550.661
549.333
547.794
546.407
545.336
544.577
544.044
543.643
543.248
542.795
542.371
542.028
541.655
541.14
540.507
539.867
539.298
538.806
538.369
537.974
537.627
537.339
537.12
536.963
536.857
536.784
536.735
536.702
536.678
536.663
536.666
536.697
536.753
536.827
536.908
536.988
537.069
537.157
537.262
537.394
537.561
537.772
538.027
538.315
538.617
538.9
539.123
539.246
539.235
539.082
538.813
538.489
538.189
537.984
537.917
537.989
538.17
538.42
538.723
539.108
539.631
540.307
540.997
541.285
540.517
538.284
535.186
532.496
531.373
530.007
532.561
536.056
541.658
546.283
548.107
548.22
548.317
548.949
549.682
549.922
549.353
548.04
546.372
544.827
543.714
543.076
542.758
542.549
542.281
541.887
541.429
541
540.595
540.141
539.61
539.05
538.512
538.006
537.524
537.067
536.654
536.305
536.032
535.835
535.705
535.627
535.588
535.574
535.58
535.602
535.624
535.619
535.58
535.526
535.495
535.509
535.572
535.678
535.829
536.028
536.273
536.545
536.812
537.042
537.208
537.291
537.282
537.174
536.98
536.728
536.469
536.266
536.172
536.216
536.388
536.647
536.942
537.241
537.561
537.962
538.498
539.122
539.603
539.478
538.219
535.766
532.994
530.921
530.312
529.599
531.691
533.963
538.673
543.589
546.155
546.515
546.351
546.764
547.613
548.193
547.964
546.836
545.131
543.399
542.121
541.457
541.24
541.174
541.052
540.791
540.406
539.97
539.538
539.093
538.594
538.058
537.524
537.013
536.523
536.055
535.623
535.248
534.945
534.725
534.59
534.532
534.532
534.575
534.667
534.789
534.853
534.753
534.47
534.096
533.777
533.612
533.614
533.746
533.976
534.292
534.665
535.033
535.317
535.461
535.461
535.347
535.167
534.96
534.761
534.601
534.511
534.519
534.637
534.857
535.144
535.456
535.759
536.054
536.39
536.823
537.354
537.856
538.042
537.476
535.822
533.326
530.975
529.42
529.18
528.821
530.733
532.084
535.776
540.657
543.962
544.892
544.715
544.847
545.568
546.305
546.411
545.606
544.043
542.241
540.789
539.972
539.676
539.605
539.553
539.417
539.155
538.786
538.385
537.972
537.514
537.003
536.476
535.965
535.483
535.028
534.601
534.216
533.892
533.652
533.512
533.475
533.516
533.625
533.824
534.067
534.176
533.953
533.37
532.609
531.94
531.544
531.442
531.556
531.823
532.214
532.689
533.146
533.464
533.568
533.476
533.273
533.065
532.931
532.915
533.026
533.247
533.55
533.901
534.271
534.645
535.023
535.425
535.881
536.414
536.99
537.488
537.695
537.328
536.076
533.863
531.23
529.153
527.905
527.907
527.865
529.802
530.541
533.195
537.684
541.538
543.257
543.4
543.326
543.687
544.27
544.539
544.114
542.953
541.412
540.018
539.09
538.588
538.309
538.12
537.935
537.686
537.36
537.026
536.716
536.379
535.971
535.502
535.013
534.536
534.08
533.647
533.244
532.896
532.632
532.484
532.455
532.519
532.672
532.941
533.243
533.333
532.984
532.189
531.195
530.329
529.794
529.592
529.62
529.808
530.144
530.6
531.074
531.428
531.575
531.535
531.41
531.313
531.319
531.448
531.684
531.994
532.342
532.703
533.06
533.413
533.782
534.202
534.703
535.277
535.827
536.181
536.122
535.411
533.839
531.52
529.14
527.509
526.553
526.708
526.939
529.025
529.413
531.098
534.879
538.935
541.427
542.108
541.942
541.802
541.942
542.133
542.051
541.509
540.604
539.627
538.792
538.111
537.524
537.026
536.592
536.179
535.781
535.464
535.26
535.096
534.871
534.542
534.133
533.689
533.24
532.799
532.383
532.014
531.722
531.542
531.481
531.524
531.679
531.946
532.187
532.149
531.668
530.813
529.848
529.059
528.576
528.346
528.254
528.255
528.39
528.68
529.062
529.415
529.651
529.766
529.826
529.905
530.046
530.258
530.525
530.829
531.154
531.487
531.825
532.177
532.569
533.037
533.591
534.165
534.612
534.753
534.408
533.393
531.598
529.303
527.254
526.023
525.259
525.498
526.127
528.391
528.619
529.472
532.344
536.215
539.279
540.591
540.517
539.943
539.534
539.443
539.519
539.527
539.334
538.936
538.37
537.664
536.88
536.124
535.426
534.791
534.239
533.846
533.659
533.61
533.567
533.426
533.169
532.83
532.453
532.069
531.693
531.333
530.998
530.721
530.535
530.469
530.56
530.756
530.85
530.617
530.014
529.208
528.448
527.913
527.617
527.437
527.241
527.018
526.872
526.9
527.1
527.395
527.71
528.02
528.327
528.627
528.911
529.171
529.42
529.676
529.954
530.261
530.597
530.973
531.416
531.944
532.518
533.022
533.293
533.191
532.587
531.333
529.41
527.249
525.57
524.666
524.015
524.292
525.366
527.751
527.939
528.142
530.071
533.465
536.852
538.836
539.137
538.433
537.612
537.153
537.122
537.346
537.576
537.603
537.32
536.74
535.976
535.162
534.352
533.577
532.883
532.359
532.081
532.028
532.074
532.085
531.998
531.822
531.601
531.372
531.124
530.816
530.419
529.966
529.541
529.263
529.213
529.295
529.24
528.851
528.191
527.488
526.944
526.634
526.498
526.37
526.097
525.675
525.264
525.033
525.044
525.258
525.633
526.138
526.722
527.294
527.767
528.106
528.345
528.551
528.781
529.065
529.412
529.833
530.339
530.906
531.442
531.802
531.858
531.531
530.72
529.293
527.334
525.391
524.084
523.422
522.824
523.115
524.536
526.952
527.173
526.932
528.025
530.786
534.251
536.885
537.832
537.386
536.423
535.647
535.34
535.445
535.717
535.879
535.764
535.365
534.775
534.081
533.319
532.522
531.749
531.102
530.684
530.526
530.544
530.607
530.623
530.585
530.538
530.504
530.428
530.194
529.732
529.082
528.392
527.872
527.654
527.615
527.463
527.029
526.422
525.861
525.466
525.237
525.112
524.95
524.593
524.028
523.446
523.068
522.981
523.157
523.574
524.223
525.041
525.876
526.564
527.023
527.287
527.459
527.644
527.904
528.268
528.743
529.301
529.861
530.285
530.45
530.299
529.802
528.84
527.298
525.384
523.727
522.764
522.257
521.673
521.968
523.476
525.86
526.191
525.707
526.098
528.055
531.233
534.336
536.138
536.38
535.633
534.708
534.105
533.908
533.939
533.951
533.807
533.516
533.139
532.68
532.139
531.492
530.771
530.082
529.55
529.249
529.152
529.151
529.147
529.122
529.125
529.166
529.143
528.903
528.376
527.634
526.862
526.296
526.044
525.959
525.776
525.393
524.939
524.565
524.274
524.001
523.726
523.403
522.938
522.345
521.819
521.561
521.594
521.83
522.235
522.851
523.671
524.567
525.35
525.895
526.207
526.386
526.558
526.818
527.207
527.709
528.239
528.663
528.862
528.799
528.486
527.867
526.773
525.166
523.425
522.164
521.526
521.088
520.492
520.78
522.322
524.627
525.103
524.552
524.46
525.579
528.078
531.199
533.704
534.84
534.631
533.805
533.034
532.553
532.27
532.004
531.668
531.312
531.008
530.735
530.499
530.171
529.69
529.127
528.605
528.226
528.017
527.913
527.816
527.689
527.562
527.432
527.205
526.773
526.147
525.455
524.872
524.553
524.5
524.512
524.374
524.072
523.766
523.554
523.352
523.045
522.628
522.144
521.614
521.136
520.903
521.017
521.355
521.717
522.04
522.417
522.939
523.571
524.186
524.669
524.996
525.229
525.467
525.786
526.203
526.653
527.015
527.18
527.121
526.892
526.489
525.76
524.535
522.952
521.534
520.727
520.34
519.888
519.28
519.552
521.336
523.511
524.105
523.587
523.263
523.744
525.433
528.122
530.893
532.779
533.243
532.742
531.984
531.331
530.812
530.317
529.783
529.262
528.859
528.594
528.559
528.56
528.415
528.126
527.773
527.45
527.221
527.063
526.892
526.642
526.298
525.848
525.245
524.493
523.711
523.081
522.738
522.725
522.929
523.111
523.094
522.911
522.728
522.626
522.511
522.264
521.868
521.377
520.878
520.552
520.602
521.043
521.636
522.099
522.342
522.474
522.638
522.886
523.181
523.47
523.741
524.025
524.364
524.766
525.182
525.506
525.644
525.58
525.384
525.108
524.645
523.776
522.442
520.989
519.961
519.534
519.264
518.756
518.164
518.419
520.438
522.436
523.12
522.666
522.274
522.361
523.323
525.345
527.967
530.309
531.436
531.423
530.854
530.15
529.485
528.858
528.217
527.569
527.007
526.602
526.579
526.761
526.894
526.912
526.835
526.708
526.581
526.454
526.248
525.875
525.292
524.494
523.507
522.439
521.49
520.861
520.644
520.793
521.137
521.452
521.605
521.627
521.634
521.669
521.668
521.56
521.331
520.989
520.593
520.331
520.428
520.911
521.541
522.026
522.246
522.274
522.237
522.216
522.238
522.32
522.489
522.77
523.152
523.569
523.911
524.079
524.054
523.913
523.739
523.483
522.924
521.88
520.496
519.267
518.62
518.445
518.184
517.618
517.077
517.321
519.511
521.335
522.112
521.742
521.379
521.288
521.727
523.053
525.236
527.696
529.35
529.913
529.704
529.091
528.362
527.666
526.998
526.314
525.646
525.06
524.892
525.044
525.269
525.487
525.681
525.826
525.907
525.878
525.65
525.135
524.311
523.223
521.974
520.73
519.703
519.071
518.887
519.058
519.399
519.748
520.047
520.325
520.608
520.855
521.002
521.046
521.017
520.885
520.611
520.305
520.199
520.419
520.852
521.263
521.502
521.565
521.523
521.443
521.37
521.353
521.437
521.643
521.934
522.215
522.381
522.397
522.325
522.26
522.193
521.93
521.217
520.023
518.698
517.766
517.439
517.38
517.057
516.458
515.997
516.238
518.512
520.233
521.141
520.888
520.602
520.482
520.62
521.368
522.985
525.266
527.222
528.334
528.611
528.241
527.539
526.794
526.108
525.435
524.74
524.033
523.676
523.655
523.779
524.013
524.351
524.721
525.009
525.085
524.824
524.168
523.166
521.943
520.649
519.447
518.499
517.929
517.761
517.888
518.141
518.424
518.762
519.211
519.733
520.189
520.473
520.616
520.712
520.741
520.579
520.211
519.835
519.684
519.814
520.085
520.331
520.48
520.556
520.602
520.643
520.69
520.753
520.828
520.887
520.884
520.804
520.701
520.669
520.725
520.708
520.334
519.431
518.174
517.034
516.431
516.337
516.292
515.889
515.297
514.935
515.178
517.527
519.253
520.335
520.234
520.038
519.962
519.973
520.321
521.386
523.282
525.273
526.779
527.56
527.556
526.987
526.215
525.473
524.788
524.109
523.371
522.888
522.678
522.605
522.694
522.988
523.405
523.766
523.864
523.556
522.828
521.81
520.684
519.6
518.654
517.923
517.474
517.316
517.367
517.492
517.635
517.871
518.289
518.849
519.372
519.704
519.865
519.98
520.071
519.997
519.654
519.159
518.777
518.674
518.801
519.011
519.225
519.46
519.745
520.052
520.29
520.376
520.275
520.015
519.673
519.365
519.211
519.249
519.352
519.235
518.636
517.557
516.347
515.478
515.18
515.225
515.138
514.675
514.136
513.89
514.146
516.718
518.538
519.815
519.876
519.75
519.722
519.704
519.817
520.423
521.831
523.6
525.255
526.44
526.862
526.546
525.815
525.002
524.258
523.581
522.874
522.363
522.049
521.8
521.671
521.752
521.994
522.218
522.21
521.846
521.163
520.327
519.517
518.822
518.247
517.782
517.45
517.272
517.215
517.195
517.173
517.213
517.413
517.772
518.153
518.406
518.515
518.581
518.658
518.65
518.434
518.046
517.683
517.513
517.542
517.688
517.929
518.319
518.878
519.489
519.932
520.015
519.699
519.115
518.501
518.084
517.969
518.067
518.1
517.749
516.883
515.697
514.626
514.039
513.962
514.047
513.883
513.394
512.946
512.825
513.114
516.222
518.154
519.599
519.793
519.688
519.663
519.64
519.628
519.891
520.795
522.158
523.709
525.123
525.959
526.004
525.432
524.594
523.759
523.038
522.362
521.889
521.57
521.232
520.9
520.684
520.592
520.51
520.297
519.887
519.342
518.809
518.398
518.109
517.868
517.617
517.362
517.147
516.987
516.852
516.702
516.558
516.486
516.526
516.632
516.718
516.743
516.753
516.793
516.83
516.778
516.622
516.445
516.34
516.329
516.411
516.655
517.166
517.941
518.771
519.315
519.317
518.774
517.951
517.222
516.854
516.857
516.984
516.866
516.251
515.187
514.013
513.145
512.79
512.815
512.842
512.573
512.071
511.725
511.721
512.057
516.059
518.039
519.584
519.851
519.705
519.626
519.577
519.496
519.524
519.986
520.875
522.139
523.596
524.765
525.223
524.925
524.144
523.224
522.408
521.718
521.287
521.022
520.678
520.207
519.706
519.243
518.813
518.384
517.955
517.577
517.322
517.208
517.165
517.097
516.954
516.758
516.559
516.392
516.24
516.063
515.833
515.576
515.35
515.196
515.108
515.058
515.037
515.06
515.124
515.196
515.24
515.25
515.235
515.212
515.244
515.471
516.026
516.875
517.741
518.23
518.086
517.381
516.485
515.829
515.63
515.768
515.875
515.589
514.791
513.689
512.668
512.041
511.851
511.871
511.763
511.36
510.835
510.568
510.647
511.018
516.097
518.015
519.581
519.856
519.625
519.45
519.351
519.23
519.121
519.262
519.724
520.625
521.964
523.319
524.137
524.157
523.507
522.542
521.617
520.872
520.461
520.264
519.964
519.423
518.709
517.949
517.251
516.681
516.27
516.019
515.907
515.873
515.84
515.756
515.635
515.527
515.468
515.451
515.432
515.349
515.154
514.853
514.506
514.203
514.001
513.903
513.878
513.907
513.989
514.112
514.243
514.335
514.357
514.317
514.306
514.478
514.953
515.672
516.36
516.661
516.387
515.679
514.925
514.502
514.511
514.721
514.744
514.315
513.472
512.509
511.764
511.398
511.324
511.282
511.01
510.463
509.896
509.664
509.776
510.139
516.148
517.902
519.429
519.679
519.355
519.081
518.928
518.791
518.629
518.588
518.741
519.291
520.385
521.727
522.743
523.023
522.546
521.612
520.634
519.855
519.461
519.327
519.087
518.524
517.685
516.749
515.915
515.308
514.944
514.753
514.626
514.475
514.27
514.058
513.936
513.977
514.175
514.446
514.677
514.776
514.698
514.453
514.11
513.773
513.529
513.407
513.384
513.429
513.522
513.647
513.771
513.852
513.854
513.786
513.721
513.776
514.029
514.426
514.767
514.824
514.518
514.006
513.591
513.488
513.661
513.834
513.706
513.177
512.415
511.719
511.311
511.203
511.222
511.115
510.699
510.031
509.422
509.19
509.287
509.588
516.063
517.6
519.066
519.295
518.911
518.566
518.379
518.247
518.093
517.988
517.96
518.21
518.969
520.09
521.083
521.499
521.206
520.413
519.514
518.792
518.455
518.386
518.199
517.635
516.735
515.728
514.868
514.298
513.991
513.8
513.568
513.218
512.803
512.469
512.38
512.612
513.1
513.681
514.177
514.469
514.522
514.371
514.092
513.788
513.548
513.415
513.386
513.435
513.531
513.643
513.736
513.78
513.751
513.652
513.515
513.394
513.324
513.29
513.226
513.071
512.852
512.686
512.702
512.908
513.146
513.178
512.864
512.281
511.676
511.29
511.206
511.323
511.422
511.277
510.771
510.036
509.413
509.174
509.237
509.438
515.804
517.122
518.538
518.781
518.383
518.01
517.813
517.7
517.58
517.475
517.358
517.365
517.748
518.496
519.276
519.705
519.599
519.064
518.401
517.864
517.645
517.646
517.493
516.928
516.003
514.982
514.15
513.638
513.372
513.153
512.812
512.311
511.774
511.41
511.403
511.802
512.495
513.276
513.936
514.353
514.505
514.441
514.243
514
513.787
513.65
513.605
513.641
513.73
513.834
513.916
513.947
513.908
513.783
513.56
513.237
512.833
512.392
511.991
511.721
511.67
511.873
512.264
512.668
512.859
512.692
512.204
511.615
511.189
511.078
511.249
511.53
511.693
511.536
510.998
510.259
509.668
509.445
509.483
509.587
515.414
516.547
517.938
518.234
517.867
517.496
517.305
517.208
517.116
517.023
516.857
516.675
516.701
517.031
517.51
517.88
517.964
517.764
517.453
517.195
517.14
517.206
517.067
516.493
515.559
514.553
513.761
513.29
513.035
512.785
512.387
511.847
511.32
511.022
511.108
511.587
512.325
513.117
513.779
514.214
514.411
514.418
514.303
514.137
513.97
513.844
513.784
513.8
513.877
513.981
514.073
514.118
514.082
513.928
513.611
513.11
512.454
511.752
511.177
510.907
511.033
511.497
512.087
512.516
512.564
512.197
511.595
511.046
510.786
510.876
511.208
511.584
511.782
511.627
511.095
510.403
509.887
509.711
509.751
509.796
514.966
515.955
517.343
517.719
517.407
517.052
516.865
516.77
516.679
516.579
516.374
516.055
515.805
515.786
515.989
516.291
516.548
516.688
516.752
516.793
516.904
517.021
516.878
516.296
515.374
514.404
513.653
513.202
512.934
512.657
512.254
511.761
511.331
511.137
511.278
511.723
512.346
512.98
513.502
513.859
514.052
514.109
514.078
514
513.901
513.809
513.756
513.765
513.837
513.945
514.049
514.1
514.049
513.842
513.434
512.816
512.05
511.283
510.722
510.545
510.799
511.35
511.917
512.204
512.053
511.531
510.893
510.426
510.301
510.512
510.92
511.329
511.533
511.376
510.868
510.25
509.832
509.725
509.791
509.83
514.52
515.398
516.792
517.259
517.007
516.665
516.471
516.36
516.243
516.11
515.867
515.47
515.062
514.828
514.852
515.106
515.492
515.897
516.265
516.557
516.803
516.952
516.804
516.23
515.354
514.451
513.754
513.314
513.017
512.705
512.308
511.878
511.546
511.426
511.559
511.886
512.302
512.694
513.008
513.239
513.394
513.475
513.511
513.522
513.507
513.477
513.464
513.498
513.583
513.697
513.793
513.813
513.7
513.407
512.916
512.257
511.523
510.867
510.464
510.426
510.732
511.204
511.572
511.608
511.25
510.64
510.039
509.68
509.661
509.934
510.361
510.764
510.952
510.785
510.304
509.765
509.446
509.41
509.509
509.58
514.079
514.867
516.265
516.818
516.624
516.284
516.07
515.928
515.77
515.589
515.315
514.897
514.446
514.139
514.086
514.307
514.741
515.28
515.828
516.282
516.621
516.795
516.655
516.123
515.334
514.536
513.915
513.491
513.155
512.789
512.365
511.951
511.654
511.543
511.613
511.793
512.002
512.172
512.298
512.409
512.508
512.581
512.645
512.716
512.778
512.825
512.88
512.969
513.088
513.208
513.272
513.219
513.001
512.605
512.056
511.427
510.829
510.389
510.205
510.299
510.583
510.869
510.954
510.716
510.193
509.563
509.05
508.809
508.874
509.175
509.595
509.974
510.133
509.952
509.502
509.043
508.812
508.832
508.955
509.07
513.72
514.439
515.84
516.461
516.308
515.963
515.727
515.557
515.362
515.143
514.854
514.455
514.039
513.752
513.688
513.875
514.288
514.853
515.475
516.023
516.429
516.634
516.521
516.05
515.364
514.684
514.148
513.741
513.358
512.912
512.415
511.955
511.632
511.486
511.484
511.546
511.608
511.627
511.629
511.656
511.701
511.739
511.792
511.89
512.015
512.147
512.29
512.454
512.623
512.747
512.761
512.607
512.264
511.758
511.166
510.597
510.163
509.945
509.964
510.155
510.377
510.459
510.274
509.809
509.179
508.574
508.165
508.032
508.161
508.483
508.897
509.259
509.392
509.197
508.77
508.371
508.203
508.258
508.391
508.543
513.122
513.744
515.119
515.832
515.745
515.391
515.112
514.898
514.656
514.39
514.09
513.745
513.427
513.222
513.158
513.233
513.467
513.87
514.416
514.977
515.433
515.692
515.658
515.318
514.808
514.299
513.868
513.463
512.992
512.41
511.774
511.194
510.771
510.534
510.443
510.426
510.428
510.423
510.431
510.444
510.429
510.38
510.344
510.372
510.478
510.649
510.861
511.086
511.279
511.376
511.309
511.045
510.605
510.07
509.555
509.168
508.982
509.004
509.171
509.355
509.408
509.218
508.764
508.138
507.5
507.009
506.758
506.756
506.964
507.325
507.75
508.098
508.209
508.025
507.677
507.398
507.32
507.399
507.519
507.681
)
;
    }
    outlet
    {
        type            calculated;
        value           nonuniform List<scalar> 
3200
(
612.712
612.686
608.501
605.508
602.879
600.204
597.163
593.764
590.742
589.343
589.657
591.476
592.906
588.509
585.316
584.117
583.948
584.205
582.667
579.754
577.135
575.687
575.128
574.039
571.481
568.197
565.095
562.616
560.717
559.319
558.389
557.913
557.844
558.143
558.767
559.486
559.754
559.703
559.673
559.73
559.932
560.28
560.686
561.047
561.202
560.875
559.917
558.55
557.5
557.095
557.399
558.438
560.236
562.794
565.935
569.013
570.473
571.122
571.652
572.127
572.536
572.884
573.188
573.488
573.824
574.22
574.663
575.093
575.404
575.517
575.449
575.246
575
574.852
574.931
575.314
575.982
576.867
578.151
578.763
594.466
606.325
604.758
602.097
599.594
597.069
594.333
591.404
588.825
587.537
587.705
589.07
589.742
586.262
583.506
582.21
581.754
581.617
580.388
578.027
575.705
574.189
573.316
572.032
569.611
566.586
563.697
561.335
559.506
558.157
557.256
556.78
556.685
556.924
557.434
558.033
558.321
558.345
558.356
558.435
558.626
558.921
559.241
559.482
559.501
559.099
558.18
556.949
555.982
555.594
555.883
556.876
558.58
560.963
563.844
566.653
568.197
568.947
569.482
569.933
570.315
570.631
570.905
571.177
571.495
571.883
572.325
572.751
573.056
573.161
573.078
572.869
572.643
572.535
572.625
572.872
573.135
573.38
573.131
568.053
580.221
598.107
600.353
598.929
596.954
594.678
592.142
589.477
587.127
585.823
585.7
586.49
586.556
583.885
581.572
580.209
579.471
578.984
577.871
575.942
573.948
572.429
571.309
569.891
567.659
564.948
562.317
560.101
558.35
557.043
556.153
555.656
555.51
555.668
556.066
556.557
556.859
556.96
557.021
557.111
557.269
557.492
557.72
557.865
557.809
557.409
556.608
555.581
554.766
554.443
554.716
555.617
557.147
559.279
561.856
564.4
566.008
566.915
567.545
568.047
568.458
568.789
569.064
569.328
569.63
570
570.429
570.857
571.189
571.352
571.344
571.2
570.979
570.722
570.409
570.01
569.678
569.635
568.312
560.829
570.337
589.73
595.014
594.965
593.814
592.103
589.922
587.527
585.386
584.119
583.695
583.937
583.608
581.463
579.506
578.155
577.244
576.51
575.393
573.702
572.02
570.639
569.442
567.973
565.901
563.446
561.026
558.921
557.214
555.914
555.016
554.502
554.334
554.457
554.792
555.208
555.492
555.615
555.681
555.755
555.879
556.055
556.241
556.358
556.3
555.954
555.289
554.452
553.772
553.484
553.694
554.454
555.792
557.694
560.007
562.315
563.917
564.931
565.661
566.242
566.711
567.078
567.37
567.637
567.942
568.327
568.789
569.271
569.671
569.889
569.868
569.588
569.058
568.317
567.46
566.754
566.626
566.758
564.212
555.831
563.372
581.988
589.38
590.396
589.845
588.718
587.078
585.193
583.464
582.348
581.605
581.272
580.618
578.808
577.102
575.778
574.757
573.852
572.72
571.186
569.791
568.628
567.461
566.004
564.09
561.879
559.673
557.705
556.069
554.792
553.878
553.324
553.097
553.144
553.378
553.684
553.904
554.006
554.065
554.137
554.264
554.448
554.646
554.779
554.751
554.467
553.91
553.204
552.6
552.301
552.428
553.062
554.254
555.971
558.042
560.116
561.657
562.716
563.51
564.154
564.685
565.107
565.445
565.756
566.11
566.553
567.076
567.596
567.978
568.083
567.824
567.193
566.269
565.23
564.382
564.149
564.645
564.48
560.417
552.215
558.128
574.928
583.779
585.705
585.461
584.698
583.56
582.271
581.088
580.259
579.352
578.558
577.618
575.995
574.448
573.146
572.062
571.07
569.969
568.575
567.401
566.452
565.38
563.981
562.215
560.209
558.185
556.339
554.772
553.523
552.604
552.014
551.725
551.68
551.797
551.984
552.132
552.216
552.289
552.397
552.57
552.794
553.018
553.164
553.148
552.896
552.396
551.752
551.174
550.854
550.931
551.501
552.601
554.156
555.987
557.827
559.275
560.335
561.156
561.843
562.434
562.929
563.345
563.73
564.143