/*--------------------------------*- C++ -*----------------------------------*\
| =========                 |                                                 |
| \\      /  F ield         | OpenFOAM: The Open Source CFD Toolbox           |
|  \\    /   O peration     | Version:  v2012                                 |
|   \\  /    A nd           | Website:  www.openfoam.com                      |
|    \\/     M anipulation  |                                                 |
\*---------------------------------------------------------------------------*/
FoamFile
{
    version     2.0;
    format      ascii;
    class       volScalarField;
    location    "250/air";
    object      qr;
}
// * * * * * * * * * * * * * * * * * * * * * * * * * * * * * * * * * * * * * //

dimensions      [1 0 -3 0 0 0 0];


internalField   uniform 0;

boundaryField
{
    inlet
    {
        type            calculated;
        value           nonuniform List<scalar> 
3200
(
66.1054
70.0282
68.3929
67.1278
66.0516
65.0148
63.9871
62.9643
61.9474
60.9391
59.943
58.9614
57.9954
57.0451
56.1089
55.1843
54.27
53.3675
52.4784
51.6016
50.7336
49.8709
49.0116
48.1556
47.3051
46.4657
45.6504
44.8828
44.1954
43.6232
43.1939
42.9228
42.8061
42.8097
42.8679
42.9126
42.9139
42.8837
42.8455
42.8118
42.781
42.7502
42.7279
42.7263
42.7465
42.7848
42.8439
42.9276
43.0403
43.1854
43.3656
43.5835
43.8433
44.1503
44.5069
44.9058
45.3258
45.7336
46.0964
46.3981
46.6509
46.8905
47.1533
47.4464
47.7298
47.9261
47.9573
47.789
47.4584
47.0712
46.7662
46.6647
46.8216
47.2002
47.6796
48.085
48.2054
47.7768
46.3879
40.7867
56.5626
67.6554
67.3201
65.7673
64.4333
63.2464
62.1486
61.1011
60.0782
59.076
58.101
57.1591
56.247
55.3508
54.4512
53.5357
52.6072
51.6811
50.7719
49.8839
49.0159
48.1656
47.3318
46.5148
45.7163
44.9412
44.1998
43.5099
42.8958
42.3841
41.9993
41.7596
41.6631
41.6722
41.7214
41.7574
41.7672
41.7619
41.7513
41.7382
41.72
41.6987
41.6893
41.7038
41.739
41.7906
41.8631
41.9601
42.0855
42.2434
42.4369
42.6687
42.9433
43.2662
43.6419
44.068
44.5305
45.0041
45.4596
45.878
46.2605
46.6285
47.0067
47.3987
47.7702
48.053
48.1719
48.0795
47.7811
47.3369
46.8404
46.3827
46.0148
45.7187
45.3967
44.8736
43.9548
42.6006
40.6007
34.0915
47.0637
61.6494
64.1118
63.2649
62.1345
61.0079
59.9049
58.8479
57.8406
56.8785
55.9569
55.0643
54.1825
53.2955
52.3949
51.4835
50.5759
49.6881
48.8248
47.977
47.1273
46.2654
45.3953
44.5307
43.692
42.9024
42.1815
41.5447
41.0048
40.5742
40.2641
40.0805
40.0139
40.0302
40.0791
40.1213
40.1452
40.1557
40.1585
40.156
40.1484
40.1396
40.142
40.1641
40.2036
40.2584
40.3324
40.4295
40.5544
40.7123
40.908
41.1462
41.4331
41.776
42.1811
42.648
43.1647
43.7072
44.245
44.7534
45.2231
45.6611
46.0762
46.458
46.762
46.9148
46.8396
46.492
45.8855
45.0973
44.2468
43.4582
42.8108
42.2926
41.7828
41.1144
40.2779
39.484
37.8818
31.1369
40.2724
55.4044
60.3782
60.66
60.0438
59.2173
58.2316
57.1737
56.1223
55.11
54.1558
53.2355
52.3104
51.3705
50.4335
49.5269
48.6704
47.8629
47.0767
46.2719
45.3935
44.43
43.4171
42.4096
41.4653
40.6321
39.9365
39.3836
38.9657
38.672
38.4928
38.4157
38.4198
38.472
38.5363
38.5893
38.6255
38.6476
38.6587
38.6619
38.6601
38.6593
38.669
38.6954
38.7375
38.7964
38.877
38.9846
39.1252
39.3043
39.5257
39.792
40.1058
40.4716
40.8944
41.3758
41.9071
42.4638
43.0072
43.4944
43.893
44.1896
44.386
44.4829
44.4645
44.2985
43.9541
43.4301
42.7737
42.0761
41.4408
40.938
40.561
40.2143
39.7709
39.2273
38.8319
38.5764
36.5705
29.4228
35.5962
49.8035
56.5599
57.887
57.6841
57.1715
56.4282
55.5106
54.5124
53.4963
52.5064
51.5333
50.5521
49.5598
48.5759
47.6346
46.7622
45.9541
45.1684
44.3463
43.4288
42.4195
41.3741
40.3704
39.484
38.7601
38.2046
37.7961
37.5047
37.307
37.1886
37.139
37.1435
37.1817
37.2333
37.2843
37.3272
37.3581
37.3769
37.387
37.3941
37.406
37.4302
37.4708
37.5293
37.6084
37.7121
37.8448
38.0106
38.2123
38.4504
38.7229
39.0277
39.3636
39.7301
40.1247
40.5367
40.9422
41.306
41.5912
41.773
41.8497
41.8399
41.769
41.653
41.4923
41.2804
41.0183
40.7232
40.4202
40.1227
39.8151
39.4558
39.0132
38.5462
38.2795
38.4122
38.2258
35.2811
28.1541
32.0227
44.4931
52.3467
54.6583
54.7788
54.5169
54.0973
53.5107
52.7971
51.9991
51.0797
50.0218
48.9013
47.782
46.6796
45.6165
44.6304
43.737
42.9139
42.0946
41.276
40.4805
39.6939
38.936
38.2715
37.7414
37.3358
37.0165
36.7479
36.513
36.3154
36.1683
36.0812
36.0508
36.0634
36.1017
36.1499
36.196
36.2341
36.2656
36.2966
36.3352
36.3868
36.4535
36.5355
36.6333
36.7475
36.8795
37.0301
37.1989
37.3834
37.5798
37.7848
37.9976
38.2201
38.4544
38.6975
38.9366
39.1491
39.312
39.4146
39.4689
39.5068
39.5649
39.6624
39.7887
39.9035
39.9519
39.8815
39.6585
39.2788
38.776
38.2299
37.7732
37.6005
37.8899
38.3968
37.7318
33.8006
27.2053
28.8824
39.3484
47.7853
51.1814
51.7479
51.7276
51.6244
51.4034
51.0626
50.6377
49.9164
48.7791
47.4326
46.0909
44.8048
43.5855
42.4795
41.5267
40.7327
40.0064
39.419
39.0129
38.6294
38.1523
37.6283
37.141
36.7172
36.3389
35.9826
35.6404
35.327
35.0711
34.8986
34.816
34.8083
34.8496
34.9154
34.9884
35.0585
35.1227
35.1841
35.2479
35.317
35.3911
35.4678
35.5446
35.6202
35.6953
35.7713
35.8497
35.9312
36.0166
36.1079
36.2101
36.3315
36.4815
36.6652
36.8786
37.1079
37.3371
37.5589
37.7834
38.033
38.3249
38.6475
38.9489
39.144
39.1448
38.8977
38.4164
37.7924
37.1782
36.751
36.6757
37.0672
37.836
38.2702
36.7786
32.1979
26.4966
26.0925
34.7036
43.3015
47.8539
49.0514
49.2709
49.4003
49.4322
49.3408
49.2219
48.7564
47.659
46.167
44.6364
43.1967
41.8679
40.7031
39.7566
39.0492
38.4496
38.0604
37.9542
37.8591
37.5141
36.9398
36.2966
35.6958
35.1702
34.7133
34.3115
33.9633
33.6856
33.5015
33.4198
33.425
33.4867
33.5766
33.6757
33.7718
33.8572
33.9296
33.99
34.0406
34.0824
34.115
34.1371
34.15
34.1574
34.1651
34.1793
34.2059
34.2502
34.3176
34.4152
34.553
34.7418
34.989
35.2933
35.6426
36.0183
36.4033
36.7881
37.1662
37.5208
37.8095
37.9646
37.9122
37.6114
37.0885
36.4522
35.8691
35.514
35.5202
35.9554
36.7812
37.6603
37.6259
35.3112
30.5601
25.9122
23.8562
30.8864
39.2048
44.7905
46.722
47.1429
47.4032
47.6063
47.6446
47.6499
47.3673
46.4254
44.9715
43.4006
41.9169
40.5652
39.4016
38.4852
37.8446
37.3261
36.9991
36.9645
36.9475
36.6065
35.9161
35.0853
34.3071
33.6668
33.1692
32.7829
32.4764
32.2402
32.0845
32.0185
32.0313
32.0955
32.184
32.2791
32.3691
32.4441
32.4977
32.5286
32.5403
32.5387
32.5292
32.5155
32.5022
32.4953
32.5022
32.5297
32.5839
32.6691
32.7893
32.9498
33.1594
33.4285
33.7645
34.1647
34.6118
35.0749
35.516
35.8981
36.1882
36.3557
36.3691
36.2034
35.8551
35.3656
34.8282
34.3749
34.1369
34.2083
34.63
35.3902
36.3492
37.008
36.3393
33.4285
28.9181
25.3258
22.3869
28.0349
35.5895
41.8668
44.555
45.1536
45.4469
45.81
46.0091
46.054
45.8179
45.0039
43.6705
42.1705
40.748
39.4682
38.3722
37.5067
36.8996
36.4091
36.0405
35.9018
35.8136
35.4511
34.7325
33.847
33.0153
32.3497
31.8588
31.4997
31.2246
31.0091
30.8545
30.769
30.7474
30.769
30.8111
30.86
30.9076
30.9455
30.9668
30.9716
30.9669
30.9608
30.9591
30.9641
30.9788
31.008
31.0572
31.1312
31.2335
31.3673
31.5374
31.7503
32.0156
32.3419
32.7315
33.1714
33.6289
34.0537
34.3888
34.5859
34.6176
34.4839
34.2083
33.835
33.4228
33.0443
32.7749
32.6823
32.811
33.1866
33.8187
34.6736
35.5348
35.7874
34.4894
31.2682
27.2677
24.6424
21.7196
26.1193
32.4809
38.9795
42.4043
43.2387
43.4667
43.9207
44.3603
44.5344
44.311
43.5252
42.2389
40.7805
39.4307
38.2792
37.3338
36.5914
36.0458
35.5775
35.1429
34.8416
34.6238
34.2585
33.6268
32.8405
32.083
31.4587
30.9758
30.5969
30.2846
30.0232
29.8153
29.6681
29.5778
29.5286
29.5023
29.4891
29.4838
29.4794
29.4728
29.471
29.4851
29.5204
29.5726
29.6329
29.6957
29.7633
29.8421
29.9379
30.0563
30.2047
30.3932
30.6314
30.9253
31.2724
31.6573
32.0473
32.3931
32.6375
32.7316
32.654
32.4216
32.0882
31.7278
31.4145
31.203
31.1229
31.1798
31.3708
31.7005
32.1963
32.883
33.6975
34.3228
34.0794
32.2425
28.9741
25.6159
23.8198
21.5852
24.9219
29.8481
36.0895
40.1841
41.4118
41.5331
41.8964
42.5325
42.9798
42.9037
42.1495
40.8215
39.2825
37.8954
36.8252
36.0656
35.5326
35.1318
34.7366
34.2841
33.86
33.5163
33.1439
32.6285
31.9952
31.3559
30.7864
30.2943
29.8576
29.463
29.1156
28.8281
28.6082
28.4519
28.3455
28.2727
28.2237
28.1906
28.1663
28.1512
28.1549
28.1852
28.2416
28.3157
28.3966
28.4769
28.5576
28.6458
28.7508
28.8823
29.0498
29.2608
29.5154
29.8041
30.1057
30.3885
30.6121
30.7346
30.7234
30.5702
30.3017
29.9781
29.6779
29.4731
29.4061
29.4781
29.6589
29.9086
30.2121
30.5964
31.1193
31.7954
32.4857
32.7736
32.0057
29.7732
26.6749
23.9851
22.8615
21.4958
24.0494
27.5451
33.1464
37.7718
39.596
39.7091
39.8059
40.4374
41.1705
41.4112
40.8415
39.5284
37.8611
36.3158
35.2027
34.565
34.247
34.0376
33.7699
33.3757
32.9176
32.4885
32.0838
31.6301
31.0989
30.5388
30.0005
29.4949
29.0129
28.5561
28.1426
27.7936
27.5209
27.3241
27.1936
27.1159
27.0768
27.0627
27.0683
27.0907
27.1127
27.108
27.0682
27.0151
26.9835
26.9974
27.0602
27.167
27.3176
27.5167
27.7616
28.0336
28.3009
28.5307
28.6964
28.7801
28.7703
28.6631
28.4684
28.2164
27.9579
27.7546
27.6609
27.7045
27.8768
28.1361
28.431
28.7298
29.0498
29.4509
29.9866
30.6106
31.0913
30.9664
29.708
27.2543
24.4831
22.4097
21.8003
21.0872
23.1795
25.4518
30.162
35.078
37.6434
38.0032
37.8396
38.2523
39.1022
39.6818
39.4524
38.3247
36.6198
34.8874
33.6095
32.946
32.7284
32.6626
32.5406
32.2794
31.8947
31.4586
31.0269
30.5816
30.0831
29.5469
29.0131
28.502
28.0121
27.544
27.112
26.7364
26.4341
26.2141
26.0784
26.0203
26.0208
26.064
26.1556
26.2776
26.3416
26.2422
25.9582
25.5843
25.2654
25.1008
25.103
25.2345
25.4647
25.7805
26.1541
26.5221
26.8053
26.9499
26.9493
26.8359
26.6553
26.4489
26.25
26.0899
26
26.0078
26.1261
26.3453
26.6329
26.9446
27.2472
27.5427
27.8785
28.3115
28.8428
29.3452
29.5303
28.9649
27.3102
24.8152
22.4632
20.9084
20.6687
20.3095
22.2219
23.5728
27.2645
32.1456
35.4503
36.3802
36.2037
36.3357
37.0567
37.7936
37.8996
37.0942
35.5314
33.7295
32.2775
31.4609
31.1646
31.0939
31.0416
30.906
30.6437
30.2748
29.8732
29.4611
29.0023
28.4918
27.9642
27.4541
26.972
26.5162
26.0895
25.7042
25.3807
25.1402
25.0007
24.9636
25.0048
25.1137
25.3123
25.556
25.6647
25.4419
24.8586
24.0974
23.4282
23.0329
22.9307
23.0451
23.3114
23.7031
24.1775
24.6348
24.9523
25.0569
24.9645
24.7619
24.5533
24.4199
24.4041
24.5146
24.7361
25.0392
25.39
25.76
26.1338
26.512
26.9137
27.3698
27.9026
28.4784
28.9763
29.1838
28.8171
27.5648
25.352
22.7191
20.642
19.3933
19.3957
19.3534
21.2908
22.0296
24.6835
29.1724
33.0269
34.7455
34.8888
34.8142
35.1758
35.7587
36.0273
35.6024
34.442
32.9004
31.5066
30.5783
30.0768
29.7977
29.6088
29.4238
29.1749
28.8486
28.5145
28.2044
27.8677
27.4598
26.9903
26.5014
26.0244
25.5687
25.1353
24.7327
24.3844
24.121
23.9727
23.944
24.0073
24.1606
24.4297
24.7314
24.822
24.4726
23.6779
22.6834
21.8173
21.2823
21.0802
21.1089
21.2969
21.6325
22.0884
22.5627
22.9162
23.0634
23.0241
22.8991
22.8022
22.8077
22.9369
23.1729
23.4824
23.8311
24.1916
24.5485
24.9021
25.2709
25.6903
26.1921
26.7659
27.316
27.6697
27.6108
26.9
25.3279
23.009
20.6283
18.9981
18.042
18.1971
18.4278
20.5132
20.9016
22.5866
26.3673
30.424
32.9156
33.5968
33.4304
33.2908
33.4302
33.6214
33.5401
32.9978
32.0928
31.116
30.2802
29.5995
29.0123
28.5151
28.0803
27.6676
27.2693
26.9529
26.7489
26.5847
26.3599
26.0306
25.6218
25.1777
24.7282
24.2881
23.8717
23.5027
23.2109
23.0302
22.9698
23.0122
23.1675
23.435
23.6758
23.6381
23.1569
22.3013
21.3369
20.548
20.065
19.8347
19.7422
19.7439
19.8782
20.1685
20.5508
20.904
21.1395
21.2548
21.3147
21.3934
21.535
21.7463
22.0137
22.3179
22.6426
22.9761
23.314
23.6653
24.0573
24.526
25.0794
25.6536
26.1011
26.2415
25.8967
24.8821
23.0863
20.7918
18.7428
17.5112
16.7479
16.9867
17.6159
19.8795
20.1081
20.9605
23.8322
27.7032
30.7673
32.0799
32.0056
31.4315
31.0228
30.932
31.0075
31.016
30.8227
30.4246
29.8585
29.1525
28.3689
27.613
26.9151
26.2801
25.728
25.3351
25.1473
25.0992
25.0557
24.9147
24.6578
24.3189
23.9416
23.5573
23.1821
22.8218
22.4869
22.2099
22.0236
21.9578
22.0482
22.2447
22.3387
22.1054
21.5028
20.6971
19.9371
19.4016
19.106
18.9258
18.7297
18.5067
18.3608
18.3888
18.589
18.8833
19.1988
19.509
19.8156
20.1161
20.3994
20.6601
20.9085
21.1643
21.443
21.7497
22.0855
22.462
22.9049
23.4323
24.0065
24.5106
24.782
24.6798
24.0753
22.8214
20.8989
18.7376
17.0587
16.1544
15.5033
15.7805
16.8549
19.2396
19.4274
19.6305
21.5592
24.9538
28.3402
30.3249
30.6254
29.9215
29.1005
28.6415
28.611
28.8347
29.0643
29.0918
28.8089
28.229
27.4644
26.6511
25.8403
25.0655
24.3715
23.8473
23.57
23.5164
23.5623
23.5735
23.4865
23.3106
23.0901
22.8602
22.6129
22.3049
21.908
21.4548
21.0301
20.7515
20.7014
20.7838
20.7284
20.3395
19.6795
18.9768
18.4327
18.1231
17.9868
17.8591
17.5857
17.1639
16.7522
16.5221
16.5323
16.7471
17.1216
17.6264
18.2102
18.7826
19.2555
19.5948
19.8339
20.0396
20.2699
20.5534
20.9003
21.3216
21.8272
22.3944
22.9302
23.2904
23.3463
23.0195
22.2084
20.7819
18.8225
16.8802
15.5725
14.9105
14.3125
14.6041
16.0252
18.4404
18.6614
18.4202
19.5133
22.275
25.7401
28.3732
29.3211
28.8751
27.9117
27.1355
26.8289
26.9341
27.206
27.368
27.2526
26.8537
26.2633
25.5695
24.8074
24.0105
23.2378
22.5902
22.1731
22.015
22.0331
22.0952
22.1119
22.0739
22.0263
21.993
21.9166
21.6828
21.2208
20.5709
19.8804
19.3609
19.1422
19.1041
18.9518
18.518
17.9111
17.3502
16.9545
16.7259
16.6002
16.4385
16.0813
15.5168
14.9347
14.5567
14.4692
14.646
15.0625
15.7115
16.5292
17.3647
18.0527
18.5113
18.7754
18.9481
19.1324
19.3923
19.7567
20.2314
20.79
21.3495
21.7736
21.9383
21.7877
21.2902
20.3283
18.7862
16.8723
15.2154
14.2524
13.746
13.1617
13.4563
14.9647
17.3485
17.6792
17.1952
17.5869
19.5441
22.7219
25.825
27.6263
27.8688
27.1218
26.1963
25.5932
25.397
25.4274
25.4396
25.2956
25.0051
24.6272
24.1682
23.6276
22.9805
22.2599
21.5709
21.0388
20.7382
20.6408
20.6395
20.6356
20.6111
20.6138
20.6545
20.6319
20.3917
19.8648
19.1229
18.351
17.7844
17.5327
17.4479
17.2648
16.8819
16.4277
16.0536
15.7624
15.4901
15.2149
14.8921
14.427
13.8333
13.3076
13.0495
13.0828
13.3188
13.7239
14.3395
15.16
16.0557
16.8383
17.3834
17.6955
17.875
18.0471
18.3064
18.6961
19.1981
19.7277
20.1517
20.3512
20.2879
19.9751
19.3558
18.2616
16.6546
14.9138
13.6523
13.015
12.5767
11.9806
12.2687
13.8106
16.1161
16.5914
16.0409
15.9486
17.0673
19.5667
22.6874
25.1926
26.3291
26.1197
25.2938
24.5228
24.0415
23.7589
23.4922
23.1563
22.8002
22.4966
22.2241
21.988
21.6602
21.1784
20.6153
20.0933
19.7146
19.506
19.4017
19.3047
19.1777
19.0506
18.921
18.6934
18.2613
17.6353
16.9437
16.3605
16.0416
15.9887
16.0008
15.8626
15.5608
15.2546
15.0426
14.8411
14.5332
14.1166
13.633
13.1027
12.6242
12.3922
12.506
12.8438
13.2055
13.5287
13.9061
14.4278
15.0601
15.6748
16.1577
16.4848
16.7178
16.9552
17.2745
17.6915
18.142
18.5041
18.6682
18.6101
18.3807
17.9776
17.249
16.0241
14.4412
13.0226
12.2161
11.8282
11.3763
10.7691
11.0404
12.8243
14.9995
15.5934
15.0757
14.7519
15.2328
16.9215
19.6107
22.3817
24.2678
24.7317
24.2304
23.4723
22.8197
22.3008
21.8058
21.2712
20.7507
20.3473
20.0824
20.0477
20.0489
19.9041
19.6145
19.2616
18.9392
18.7092
18.5514
18.3809
18.1302
17.787
17.3364
16.734
15.9814
15.1997
14.5696
14.2267
14.2133
14.4175
14.6
14.5831
14.4001
14.2171
14.1147
14
13.7523
13.3566
12.8654
12.3669
12.0407
12.0907
12.5315
13.1244
13.5876
13.8307
13.9622
14.1263
14.3745
14.6695
14.9585
15.2296
15.5136
15.8524
16.2551
16.6704
16.9951
17.1331
17.0685
16.8726
16.5965
16.134
15.2649
13.9307
12.4777
11.4494
11.0228
10.7531
10.2447
9.65304
9.90733
11.927
13.925
14.609
14.1549
13.7631
13.8494
14.8118
16.8334
19.4552
21.7979
22.9243
22.9122
22.3428
21.6391
20.9736
20.3464
19.7052
19.0575
18.496
18.0905
18.0673
18.2496
18.3825
18.4003
18.3232
18.1962
18.07
17.9422
17.7365
17.3639
16.781
15.9822
14.9956
13.9279
12.9791
12.3498
12.1325
12.2822
12.6262
12.9409
13.0934
13.116
13.1226
13.1579
13.1568
13.0488
12.8199
12.4779
12.0813
11.8193
11.9167
12.3994
13.0297
13.5147
13.7351
13.7624
13.7256
13.7047
13.7269
13.8086
13.9779
14.2589
14.6411
15.0576
15.3993
15.5672
15.5422
15.4012
15.2279
14.9713
14.4124
13.3688
11.9842
10.7554
10.109
9.93397
9.67263
9.10668
8.56561
8.80991
10.9994
12.8234
13.6011
13.2312
12.8677
12.7762
13.2153
14.5419
16.7246
19.1847
20.8382
21.4014
21.1931
20.5797
19.8511
19.1548
18.4869
17.8027
17.1345
16.5489
16.3805
16.5329
16.7577
16.976
17.1695
17.3151
17.3958
17.3669
17.1384
16.6235
15.7995
14.712
13.4632
12.2187
11.1915
10.5598
10.3759
10.5463
10.8876
11.2369
11.536
11.8141
12.0967
12.3435
12.4907
12.5351
12.5058
12.3733
12.1
11.7941
11.6876
11.9075
12.3403
12.7516
12.9904
13.0533
13.0116
12.9313
12.8592
12.8413
12.9256
13.1321
13.4231
13.7032
13.8698
13.8857
13.8136
13.7492
13.6819
13.4185
12.7054
11.5113
10.1864
9.25419
8.92719
8.86853
8.54615
7.94695
7.48552
7.72645
10.0011
11.7221
12.63
12.3768
12.0911
11.9711
12.1089
12.8572
14.4738
16.7545
18.7104
19.8223
20.0993
19.7295
19.0278
18.2831
17.5968
16.9233
16.2289
15.5216
15.1649
15.1436
15.2673
15.5015
15.84
16.2095
16.4978
16.5733
16.3123
15.6567
14.6549
13.4314
12.1381
10.9356
9.98727
9.41802
9.25008
9.3766
9.62951
9.91218
10.2505
10.6997
11.2213
11.6777
11.9615
12.1051
12.2011
12.2295
12.0674
11.7001
11.3232
11.1725
11.3023
11.5739
11.8196
11.9691
12.0448
12.0906
12.1317
12.1791
12.2417
12.3167
12.3756
12.3724
12.2924
12.1897
12.1578
12.2138
12.1966
11.8225
10.9201
9.6623
8.52265
7.91965
7.82531
7.78114
7.37817
6.78541
6.42391
6.66659
9.01552
10.7417
11.8242
11.7224
11.5271
11.4507
11.4616
11.8096
12.8744
14.7711
16.7615
18.2676
19.0483
19.0445
18.4757
17.7038
16.9617
16.277
15.5977
14.8596
14.3763
14.1671
14.0938
14.1826
14.4767
14.8938
15.2543
15.353
15.0443
14.3168
13.2988
12.1729
11.0883
10.1423
9.41191
8.96225
8.8048
8.85564
8.98065
9.12389
9.35932
9.778
10.3381
10.8608
11.1931
11.354
11.4686
11.5595
11.4861
11.1422
10.6472
10.266
10.1629
10.2895
10.5
10.7139
10.9483
11.2342
11.5402
11.7787
11.8649
11.7641
11.5036
11.1614
10.8541
10.6995
10.7377
10.8404
10.7237
10.1248
9.04605
7.83526
6.96663
6.66897
6.71401
6.62676
6.16415
5.62474
5.3788
5.63463
8.2066
10.0267
11.3036
11.3648
11.2391
11.2106
11.1927
11.3058
11.9121
13.32
15.0887
16.7438
17.9285
18.3506
18.0342
17.3037
16.4911
15.7465
15.07
14.3623
13.8516
13.5373
13.2887
13.1593
13.2408
13.4831
13.7062
13.6986
13.3351
12.6512
11.8152
11.0054
10.3107
9.73527
9.27083
8.9385
8.76045
8.70329
8.68388
8.66177
8.70132
8.90134
9.26021
9.64127
9.89481
10.0036
10.0696
10.1464
10.1386
9.92238
9.53438
9.17197
9.00186
9.03056
9.17693
9.41752
9.80786
10.3666
10.9775
11.4202
11.5041
11.1875
10.6037
9.98935
9.57235
9.45787
9.55525
9.58822
9.23813
8.37154
7.18552
6.11451
5.52767
5.45022
5.53526
5.37204
4.88233
4.4347
4.31359
4.60239
7.71097
9.64242
11.0872
11.2821
11.1763
11.1521
11.129
11.1171
11.3795
12.2834
13.6467
15.1973
16.6119
17.4479
17.4926
16.921
16.0825
15.2479
14.5271
13.8511
13.3776
13.0583
12.7203
12.3882
12.1731
12.0804
11.9984
11.7853
11.3755
10.8311
10.2981
9.88665
9.59748
9.35629
9.1054
8.85096
8.63542
8.47604
8.34038
8.19106
8.04651
7.97445
8.01426
8.12102
8.20617
8.23181
8.2414
8.28194
8.31835
8.26707
8.11074
7.93404
7.8291
7.81753
7.89963
8.14335
8.65456
9.42988
10.2593
10.8039
10.8056
10.2625
9.43997
8.71091
8.34257
8.346
8.47226
8.35443
7.74016
6.67603
5.50207
4.63352
4.27901
4.30343
4.33031
4.0613
3.55928
3.21407
3.20974
3.54556
7.54757
9.52741
11.0728
11.34
11.1933
11.1143
11.0656
10.9851
11.0123
11.4751
12.3641
13.6279
15.085
16.254
16.7115
16.4136
15.6323
14.7125
13.8964
13.2064
12.7756
12.5103
12.167
11.6959
11.1949
10.7315
10.3016
9.87279
9.4432
9.06535
8.81111
8.69622
8.65341
8.5856
8.44304
8.24638
8.04804
7.8802
7.72908
7.5515
7.32154
7.06446
6.83859
6.6846
6.59667
6.54675
6.52612
6.54847
6.61257
6.68448
6.72863
6.73864
6.7237
6.70018
6.7322
6.95955
7.51497
8.36364
9.22974
9.719
9.57506
8.87014
7.97408
7.31756
7.11909
7.25659
7.36392
7.07738
6.27989
5.17737
4.15691
3.52919
3.33926
3.35931
3.25193
2.8486
2.32347
2.05656
2.13573
2.50699
7.58528
9.50336
11.0692
11.345
11.1134
10.9384
10.8396
10.719
10.6093
10.7504
11.2123
12.114
13.4524
14.8077
15.626
15.6454
14.9959
14.031
13.1052
12.3609
11.9499
11.7524
11.453
10.9117
10.1977
9.43814
8.74004
8.16991
7.75829
7.50785
7.39563
7.36183
7.32819
7.24506
7.12408
7.01566
6.95635
6.9399
6.92087
6.83743
6.64307
6.3412
5.99422
5.69122
5.4901
5.39157
5.36635
5.3958
5.47761
5.60085
5.73132
5.82395
5.84525
5.8058
5.79419
5.96618
6.44129
7.16115
7.84884
8.1494
7.87606
7.16756
6.41395
5.99065
6.00017
6.20991
6.23249
5.80335
4.96029
3.99799
3.25276
2.88658
2.81248
2.77092
2.49898
1.95137
1.38462
1.15244
1.26421
1.62795
7.6364
9.39103
10.9178
11.1672
10.844
10.5693
10.417
10.2794
10.1174
10.0767
10.2301
10.7801
11.8735
13.2154
14.2317
14.5116
14.0343
13.101
12.123
11.3435
10.9494
10.8159
10.5756
10.0129
9.17318
8.23803
7.40387
6.79627
6.43302
6.24133
6.1147
5.96367
5.7587
5.54705
5.42469
5.46594
5.66388
5.93503
6.16602
6.265
6.18652
5.94182
5.5987
5.26168
5.01791
4.8955
4.87279
4.91772
5.01076
5.13536
5.26017
5.34086
5.34291
5.27484
5.2098
5.26473
5.51794
5.91477
6.25584
6.31277
6.00634
5.49502
5.07929
4.97711
5.14959
5.32224
5.19455
4.66564
3.90341
3.20811
2.7998
2.69174
2.7104
2.60359
2.18799
1.51987
0.910684
0.678189
0.776168
1.07679
7.55182
9.08881
10.5548
10.7837
10.3993
10.0545
9.86787
9.73573
9.58197
9.47636
9.44894
9.69854
10.4575
11.5782
12.5715
12.9877
12.6946
11.9021
11.0027
10.2811
9.94394
9.87502
9.68752
9.12396
8.22399
7.21651
6.35651
5.78618
5.47972
5.28907
5.05639
4.70697
4.29122
3.9576
3.86899
4.10047
4.58833
5.16984
5.6657
5.95761
6.01106
5.85967
5.58096
5.27705
5.03696
4.90377
4.87485
4.92404
5.02001
5.13146
5.22504
5.26833
5.23938
5.14029
5.00377
4.88248
4.81305
4.7791
4.71429
4.56008
4.3407
4.17487
4.19035
4.39687
4.63502
4.66631
4.35222
3.76944
3.16431
2.77818
2.69508
2.81158
2.91091
2.76547
2.25967
1.52489
0.901437
0.662536
0.726035
0.926505
7.29252
8.61103
10.0269
10.2693
9.87195
9.49819
9.30196
9.18854
9.06906
8.96406
8.8465
8.85342
9.23627
9.98431
10.7648
11.1932
11.0881
10.5525
9.88967
9.35235
9.13404
9.13434
8.98193
8.4169
7.49133
6.4709
5.63905
5.12677
4.86046
4.64191
4.30033
3.8001
3.26268
2.89862
2.89127
3.29035
3.98414
4.76442
5.42439
5.84137
5.99355
5.92983
5.73155
5.48834
5.27561
5.13905
5.09372
5.12978
5.21862
5.32241
5.40429
5.43584
5.39684
5.27189
5.04878
4.72579
4.32119
3.88117
3.47995
3.21008
3.15872
3.36132
3.75316
4.15685
4.348
4.18023
3.69295
3.10343
2.67732
2.56621
2.73799
3.01899
3.18138
3.02503
2.48624
1.74804
1.1568
0.933509
0.972164
1.07529
6.90276
8.03598
9.42682
9.72251
9.35556
8.98473
8.7935
8.69666
8.60435
8.51207
8.34614
8.16322
8.18937
8.51983
8.99886
9.36856
9.45218
9.25241
8.94161
8.68378
8.62882
8.695
8.55578
7.98149
7.04777
6.0417
5.2494
4.7786
4.52395
4.27379
3.87607
3.33573
2.80906
2.51112
2.59685
3.07593
3.81416
4.60604
5.26796
5.70253
5.9
5.90632
5.79196
5.62518
5.45882
5.33237
5.27298
5.28912
5.36558
5.46937
5.56162
5.60682
5.57114
5.4162
5.0999
4.59861
3.94238
3.24025
2.66585
2.39532
2.52159
2.98589
3.57561
4.0047
4.05272
3.68592
3.08365
2.53508
2.27459
2.36419
2.69692
3.07254
3.2708
3.11557
2.58327
1.89161
1.3755
1.19971
1.24011
1.28512
6.45512
7.44405
8.83143
9.20782
8.89603
8.54093
8.35386
8.25867
8.16726
8.06739
7.8626
7.54358
7.29395
7.27442
7.47798
7.77948
8.03689
8.17684
8.24025
8.28192
8.39269
8.50935
8.36673
7.78436
6.86307
5.89314
5.14211
4.69079
4.42299
4.14531
3.74292
3.25004
2.81959
2.62565
2.76618
3.21212
3.83498
4.46915
4.99049
5.34757
5.54086
5.59774
5.56646
5.48881
5.39012
5.29761
5.24454
5.25407
5.32529
5.43332
5.53718
5.58905
5.53766
5.3305
4.92284
4.30513
3.53835
2.77185
2.21115
2.03347
2.28778
2.83873
3.40606
3.69277
3.54145
3.02008
2.38164
1.91447
1.78989
2.00065
2.40859
2.81757
3.02173
2.86484
2.35683
1.73849
1.32085
1.21417
1.27989
1.3189
6.00832
6.88679
8.28117
8.74737
8.49617
8.15368
7.96001
7.84852
7.73142
7.59849
7.3559
6.95871
6.55042
6.31648
6.34038
6.59482
6.98058
7.38534
7.75377
8.04552
8.29126
8.44097
8.29228
7.71907
6.84278
5.94001
5.24283
4.80254
4.50541
4.19381
3.79665
3.36709
3.03441
2.91507
3.04719
3.37424
3.79058
4.18316
4.49636
4.72731
4.88225
4.96408
4.99982
5.01069
4.99596
4.96599
4.95292
4.9864
5.07173
5.18558
5.28166
5.30197
5.18837
4.89552
4.4051
3.74599
3.01143
2.35598
1.95257
1.91477
2.2211
2.69289
3.06085
3.09652
2.73882
2.12859
1.52723
1.16843
1.15008
1.4227
1.84942
2.25267
2.44025
2.27345
1.79296
1.25373
0.934955
0.898822
0.997528
1.0691
5.56795
6.35541
7.75405
8.30678
8.11222
7.77239
7.55856
7.41685
7.25818
7.07813
6.80409
6.38532
5.93489
5.62817
5.57495
5.79519
6.22955
6.76907
7.31671
7.77099
8.10927
8.28373
8.14383
7.61207
6.82241
6.02458
5.40393
4.97933
4.64339
4.27768
3.8534
3.43927
3.14232
3.0316
3.10144
3.28141
3.49064
3.66024
3.78671
3.89771
3.99682
4.06924
4.13343
4.20435
4.26628
4.31361
4.36915
4.45724
4.5771
4.69665
4.76056
4.70746
4.49004
4.09325
3.54433
2.91583
2.31811
1.87733
1.6933
1.78793
2.07142
2.35791
2.44228
2.20438
1.68136
1.05149
0.53882
0.298172
0.36236
0.66388
1.08328
1.46274
1.62155
1.44091
0.991169
0.53118
0.300401
0.320714
0.443655
0.559144
5.20854
5.92748
7.3287
7.94957
7.79649
7.45179
7.21544
7.04565
6.85066
6.63163
6.34275
5.94395
5.5279
5.24103
5.17654
5.36366
5.77717
6.34179
6.96358
7.51142
7.91748
8.1229
8.01003
7.53905
6.85278
6.17284
5.63699
5.23
4.84641
4.40086
3.90367
3.44402
3.12087
2.9749
2.97252
3.0347
3.09705
3.1159
3.11777
3.14422
3.18985
3.22723
3.28049
3.37848
3.50398
3.63538
3.7786
3.94302
4.1116
4.23554
4.24934
4.0961
3.75288
3.24708
2.65514
2.08579
1.6512
1.43372
1.45273
1.64385
1.86612
1.94798
1.76315
1.29787
0.667896
0.0627919
-0.346482
-0.479469
-0.350158
-0.0284445
0.385735
0.747202
0.880823
0.685691
0.258786
-0.140427
-0.308588
-0.253814
-0.120129
0.0318626
4.61081
5.23251
6.6074
7.32044
7.23414
6.87963
6.60096
6.38681
6.14473
5.87818
5.57863
5.23365
4.9153
4.71107
4.64661
4.72212
4.95519
5.35874
5.90441
6.46518
6.9213
7.18096
7.14639
6.8064
6.29624
5.78797
5.35672
4.95216
4.48031
3.89897
3.26235
2.68289
2.25976
2.02286
1.93153
1.91433
1.91626
1.91208
1.91927
1.93306
1.91739
1.86821
1.83273
1.86061
1.96684
2.13774
2.35007
2.57486
2.76782
2.86429
2.79779
2.53324
2.09326
1.5587
1.04321
0.656711
0.470482
0.492957
0.659519
0.843939
0.897106
0.706712
0.253125
-0.373686
-1.01158
-1.50204
-1.75327
-1.75537
-1.54715
-1.18682
-0.761068
-0.41294
-0.302298
-0.486407
-0.83387
-1.11296
-1.19167
-1.11262
-0.992404
-0.830023
)
;
    }
    outlet
    {
        type            calculated;
        value           nonuniform List<scalar> 
3200
(
49.7539
51.1762
48.6713
46.6383
44.908
43.7015
43.963
47.4273
51.6822
50.7295
46.1831
39.9491
33.3353
35.4695
37.8739
36.4873
33.341
31.5315
33.486
36.1966
39.0049
38.4556
33.7166
31.2637
32.3948
34.3925
35.7028
36.0889
36.0232
35.8349
35.6332
35.4219
35.2015
34.8708
34.306
33.927
34.7666
36.3462
37.5293
38.2955
38.6418
38.5546
38.061
37.059
35.7194
34.7383
34.6222
35.172
35.6795
36.0248
36.2511
36.3352
36.1301
35.1992
32.9971
29.9585
29.0527
29.0479
29.0425
29.1714
29.4072
29.6314
29.7739
29.837
29.8813
29.9635
30.0951
30.2203
30.2913
30.2591
29.9825
29.5364
29.0679
28.6895
28.5018
28.5511
28.8613
29.5532
30.8762
31.3481
58.5064
70.9228
70.6176
68.4645
66.3001
64.5691
64.3385
66.083
66.839
65.4715
61.6176
53.6293
43.8349
47.6106
50.3126
48.9481
45.8419
42.8842
44.9057
49.4128
52.4604
52.3623
49.334
45.8884
44.8369
44.9357
44.6301
44.0096
43.3559
42.7997
42.3709
42.0486
41.8001
41.5322
41.1812
40.9505
41.4723
42.5773
43.4861
44.1144
44.4573
44.5088
44.2211
43.5084
42.4555
41.5578
41.2055
41.0776
41.0377
41.1441
41.4102
41.8199
42.313
42.7099
42.6703
42.5252
43.0473
43.6326
43.9419
44.2751
44.6483
44.9737
45.2028
45.3568
45.5057
45.7041
45.949
46.1707
46.324
46.3504
46.1141
45.7023
45.2972
45.004
44.8641
44.7785
44.6439
44.6439
44.4989
39.6915
55.8909
73.9742
77.0008
75.9221
74.2059
72.5123
71.6272
71.2612
70.3981
68.721
65.1305
56.3605
47.2763
52.4063
55.0138
53.7744
50.9613
47.6062
48.4103
52.8364
55.7761
55.7595
53.772
50.8127
48.7408
47.6403
46.6134
45.6172
44.7526
44.0636
43.5456
43.1725
42.9019
42.6625
42.4244
42.349
42.7502
43.5373
44.2674
44.7912
45.0922
45.1559
44.9331
44.3731
43.5763
42.8497
42.4305
42.1248
41.9577
41.9956
42.2504
42.7066
43.3416
44.1191
45.0205
46.3886
47.7233
48.6305
49.2091
49.7013
50.1439
50.5014
50.761
50.9594
51.1624
51.4185
51.7256
52.0249
52.2582
52.3595
52.243
51.9575
51.6025
51.2025
50.7116
50.0543
49.4097
49.1591
47.9132
40.7151
51.684
71.1493
76.8634
77.0609
76.1447
74.8838
73.6385
72.3545
70.9069
69.1666
65.6744
56.9481
50.037
55.5023
57.6533
56.6821
54.2667
50.996
50.6697
54.1049
56.3746
56.2806
54.7874
52.3958
50.1247
48.483
47.1043
45.9034
44.9014
44.1116
43.5258
43.1244
42.8625
42.677
42.538
42.5482
42.8705
43.4424
44.0029
44.4209
44.6735
44.744
44.5895
44.1785
43.5955
43.0412
42.6366
42.3083
42.1073
42.0917
42.2788
42.6753
43.3074
44.2176
45.4894
47.3375
48.9907
50.0762
50.8185
51.4157
51.9095
52.2901
52.5674
52.7909
53.031
53.3402
53.7213
54.1178
54.4455
54.6056
54.5041
54.1237
53.4933
52.6429
51.654
50.7697
50.4356
50.4306
47.9356
39.754
47.7246
66.3702
73.9934
75.1841
74.8319
74.0342
72.9353
71.6431
70.2554
68.6494
65.2398
57.4968
52.7467
57.4146
58.8747
58.0326
56.0497
53.2488
52.4092
54.4725
55.7642
55.59
54.3555
52.3574
50.2171
48.4353
46.922
45.6368
44.5705
43.7194
43.0767
42.6283
42.3367
42.1465
42.0238
42.0285
42.2487
42.6451
43.0641
43.4073
43.6498
43.7666
43.7102
43.4511
43.0492
42.6311
42.2653
41.9315
41.6884
41.5959
41.6938
42.0248
42.6481
43.6163
44.9966
46.8555
48.5231
49.6765
50.5011
51.1641
51.7091
52.1336
52.4561
52.7336
53.0408
53.4302
53.8942
54.3533
54.6796
54.7331
54.4111
53.7051
52.7039
51.5816
50.6353
50.2803
50.6456
50.4003
46.375
38.2993
44.2673
61.0791
70.0557
72.1048
72.0167
71.4908
70.6856
69.7384
68.7227
67.4308
64.4746
58.4073
55.1528
58.3049
58.9692
58.11
56.5019
54.3416
53.3757
54.1966
54.6265
54.3255
53.2544
51.5342
49.5945
47.8337
46.2811
44.9515
43.8448
42.9544
42.2717
41.7823
41.4514
41.2267
41.0731
41.0291
41.1506
41.4213
41.7526
42.0715
42.3456
42.5331
42.5741
42.435
42.1585
41.8242
41.4704
41.1048
40.8006
40.636
40.6791
40.9936
41.6339
42.6181