/*--------------------------------*- C++ -*----------------------------------*\
| =========                 |                                                 |
| \\      /  F ield         | OpenFOAM: The Open Source CFD Toolbox           |
|  \\    /   O peration     | Version:  v2012                                 |
|   \\  /    A nd           | Website:  www.openfoam.com                      |
|    \\/     M anipulation  |                                                 |
\*---------------------------------------------------------------------------*/
FoamFile
{
    version     2.0;
    format      ascii;
    class       volScalarField;
    location    "250/air";
    object      rho;
}
// * * * * * * * * * * * * * * * * * * * * * * * * * * * * * * * * * * * * * //

dimensions      [1 -3 0 0 0 0 0];


internalField   nonuniform List<scalar> 
287104
(
0.99908
0.998221
0.997453
0.996753
0.99611
0.995516
0.994964
0.994448
0.993963
0.993505
0.993071
0.992658
0.992264
0.991885
0.991521
0.991169
0.990829
0.9905
0.990181
0.98987
0.989568
0.989273
0.988984
0.988702
0.988425
0.988153
0.987886
0.987624
0.987366
0.987112
0.986862
0.986616
0.986373
0.986134
0.985897
0.985664
0.985434
0.985207
0.984983
0.984761
0.984543
0.984327
0.984113
0.983903
0.983694
0.983488
0.983285
0.983084
0.982885
0.982689
0.982494
0.982302
0.982112
0.981924
0.981738
0.981554
0.981371
0.98119
0.981011
0.980833
0.980656
0.980482
0.980308
0.980136
0.979965
0.979795
0.979626
0.979458
0.97929
0.979123
0.978956
0.97879
0.978624
0.978458
0.978293
0.978128
0.977962
0.977794
0.977624
0.977452
0.977278
0.977103
0.976929
0.976754
0.976581
0.976409
0.976238
0.976067
0.975885
0.975676
0.999092
0.998246
0.997488
0.996799
0.996165
0.995581
0.995038
0.99453
0.994054
0.993605
0.993179
0.992774
0.992387
0.992016
0.991659
0.991315
0.990982
0.99066
0.990348
0.990044
0.989749
0.989461
0.989179
0.988904
0.988634
0.988369
0.988109
0.987854
0.987603
0.987356
0.987113
0.986873
0.986637
0.986405
0.986175
0.985949
0.985726
0.985506
0.985288
0.985074
0.984862
0.984652
0.984446
0.984241
0.98404
0.98384
0.983643
0.983448
0.983256
0.983066
0.982878
0.982692
0.982508
0.982326
0.982146
0.981967
0.98179
0.981615
0.981441
0.981269
0.981098
0.980929
0.980761
0.980594
0.980428
0.980263
0.980099
0.979935
0.979772
0.979609
0.979447
0.979286
0.979124
0.978964
0.978804
0.978643
0.978482
0.978319
0.978155
0.977988
0.97782
0.977651
0.977483
0.977315
0.977148
0.976983
0.97682
0.976658
0.976484
0.976281
0.999105
0.998271
0.997524
0.996844
0.99622
0.995644
0.995108
0.994609
0.994139
0.993697
0.993277
0.992879
0.992498
0.992133
0.991781
0.991443
0.991116
0.990799
0.990492
0.990194
0.989904
0.989621
0.989344
0.989074
0.988809
0.98855
0.988295
0.988045
0.987799
0.987557
0.987319
0.987085
0.986854
0.986627
0.986403
0.986182
0.985964
0.985749
0.985537
0.985328
0.985122
0.984918
0.984717
0.984518
0.984322
0.984129
0.983937
0.983748
0.983562
0.983378
0.983196
0.983016
0.982838
0.982662
0.982488
0.982317
0.982146
0.981978
0.981811
0.981646
0.981482
0.981319
0.981159
0.980999
0.980841
0.980684
0.980527
0.980372
0.980217
0.980063
0.97991
0.979757
0.979606
0.979455
0.979305
0.979155
0.979005
0.978853
0.9787
0.978545
0.97839
0.978234
0.978079
0.977925
0.977773
0.977624
0.977477
0.97733
0.977173
0.976988
0.999118
0.998295
0.997559
0.996889
0.996274
0.995705
0.995178
0.994685
0.994223
0.993787
0.993374
0.992981
0.992605
0.992246
0.9919
0.991566
0.991244
0.990932
0.99063
0.990336
0.99005
0.989772
0.9895
0.989233
0.988973
0.988717
0.988467
0.988221
0.987979
0.987741
0.987507
0.987277
0.98705
0.986827
0.986606
0.986389
0.986176
0.985964
0.985756
0.985551
0.985348
0.985148
0.984951
0.984756
0.984563
0.984373
0.984186
0.984
0.983817
0.983637
0.983458
0.983282
0.983107
0.982935
0.982765
0.982597
0.98243
0.982265
0.982102
0.98194
0.98178
0.981621
0.981464
0.981308
0.981154
0.981
0.980847
0.980696
0.980544
0.980394
0.980244
0.980096
0.979948
0.9798
0.979654
0.979508
0.979361
0.979213
0.979063
0.978912
0.97876
0.978608
0.978456
0.978305
0.978156
0.97801
0.977866
0.977722
0.977568
0.977386
0.999131
0.99832
0.997594
0.996933
0.996327
0.995767
0.995247
0.994761
0.994306
0.993876
0.993469
0.993082
0.992712
0.992357
0.992016
0.991688
0.99137
0.991063
0.990765
0.990476
0.990195
0.98992
0.989652
0.98939
0.989134
0.988882
0.988636
0.988394
0.988156
0.987922
0.987692
0.987466
0.987243
0.987024
0.986807
0.986594
0.986385
0.986178
0.985973
0.985772
0.985573
0.985378
0.985184
0.984994
0.984805
0.984619
0.984436
0.984255
0.984076
0.983899
0.983725
0.983553
0.983383
0.983215
0.983049
0.982885
0.982723
0.982562
0.982403
0.982246
0.98209
0.981935
0.981782
0.98163
0.98148
0.98133
0.981181
0.981033
0.980885
0.980739
0.980592
0.980446
0.980301
0.980157
0.980013
0.979869
0.979724
0.979578
0.97943
0.97928
0.979128
0.978977
0.978825
0.978674
0.978525
0.978377
0.978233
0.978088
0.977934
0.977753
0.999143
0.998344
0.997628
0.996977
0.996379
0.995827
0.995315
0.994837
0.994387
0.993964
0.993562
0.993181
0.992817
0.992467
0.992131
0.991807
0.991495
0.991192
0.990898
0.990613
0.990336
0.990066
0.989802
0.989544
0.989291
0.989044
0.988801
0.988563
0.98833
0.9881
0.987874
0.987651
0.987433
0.987217
0.987005
0.986797
0.986591
0.986388
0.986189
0.985992
0.985798
0.985607
0.985418
0.985233
0.985049
0.984869
0.984691
0.984515
0.984342
0.984171
0.984002
0.983836
0.983672
0.98351
0.98335
0.983192
0.983036
0.982882
0.982729
0.982578
0.982428
0.98228
0.982133
0.981988
0.981843
0.9817
0.981557
0.981415
0.981273
0.981133
0.980992
0.980853
0.980714
0.980576
0.980438
0.980301
0.980163
0.980024
0.979884
0.979742
0.9796
0.979457
0.979317
0.979178
0.979043
0.978911
0.978785
0.978661
0.978529
0.978374
0.999155
0.998368
0.997663
0.997021
0.996431
0.995887
0.995382
0.994911
0.994468
0.99405
0.993655
0.993279
0.992919
0.992575
0.992244
0.991924
0.991616
0.991317
0.991028
0.990747
0.990473
0.990206
0.989946
0.989692
0.989443
0.9892
0.988961
0.988727
0.988498
0.988273
0.988051
0.987834
0.98762
0.98741
0.987204
0.987001
0.986801
0.986605
0.986413
0.986224
0.986038
0.985855
0.985675
0.985498
0.985324
0.985154
0.984986
0.984823
0.984663
0.984506
0.984353
0.984202
0.984054
0.983908
0.983765
0.983623
0.983483
0.983345
0.983208
0.983072
0.982937
0.982803
0.98267
0.982538
0.982406
0.982276
0.982146
0.982017
0.981889
0.981762
0.981639
0.981518
0.9814
0.981285
0.981173
0.981064
0.980956
0.98085
0.980744
0.98064
0.980539
0.980441
0.980348
0.980261
0.980181
0.980109
0.980045
0.979986
0.979919
0.979829
0.999168
0.998392
0.997696
0.997064
0.996483
0.995946
0.995449
0.994984
0.994547
0.994136
0.993746
0.993375
0.993021
0.992682
0.992355
0.99204
0.991735
0.99144
0.991154
0.990876
0.990606
0.990342
0.990085
0.989834
0.989589
0.989349
0.989115
0.988885
0.988661
0.988441
0.988226
0.988016
0.987809
0.987608
0.987413
0.987225
0.987043
0.986866
0.986696
0.986531
0.986371
0.986217
0.986067
0.985923
0.985783
0.985647
0.985516
0.98539
0.985267
0.98515
0.985037
0.984929
0.984825
0.984725
0.98463
0.984538
0.984451
0.984366
0.984285
0.984207
0.984133
0.984061
0.983992
0.983925
0.983861
0.9838
0.983741
0.983685
0.983632
0.98358
0.983532
0.983487
0.983446
0.983408
0.983373
0.983343
0.983315
0.98329
0.983268
0.983248
0.983231
0.983217
0.983206
0.983198
0.983192
0.983187
0.983179
0.983158
0.983081
0.982922
0.99918
0.998415
0.99773
0.997106
0.996533
0.996005
0.995514
0.995056
0.994626
0.99422
0.993835
0.993469
0.993118
0.992779
0.992451
0.992133
0.991825
0.991525
0.991233
0.99095
0.990674
0.990405
0.990144
0.989889
0.989641
0.989404
0.989177
0.98896
0.988752
0.988553
0.988363
0.98818
0.988006
0.98784
0.987681
0.987531
0.987388
0.987253
0.987126
0.987005
0.986891
0.986783
0.986681
0.986586
0.986498
0.986417
0.986342
0.986274
0.986211
0.986153
0.986099
0.98605
0.986005
0.985964
0.985926
0.985893
0.985862
0.985834
0.985809
0.985787
0.985768
0.985751
0.985736
0.985724
0.985715
0.985708
0.985703
0.985701
0.985701
0.985704
0.98571
0.985719
0.985731
0.985747
0.985767
0.98579
0.985815
0.985843
0.985873
0.985905
0.985941
0.985978
0.986016
0.986056
0.986097
0.986139
0.986181
0.986215
0.986214
0.986163
0.999192
0.998438
0.997763
0.997148
0.996584
0.996063
0.995579
0.995127
0.994703
0.994303
0.993913
0.993524
0.993132
0.99274
0.992349
0.991964
0.991585
0.991216
0.990857
0.990511
0.990176
0.989855
0.989547
0.989252
0.988969
0.988703
0.988452
0.988216
0.987992
0.98778
0.987578
0.987387
0.987207
0.987034
0.986866
0.986701
0.98654
0.986385
0.986235
0.986092
0.985957
0.98583
0.985711
0.985603
0.985503
0.985413
0.985329
0.985253
0.985185
0.985122
0.985067
0.985018
0.984976
0.98494
0.984911
0.984887
0.984869
0.984856
0.984848
0.984845
0.984847
0.984853
0.984864
0.984879
0.984899
0.984922
0.984949
0.98498
0.985015
0.985053
0.985095
0.985141
0.985191
0.985245
0.985302
0.985363
0.985427
0.985493
0.985561
0.985636
0.985729
0.985831
0.985936
0.986042
0.986146
0.986245
0.986335
0.98641
0.986442
0.986416
0.999203
0.998461
0.997795
0.997189
0.996633
0.99612
0.995643
0.995197
0.994778
0.994373
0.993628
0.992831
0.992028
0.991235
0.990464
0.989722
0.989014
0.988345
0.987721
0.987145
0.986619
0.986144
0.98572
0.985347
0.985022
0.98474
0.984497
0.984287
0.984104
0.983942
0.983795
0.983659
0.983529
0.983402
0.98328
0.983161
0.983044
0.982928
0.982813
0.982697
0.982579
0.982459
0.982338
0.982218
0.982099
0.981982
0.981866
0.981753
0.981643
0.981536
0.981434
0.981337
0.981245
0.981158
0.981077
0.981001
0.980933
0.98087
0.980815
0.980766
0.980724
0.98069
0.980662
0.980642
0.98063
0.980625
0.980627
0.980637
0.980654
0.980678
0.980709
0.980748
0.980795
0.980848
0.980908
0.980975
0.981047
0.981141
0.98128
0.981579
0.982049
0.98247
0.982851
0.983201
0.983523
0.983816
0.984077
0.984296
0.984436
0.984461
0.999215
0.998483
0.997827
0.99723
0.996682
0.996176
0.995706
0.995267
0.994854
0.994455
0.993727
0.992948
0.992161
0.991382
0.990619
0.989881
0.989175
0.988505
0.987877
0.987295
0.986762
0.98628
0.98585
0.985472
0.985143
0.98486
0.984619
0.984413
0.984236
0.984083
0.983947
0.983823
0.983706
0.983593
0.983478
0.983361
0.983239
0.983114
0.982987
0.982855
0.982717
0.982573
0.982423
0.982271
0.982116
0.981958
0.981796
0.981632
0.981465
0.981296
0.981126
0.980955
0.980783
0.98061
0.980437
0.980264
0.980092
0.97992
0.979749
0.979579
0.979412
0.979248
0.979088
0.978933
0.978783
0.978641
0.978506
0.97838
0.978265
0.978161
0.978069
0.977992
0.97793
0.977883
0.977851
0.977835
0.977832
0.977843
0.977871
0.977945
0.978162
0.978469
0.978822
0.979193
0.979565
0.979926
0.980266
0.980574
0.980824
0.980993
0.999227
0.998505
0.997859
0.997271
0.996731
0.996232
0.995769
0.995336
0.994929
0.994535
0.993819
0.993055
0.992281
0.991515
0.990765
0.990039
0.989343
0.988684
0.988066
0.987493
0.98697
0.986498
0.986079
0.985712
0.985396
0.985127
0.984901
0.984712
0.984554
0.98442
0.984304
0.9842
0.984104
0.984011
0.983918
0.983822
0.983721
0.983618
0.983514
0.983405
0.983293
0.983175
0.983052
0.98293
0.982808
0.982685
0.982561
0.982437
0.982312
0.982187
0.98206
0.981932
0.981801
0.98167
0.981535
0.981398
0.981257
0.981112
0.980963
0.980807
0.980646
0.980478
0.980302
0.980119
0.979927
0.979727
0.979517
0.979299
0.979072
0.978838
0.978599
0.978354
0.978107
0.977857
0.977606
0.977356
0.977107
0.976861
0.976618
0.976393
0.976269
0.976243
0.976291
0.976392
0.976531
0.976694
0.97687
0.977044
0.977188
0.977284
0.999238
0.998527
0.997891
0.997311
0.996779
0.996287
0.995831
0.995404
0.995003
0.994615
0.993912
0.993161
0.9924
0.991647
0.99091
0.990196
0.989513
0.988864
0.988256
0.987693
0.987179
0.986715
0.986304
0.985944
0.985635
0.985373
0.985152
0.984969
0.984816
0.984687
0.984577
0.984479
0.984389
0.984302
0.984215
0.984124
0.984027
0.98393
0.983832
0.98373
0.983624
0.983512
0.983396
0.983282
0.98317
0.983057
0.982945
0.982834
0.982725
0.982617
0.982513
0.98241
0.98231
0.982213
0.982117
0.982024
0.981933
0.981845
0.981759
0.981672
0.981585
0.981497
0.981406
0.981314
0.981219
0.981121
0.98102
0.980917
0.980812
0.980705
0.980593
0.980478
0.98036
0.980239
0.980114
0.979985
0.979849
0.979706
0.979555
0.979414
0.979408
0.979412
0.979449
0.979503
0.979562
0.979621
0.979672
0.979709
0.979705
0.979631
0.999249
0.998549
0.997922
0.99735
0.996826
0.996342
0.995892
0.995472
0.995077
0.994694
0.994004
0.993265
0.992518
0.991778
0.991053
0.990352
0.989679
0.989042
0.988445
0.987891
0.987385
0.98693
0.986526
0.986173
0.98587
0.985614
0.985398
0.985219
0.985069
0.984943
0.984835
0.98474
0.984652
0.984567
0.984482
0.984391
0.984295
0.984198
0.9841
0.983998
0.983892
0.98378
0.983662
0.983547
0.983435
0.983322
0.98321
0.9831
0.98299
0.982884
0.982779
0.982678
0.98258
0.982486
0.982394
0.982305
0.982218
0.982133
0.982051
0.981971
0.981896
0.981823
0.981753
0.981685
0.981619
0.981555
0.981493
0.981432
0.981374
0.981319
0.981268
0.981221
0.981179
0.98114
0.981106
0.981076
0.981051
0.981032
0.981031
0.981144
0.981397
0.981622
0.98182
0.981997
0.982156
0.982297
0.982416
0.982498
0.982491
0.982338
0.99926
0.998571
0.997952
0.997389
0.996873
0.996396
0.995953
0.995539
0.995149
0.994773
0.994094
0.993369
0.992635
0.991908
0.991196
0.990506
0.989846
0.989219
0.988632
0.988089
0.987592
0.987145
0.986748
0.986403
0.986106
0.985854
0.985643
0.985467
0.985319
0.985195
0.985087
0.984992
0.984905
0.98482
0.984734
0.984642
0.984544
0.984444
0.984344
0.984239
0.984129
0.984014
0.983891
0.983772
0.983656
0.983539
0.983423
0.983307
0.983194
0.983082
0.982974
0.982869
0.982768
0.98267
0.982575
0.982482
0.982392
0.982304
0.982218
0.982133
0.982051
0.981969
0.981889
0.98181
0.981732
0.981655
0.981579
0.981504
0.98143
0.981357
0.981287
0.981225
0.981169
0.981119
0.981074
0.981035
0.981
0.980973
0.980966
0.981074
0.981313
0.981523
0.981708
0.981873
0.982022
0.982155
0.982267
0.982346
0.982337
0.982216
0.999271
0.998592
0.997983
0.997428
0.996919
0.996449
0.996013
0.995605
0.995222
0.994851
0.994185
0.993472
0.992751
0.992037
0.991337
0.99066
0.990011
0.989396
0.988819
0.988286
0.987798
0.98736
0.986971
0.986632
0.986342
0.986096
0.985889
0.985716
0.985569
0.985445
0.985336
0.985239
0.985149
0.985062
0.984973
0.984877
0.984774
0.98467
0.984566
0.984456
0.984341
0.984219
0.984089
0.983962
0.983839
0.983714
0.98359
0.983467
0.983345
0.983226
0.98311
0.982998
0.98289
0.982785
0.982683
0.982582
0.982484
0.982387
0.982291
0.982196
0.982102
0.982009
0.981916
0.981824
0.981731
0.981639
0.981547
0.981455
0.981363
0.981271
0.981179
0.981089
0.981
0.980911
0.980823
0.980735
0.980643
0.980548
0.980448
0.980399
0.980491
0.980562
0.980611
0.980642
0.980667
0.980697
0.980728
0.980751
0.980748
0.980696
0.999282
0.998613
0.998013
0.997466
0.996965
0.996502
0.996072
0.995671
0.995293
0.994928
0.994274
0.993574
0.992866
0.992163
0.991476
0.990811
0.990173
0.989569
0.989004
0.988481
0.988004
0.987575
0.987196
0.986866
0.986584
0.986345
0.986145
0.985976
0.985832
0.985708
0.985598
0.985499
0.985406
0.985316
0.985224
0.985126
0.98502
0.984913
0.984806
0.984693
0.984574
0.984447
0.984309
0.984174
0.984043
0.98391
0.983778
0.983647
0.983518
0.983393
0.983274
0.983159
0.983048
0.98294
0.982832
0.982726
0.982621
0.982516
0.982412
0.982307
0.982201
0.982095
0.981987
0.981878
0.981768
0.981656
0.981543
0.981427
0.981309
0.98119
0.981068
0.980944
0.980819
0.980691
0.98056
0.980425
0.980284
0.980135
0.979977
0.979822
0.979739
0.979713
0.979722
0.97975
0.979787
0.979828
0.979866
0.979895
0.979896
0.979848
0.999293
0.998633
0.998042
0.997504
0.99701
0.996554
0.996131
0.995735
0.995364
0.995004
0.994362
0.993675
0.992979
0.992288
0.991613
0.990961
0.990336
0.989747
0.989197
0.988691
0.988234
0.987827
0.98747
0.987164
0.986905
0.986689
0.986509
0.986358
0.986229
0.986115
0.986012
0.985918
0.985829
0.985742
0.985654
0.98556
0.985456
0.985351
0.985243
0.985127
0.985002
0.984864
0.984714
0.984562
0.984413
0.984262
0.984111
0.983963
0.983821
0.983688
0.983565
0.983451
0.983345
0.983245
0.983148
0.983055
0.982962
0.982871
0.982778
0.982685
0.982589
0.982491
0.982391
0.982289
0.982184
0.982077
0.981969
0.981859
0.981749
0.981637
0.981526
0.981416
0.981307
0.981199
0.981094
0.980991
0.980889
0.980787
0.980685
0.9806
0.980615
0.980705
0.980837
0.98099
0.98115
0.981309
0.981458
0.981589
0.981679
0.981715
0.999303
0.998654
0.998071
0.997541
0.997054
0.996605
0.996189
0.995799
0.995433
0.995079
0.994444
0.993764
0.993076
0.9924
0.991748
0.99113
0.990553
0.990025
0.989551
0.989133
0.988771
0.988463
0.988203
0.987987
0.987807
0.987658
0.987531
0.98742
0.987319
0.987223
0.98713
0.987039
0.98695
0.986861
0.986769
0.986671
0.986562
0.986447
0.986326
0.986191
0.986042
0.985875
0.985689
0.985495
0.985294
0.985085
0.984871
0.984656
0.984446
0.984249
0.984067
0.983903
0.983758
0.983631
0.983524
0.983436
0.983366
0.983311
0.983268
0.983236
0.98321
0.983188
0.983167
0.983146
0.983124
0.983101
0.983075
0.983047
0.983018
0.982988
0.982958
0.982929
0.982902
0.982879
0.982858
0.982842
0.982828
0.982816
0.982809
0.982872
0.983093
0.983304
0.983502
0.983688
0.98386
0.984016
0.98415
0.984254
0.98429
0.984292
0.999313
0.998674
0.9981
0.997578
0.997098
0.996656
0.996246
0.995863
0.995504
0.995165
0.994843
0.994532
0.994233
0.993942
0.99366
0.993385
0.993119
0.992861
0.992611
0.99237
0.992137
0.991911
0.991693
0.991482
0.991277
0.99108
0.990889
0.990704
0.990524
0.990347
0.990175
0.990006
0.989841
0.989681
0.989525
0.989371
0.989217
0.989064
0.988912
0.988759
0.988607
0.988454
0.9883
0.988147
0.987996
0.987845
0.987693
0.987544
0.987404
0.987275
0.987158
0.987052
0.986958
0.986876
0.986805
0.986743
0.986689
0.986641
0.986598
0.986558
0.986521
0.986486
0.986452
0.986421
0.986391
0.986364
0.986339
0.986318
0.9863
0.986285
0.986273
0.986266
0.986262
0.986263
0.986269
0.986281
0.986297
0.986317
0.986342
0.986374
0.986422
0.986476
0.986535
0.986594
0.986652
0.986707
0.986754
0.986787
0.986775
0.986699
0.999324
0.998694
0.998129
0.997614
0.997142
0.996707
0.996303
0.995926
0.995572
0.995239
0.994923
0.994622
0.994335
0.994059
0.993793
0.993536
0.993289
0.993049
0.992818
0.992594
0.992377
0.992167
0.991962
0.991762
0.991568
0.991379
0.991195
0.991016
0.990839
0.990666
0.990494
0.990325
0.990159
0.989996
0.989837
0.989679
0.98952
0.98936
0.989199
0.989038
0.988879
0.988722
0.988571
0.988427
0.98829
0.988157
0.988029
0.987907
0.987793
0.987688
0.987592
0.987504
0.987423
0.987348
0.987279
0.987216
0.98716
0.98711
0.987066
0.987027
0.986994
0.986967
0.986944
0.986927
0.986915
0.986908
0.986906
0.986907
0.986912
0.98692
0.986932
0.986947
0.986966
0.986989
0.987016
0.987045
0.987077
0.987109
0.987139
0.987165
0.987189
0.98721
0.987226
0.987239
0.987248
0.987254
0.987254
0.987242
0.987192
0.98709
0.999334
0.998713
0.998157
0.99765
0.997185
0.996757
0.996359
0.995988
0.99564
0.995312
0.995002
0.994707
0.994425
0.994155
0.993894
0.993643
0.993401
0.993167
0.992941
0.992721
0.992508
0.9923
0.992098
0.9919
0.991706
0.991517
0.991332
0.991151
0.990973
0.990798
0.990624
0.990452
0.990282
0.990116
0.989953
0.989789
0.989622
0.989453
0.989281
0.989109
0.98894
0.988775
0.988616
0.988462
0.988313
0.988164
0.988015
0.987867
0.987722
0.987581
0.987446
0.987315
0.987189
0.987068
0.986952
0.986843
0.986743
0.986649
0.986563
0.986483
0.986408
0.98634
0.986276
0.986217
0.986162
0.986111
0.986063
0.986018
0.985976
0.985937
0.9859
0.985866
0.985833
0.985803
0.985773
0.985745
0.985717
0.985687
0.985659
0.985633
0.985608
0.985584
0.98556
0.985534
0.985506
0.985474
0.985435
0.985379
0.985275
0.985135
0.999344
0.998733
0.998185
0.997686
0.997229
0.996807
0.996415
0.99605
0.995708
0.995385
0.99508
0.99479
0.994512
0.994246
0.993991
0.993744
0.993506
0.993276
0.993053
0.992837
0.992627
0.992422
0.992223
0.992028
0.991837
0.99165
0.991467
0.991288
0.991112
0.990938
0.990766
0.990596
0.990428
0.990263
0.990099
0.989934
0.989762
0.989589
0.989411
0.989235
0.989065
0.988905
0.988756
0.988614
0.988477
0.988341
0.988202
0.988063
0.987926
0.987791
0.98766
0.987532
0.987406
0.987284
0.987165
0.98705
0.986939
0.986832
0.98673
0.986631
0.986536
0.986445
0.986358
0.986274
0.986193
0.986115
0.986039
0.985965
0.985894
0.985824
0.985756
0.985689
0.985623
0.985557
0.985492
0.985426
0.985359
0.985289
0.985216
0.985139
0.985058
0.984974
0.984892
0.98481
0.98473
0.984653
0.984578
0.984506
0.984428
0.984335
0.999354
0.998753
0.998213
0.997722
0.997271
0.996856
0.996471
0.996112
0.995775
0.995458
0.995157
0.994872
0.994599
0.994338
0.994087
0.993844
0.99361
0.993384
0.993165
0.992952
0.992746
0.992545
0.992349
0.992157
0.991969
0.991784
0.991604
0.991426
0.991252
0.99108
0.99091
0.990741
0.990574
0.990411
0.990248
0.990081
0.989907
0.989732
0.989558
0.989396
0.989257
0.989142
0.989046
0.988959
0.988879
0.988798
0.988714
0.988627
0.988537
0.98845
0.988367
0.988288
0.988211
0.988138
0.988067
0.987999
0.987932
0.987866
0.987799
0.987731
0.987662
0.987592
0.987519
0.987444
0.987368
0.987289
0.987209
0.987128
0.987046
0.986963
0.98688
0.986796
0.986714
0.986632
0.98655
0.986469
0.986388
0.986311
0.98624
0.986175
0.986116
0.986062
0.986013
0.985968
0.98593
0.985899
0.985875
0.985857
0.985836
0.985804
0.999364
0.998772
0.998241
0.997757
0.997314
0.996905
0.996526
0.996173
0.995841
0.995529
0.995234
0.994953
0.994685
0.994428
0.994181
0.993942
0.993712
0.993489
0.993273
0.993064
0.992861
0.992663
0.99247
0.992281
0.992095
0.991914
0.991735
0.99156
0.991387
0.991217
0.991048
0.990881
0.990715
0.990553
0.99039
0.990223
0.990049
0.989884
0.989748
0.989673
0.989667
0.98971
0.989783
0.989861
0.989941
0.990012
0.990073
0.990126
0.990172
0.990203
0.990225
0.990239
0.990244
0.990238
0.990221
0.990192
0.990152
0.990101
0.99004
0.98997
0.989892
0.989807
0.989717
0.989622
0.989524
0.989423
0.989322
0.989219
0.989117
0.989016
0.988918
0.988822
0.98873
0.988647
0.988574
0.988511
0.988456
0.988405
0.988356
0.988311
0.988269
0.988234
0.988205
0.988184
0.988169
0.988162
0.988161
0.988164
0.988163
0.988149
0.999374
0.998791
0.998268
0.997792
0.997356
0.996953
0.99658
0.996232
0.995906
0.995599
0.995308
0.995032
0.994768
0.994516
0.994272
0.994038
0.993811
0.993592
0.993379
0.993173
0.992973
0.992778
0.992587
0.992401
0.992219
0.99204
0.991864
0.99169
0.991519
0.99135
0.991181
0.991014
0.990849
0.990686
0.990523
0.990356
0.990185
0.99008
0.99016
0.990402
0.990743
0.991094
0.991409
0.991672
0.991886
0.992048
0.992168
0.992252
0.992309
0.992342
0.992349
0.992333
0.992302
0.992256
0.992199
0.992132
0.992057
0.991976
0.991889
0.991797
0.991703
0.991606
0.991507
0.991408
0.991309
0.991211
0.991115
0.991021
0.99093
0.990843
0.990763
0.990691
0.990627
0.990567
0.990512
0.990461
0.990414
0.990371
0.990331
0.990298
0.990273
0.990255
0.990243
0.990234
0.99023
0.990228
0.990228
0.990225
0.990205
0.990165
0.999383
0.998809
0.998294
0.997825
0.997395
0.996999
0.996632
0.996289
0.995968
0.995665
0.995379
0.995107
0.994848
0.994599
0.994359
0.994128
0.993904
0.993688
0.993479
0.993276
0.993078
0.992885
0.992697
0.992513
0.992333
0.992156
0.991983
0.991812
0.991642
0.991473
0.991305
0.991137
0.99097
0.990804
0.990638
0.990468
0.990307
0.990391
0.990971
0.991764
0.992456
0.992941
0.9933
0.993522
0.99365
0.993708
0.993717
0.993695
0.993654
0.993599
0.993536
0.993468
0.993395
0.993318
0.993239
0.993158
0.993077
0.992996
0.992915
0.992835
0.992756
0.992678
0.992601
0.992527
0.992454
0.992385
0.99232
0.992261
0.992208
0.992161
0.992119
0.99208
0.992045
0.992013
0.991985
0.991959
0.991935
0.991912
0.991888
0.991863
0.991837
0.991811
0.991784
0.991757
0.99173
0.991702
0.991674
0.991644
0.991599
0.99154
0.999392
0.998826
0.998318
0.997855
0.997431
0.99704
0.996678
0.99634
0.996024
0.995725
0.995443
0.995175
0.994919
0.994674
0.994437
0.994209
0.993989
0.993775
0.993568
0.993367
0.993171
0.99298
0.992794
0.992612
0.992434
0.992259
0.992087
0.991917
0.991747
0.991578
0.991408
0.991238
0.991067
0.990896
0.990722
0.990547
0.990453
0.990881
0.992405
0.993571
0.994289
0.994663
0.994796
0.994811
0.994764
0.994676
0.99457
0.994459
0.994349
0.994245
0.994148
0.994059
0.993976
0.993899
0.993826
0.993757
0.99369
0.993627
0.993567
0.993514
0.993467
0.993424
0.993385
0.993348
0.993315
0.993283
0.993253
0.993225
0.993198
0.993172
0.993146
0.993121
0.993095
0.99307
0.993044
0.993017
0.992989
0.992959
0.992927
0.992892
0.992855
0.992815
0.992772
0.992729
0.992684
0.992638
0.992592
0.992544
0.992483
0.992413
0.999399
0.998839
0.998337
0.99788
0.997461
0.997075
0.996717
0.996383
0.99607
0.995775
0.995497
0.995232
0.994979
0.994736
0.994502
0.994276
0.994058
0.993847
0.993641
0.993442
0.993248
0.993058
0.992872
0.992691
0.992513
0.992338
0.992165
0.991993
0.991821
0.99165
0.991477
0.991303
0.991128
0.990948
0.990765
0.990581
0.99048
0.990931
0.992746
0.994139
0.995052
0.995579
0.995587
0.995516
0.995408
0.995274
0.995133
0.994992
0.994858
0.994733
0.99462
0.994517
0.994425
0.994341
0.994267
0.994204
0.994148
0.9941
0.994058
0.994022
0.993991
0.993963
0.993939
0.993917
0.993896
0.993877
0.993859
0.993841
0.993823
0.993806
0.993787
0.993768
0.993749
0.993729
0.993708
0.993686
0.99366
0.993629
0.993594
0.993553
0.993509
0.993461
0.99341
0.993356
0.993301
0.993245
0.993188
0.99313
0.993061
0.992984
0.999404
0.998849
0.998352
0.997899
0.997483
0.9971
0.996745
0.996415
0.996104
0.995812
0.995536
0.995273
0.995022
0.994781
0.994549
0.994325
0.994108
0.993898
0.993694
0.993495
0.993301
0.993112
0.992926
0.992744
0.992565
0.992386
0.992208
0.99203
0.991853
0.991675
0.991499
0.991321
0.99114
0.990955
0.990767
0.990582
0.990465
0.990889
0.992854
0.994411
0.995479
0.996147
0.996052
0.995908
0.99575
0.995582
0.99542
0.995264
0.995115
0.994977
0.99485
0.994732
0.994624
0.994528
0.994444
0.994369
0.994304
0.994247
0.994199
0.99416
0.994129
0.994106
0.994089
0.994079
0.994073
0.994071
0.99407
0.99407
0.994069
0.994067
0.994063
0.994057
0.994049
0.994038
0.994024
0.994006
0.993984
0.993958
0.993925
0.993887
0.993845
0.993798
0.993748
0.993696
0.993641
0.993584
0.993526
0.993466
0.993396
0.993319
0.999407
0.998856
0.998361
0.99791
0.997497
0.997116
0.996763
0.996434
0.996125
0.995834
0.995559
0.995297
0.995047
0.994807
0.994576
0.994352
0.994136
0.993926
0.993722
0.993523
0.99333
0.99314
0.992953
0.992769
0.992586
0.992401
0.992213
0.992026
0.991838
0.991653
0.991472
0.991292
0.991113
0.990935
0.990765
0.990613
0.990484
0.990824
0.992719
0.994283
0.995386
0.996098
0.995964
0.995788
0.995611
0.995435
0.995275
0.995125
0.994983
0.994847
0.994718
0.994594
0.994476
0.994362
0.994254
0.994154
0.994064
0.993985
0.993917
0.993863
0.993823
0.993798
0.993788
0.993792
0.993807
0.99383
0.993858
0.99389
0.993921
0.99395
0.993976
0.993998
0.994015
0.994027
0.994033
0.994033
0.994026
0.994012
0.993991
0.993962
0.993927
0.993886
0.99384
0.993791
0.993739
0.993685
0.993629
0.993571
0.993503
0.993428
0.999409
0.998858
0.998365
0.997915
0.997503
0.997123
0.996771
0.996442
0.996134
0.995844
0.995569
0.995308
0.995058
0.994817
0.994586
0.994362
0.994145
0.993935
0.99373
0.993531
0.993336
0.993145
0.992957
0.992769
0.992579
0.992385
0.992186
0.991986
0.991789
0.991597
0.991418
0.991249
0.991092
0.990961
0.99087
0.990828
0.990735
0.990646
0.991303
0.992144
0.993053
0.993832
0.993914
0.993969
0.994012
0.994035
0.994046
0.994039
0.994014
0.993969
0.993908
0.993834
0.993749
0.993658
0.993563
0.993467
0.993372
0.99328
0.993198
0.993125
0.993063
0.993017
0.992989
0.99298
0.992994
0.993037
0.993102
0.99318
0.993264
0.993349
0.99343
0.993504
0.993569
0.993626
0.993672
0.993709
0.993734
0.993749
0.993753
0.993747
0.993732
0.993709
0.993679
0.993644
0.993604
0.993561
0.993515
0.993466
0.993405
0.993337
0.999409
0.998858
0.998365
0.997915
0.997503
0.997123
0.996771
0.996443
0.996135
0.995845
0.99557
0.995308
0.995058
0.994818
0.994586
0.994362
0.994144
0.993933
0.993727
0.993527
0.993331
0.993138
0.992947
0.992754
0.992555
0.992352
0.992141
0.991931
0.99173
0.991545
0.991388
0.991264
0.991184
0.991177
0.991262
0.991408
0.991374
0.991267
0.991708
0.992111
0.99251
0.992881
0.992658
0.992468
0.992342
0.992272
0.992259
0.992283
0.992325
0.992369
0.992402
0.992418
0.992415
0.992395
0.992361
0.992314
0.992255
0.992185
0.992111
0.992032
0.991954
0.991885
0.991835
0.991806
0.991804
0.99183
0.991883
0.991961
0.992058
0.992168
0.992285
0.992405
0.992526
0.992651
0.99277
0.992877
0.992968
0.993042
0.993099
0.993141
0.993168
0.993182
0.993186
0.993181
0.993168
0.99315
0.993126
0.993097
0.993053
0.993001
0.999408
0.998857
0.998363
0.997912
0.9975
0.997119
0.996767
0.996438
0.99613
0.99584
0.995565
0.995304
0.995053
0.994813
0.994581
0.994356
0.994139
0.993927
0.993721
0.993519
0.993322
0.993129
0.992935
0.992737
0.99253
0.992319
0.992102
0.991894
0.991711
0.991568
0.991482
0.991463
0.991532
0.991716
0.992003
0.992259
0.99216
0.991986
0.992485
0.99293
0.993305
0.993605
0.993181
0.992795
0.992499
0.992254
0.992064
0.991925
0.991829
0.991767
0.991718
0.991661
0.991594
0.991527
0.991462
0.991405
0.991363
0.991345
0.991364
0.991416
0.991492
0.991578
0.991659
0.991726
0.991776
0.99181
0.991829
0.991838
0.991843
0.991848
0.991857
0.991873
0.991898
0.991931
0.991974
0.992026
0.992084
0.992141
0.992195
0.992243
0.992285
0.99232
0.992349
0.992374
0.992395
0.992411
0.99242
0.992422
0.992407
0.992379
0.999407
0.998855
0.99836
0.997909
0.997496
0.997115
0.996762
0.996433
0.996124
0.995833
0.995558
0.995296
0.995046
0.994805
0.994573
0.994349
0.994131
0.993919
0.993712
0.99351
0.993313
0.993119
0.992924
0.992722
0.992511
0.9923
0.992092
0.991923
0.991818
0.991794
0.991861
0.992011
0.992248
0.99257
0.992916
0.993029
0.992681
0.992245
0.992851
0.993399
0.993814
0.994056
0.992962
0.991981
0.991313
0.990963
0.990801
0.990758
0.990761
0.99066
0.990369
0.990607
0.99201
0.99261
0.992898
0.993087
0.9932
0.99326
0.993316
0.99335
0.99337
0.993377
0.993372
0.993357
0.993331
0.993296
0.993251
0.993199
0.99314
0.993076
0.993008
0.992936
0.992863
0.992788
0.992712
0.992633
0.992552
0.992472
0.992396
0.992325
0.992259
0.9922
0.992147
0.992099
0.992059
0.992025
0.991997
0.991971
0.99194
0.991899
0.999407
0.998854
0.998358
0.997907
0.997493
0.997112
0.996758
0.996429
0.99612
0.995828
0.995553
0.99529
0.995039
0.994798
0.994566
0.99434
0.994122
0.99391
0.993702
0.9935
0.993302
0.993107
0.992911
0.99271
0.992501
0.992309
0.992201
0.9922
0.99231
0.992503
0.992738
0.992993
0.99325
0.993491
0.99364