/*--------------------------------*- C++ -*----------------------------------*\
| =========                 |                                                 |
| \\      /  F ield         | OpenFOAM: The Open Source CFD Toolbox           |
|  \\    /   O peration     | Version:  v2012                                 |
|   \\  /    A nd           | Website:  www.openfoam.com                      |
|    \\/     M anipulation  |                                                 |
\*---------------------------------------------------------------------------*/
FoamFile
{
    version     2.0;
    format      ascii;
    class       volScalarField;
    location    "250/air";
    object      T;
}
// * * * * * * * * * * * * * * * * * * * * * * * * * * * * * * * * * * * * * //

dimensions      [0 0 0 1 0 0 0];


internalField   nonuniform List<scalar> 
287104
(
310.307
310.593
310.849
311.082
311.297
311.495
311.679
311.851
312.012
312.165
312.31
312.447
312.579
312.705
312.826
312.944
313.057
313.167
313.273
313.377
313.477
313.576
313.672
313.766
313.858
313.949
314.038
314.125
314.211
314.296
314.379
314.461
314.542
314.622
314.701
314.779
314.855
314.931
315.006
315.08
315.152
315.224
315.296
315.366
315.435
315.504
315.572
315.639
315.705
315.77
315.835
315.899
315.963
316.025
316.087
316.149
316.21
316.27
316.33
316.389
316.448
316.506
316.564
316.621
316.678
316.735
316.791
316.847
316.903
316.959
317.015
317.07
317.125
317.181
317.236
317.291
317.346
317.402
317.459
317.516
317.574
317.632
317.69
317.749
317.806
317.864
317.921
317.978
318.038
318.108
310.303
310.585
310.837
311.067
311.278
311.473
311.654
311.823
311.982
312.132
312.274
312.409
312.538
312.661
312.78
312.895
313.006
313.113
313.217
313.319
313.417
313.513
313.607
313.699
313.789
313.877
313.964
314.049
314.132
314.215
314.296
314.376
314.454
314.532
314.608
314.684
314.758
314.831
314.904
314.975
315.046
315.116
315.185
315.253
315.32
315.387
315.452
315.517
315.581
315.645
315.707
315.769
315.831
315.891
315.951
316.011
316.07
316.128
316.186
316.244
316.301
316.357
316.413
316.469
316.524
316.579
316.634
316.688
316.743
316.797
316.851
316.905
316.959
317.012
317.065
317.119
317.173
317.227
317.282
317.337
317.393
317.45
317.506
317.562
317.617
317.672
317.727
317.781
317.839
317.906
310.298
310.576
310.825
311.052
311.26
311.452
311.631
311.797
311.954
312.101
312.241
312.374
312.501
312.622
312.74
312.852
312.961
313.067
313.169
313.269
313.365
313.46
313.552
313.642
313.73
313.817
313.902
313.985
314.067
314.148
314.227
314.305
314.382
314.458
314.532
314.606
314.679
314.75
314.821
314.891
314.959
315.027
315.094
315.161
315.226
315.29
315.354
315.417
315.479
315.541
315.601
315.661
315.721
315.779
315.837
315.894
315.951
316.007
316.063
316.118
316.173
316.227
316.28
316.334
316.386
316.439
316.491
316.543
316.594
316.646
316.697
316.748
316.798
316.848
316.898
316.948
316.998
317.049
317.1
317.152
317.203
317.255
317.307
317.358
317.409
317.459
317.508
317.557
317.609
317.671
310.294
310.568
310.814
311.037
311.242
311.432
311.607
311.772
311.926
312.071
312.209
312.34
312.465
312.585
312.7
312.811
312.919
313.023
313.123
313.221
313.317
313.409
313.5
313.589
313.676
313.761
313.844
313.926
314.007
314.086
314.164
314.241
314.317
314.391
314.465
314.537
314.608
314.679
314.748
314.816
314.884
314.951
315.016
315.081
315.146
315.209
315.271
315.333
315.394
315.454
315.514
315.573
315.631
315.688
315.745
315.801
315.857
315.912
315.966
316.02
316.073
316.126
316.179
316.231
316.282
316.333
316.384
316.435
316.485
316.535
316.585
316.635
316.684
316.733
316.782
316.831
316.88
316.929
316.979
317.029
317.08
317.131
317.181
317.232
317.281
317.33
317.378
317.426
317.477
317.538
310.29
310.56
310.802
311.022
311.224
311.411
311.584
311.746
311.898
312.041
312.177
312.306
312.429
312.548
312.661
312.771
312.877
312.979
313.078
313.175
313.268
313.36
313.449
313.537
313.622
313.706
313.788
313.869
313.948
314.026
314.103
314.178
314.252
314.325
314.398
314.469
314.538
314.607
314.676
314.743
314.809
314.874
314.939
315.002
315.065
315.127
315.188
315.248
315.308
315.367
315.425
315.482
315.539
315.595
315.65
315.705
315.759
315.813
315.866
315.918
315.97
316.022
316.073
316.123
316.173
316.223
316.273
316.322
316.372
316.42
316.469
316.518
316.566
316.614
316.662
316.71
316.759
316.807
316.857
316.907
316.957
317.008
317.058
317.109
317.158
317.208
317.256
317.304
317.355
317.416
310.286
310.552
310.791
311.008
311.207
311.391
311.562
311.721
311.871
312.012
312.146
312.273
312.394
312.511
312.623
312.731
312.835
312.936
313.034
313.129
313.221
313.311
313.399
313.485
313.57
313.652
313.733
313.812
313.89
313.967
314.042
314.116
314.189
314.261
314.332
314.401
314.47
314.537
314.604
314.669
314.734
314.798
314.861
314.922
314.984
315.044
315.103
315.162
315.219
315.276
315.333
315.388
315.443
315.497
315.55
315.603
315.655
315.706
315.757
315.807
315.857
315.907
315.956
316.004
316.052
316.1
316.148
316.195
316.242
316.289
316.336
316.382
316.429
316.475
316.521
316.566
316.612
316.659
316.705
316.753
316.8
316.848
316.894
316.941
316.986
317.03
317.072
317.113
317.157
317.209
310.282
310.544
310.779
310.993
311.19
311.371
311.539
311.696
311.844
311.983
312.115
312.24
312.36
312.475
312.585
312.692
312.795
312.894
312.991
313.084
313.176
313.265
313.351
313.436
313.519
313.6
313.68
313.758
313.834
313.909
313.983
314.055
314.127
314.197
314.265
314.333
314.4
314.465
314.529
314.592
314.654
314.715
314.775
314.834
314.892
314.949
315.005
315.059
315.112
315.165
315.216
315.266
315.315
315.364
315.412
315.459
315.506
315.552
315.597
315.643
315.688
315.732
315.777
315.821
315.865
315.908
315.951
315.994
316.037
316.079
316.12
316.161
316.2
316.238
316.276
316.312
316.348
316.383
316.419
316.453
316.487
316.52
316.551
316.58
316.606
316.63
316.652
316.671
316.694
316.724
310.277
310.536
310.768
310.979
311.172
311.351
311.517
311.672
311.818
311.955
312.085
312.208
312.326
312.439
312.548
312.653
312.755
312.853
312.949
313.041
313.131
313.219
313.305
313.389
313.47
313.55
313.628
313.705
313.78
313.853
313.925
313.995
314.064
314.131
314.196
314.258
314.319
314.378
314.435
314.49
314.543
314.594
314.644
314.692
314.739
314.784
314.828
314.87
314.911
314.95
314.988
315.024
315.058
315.092
315.123
315.154
315.183
315.211
315.238
315.264
315.289
315.313
315.336
315.358
315.38
315.4
315.42
315.438
315.456
315.473
315.489
315.504
315.518
315.531
315.542
315.552
315.562
315.57
315.577
315.584
315.59
315.594
315.598
315.601
315.603
315.604
315.607
315.614
315.64
315.693
310.273
310.528
310.757
310.965
311.156
311.332
311.495
311.648
311.791
311.927
312.055
312.177
312.294
312.407
312.516
312.622
312.725
312.825
312.922
313.017
313.109
313.198
313.285
313.37
313.453
313.532
313.608
313.68
313.749
313.816
313.879
313.94
313.998
314.053
314.106
314.156
314.204
314.249
314.291
314.332
314.37
314.406
314.44
314.471
314.501
314.528
314.553
314.575
314.596
314.616
314.634
314.65
314.665
314.679
314.691
314.702
314.713
314.722
314.73
314.738
314.744
314.75
314.755
314.759
314.762
314.764
314.766
314.766
314.766
314.765
314.763
314.76
314.756
314.751
314.744
314.737
314.728
314.719
314.709
314.698
314.686
314.674
314.661
314.648
314.634
314.62
314.606
314.595
314.595
314.612
310.269
310.521
310.746
310.951
311.139
311.312
311.474
311.624
311.766
311.899
312.029
312.159
312.289
312.42
312.55
312.679
312.805
312.928
313.048
313.163
313.275
313.382
313.484
313.583
313.677
313.766
313.849
313.928
314.003
314.073
314.141
314.204
314.264
314.322
314.378
314.433
314.487
314.538
314.588
314.636
314.681
314.723
314.763
314.799
314.832
314.862
314.89
314.916
314.938
314.959
314.978
314.994
315.008
315.02
315.03
315.038
315.044
315.048
315.051
315.052
315.051
315.049
315.045
315.04
315.034
315.026
315.017
315.007
314.995
314.982
314.968
314.953
314.936
314.918
314.899
314.879
314.858
314.836
314.813
314.788
314.757
314.723
314.688
314.653
314.618
314.585
314.555
314.53
314.519
314.528
310.266
310.513
310.735
310.937
311.122
311.293
311.452
311.601
311.741
311.876
312.124
312.39
312.657
312.922
313.179
313.426
313.662
313.885
314.093
314.285
314.46
314.619
314.76
314.884
314.993
315.087
315.168
315.238
315.299
315.353
315.402
315.447
315.49
315.533
315.573
315.613
315.652
315.691
315.729
315.768
315.807
315.847
315.887
315.927
315.967
316.006
316.045
316.082
316.119
316.155
316.189
316.221
316.252
316.281
316.308
316.333
316.356
316.377
316.395
316.411
316.425
316.437
316.446
316.453
316.457
316.458
316.458
316.454
316.449
316.441
316.43
316.417
316.402
316.384
316.364
316.342
316.318
316.286
316.24
316.14
315.984
315.843
315.716
315.6
315.492
315.395
315.308
315.235
315.188
315.18
310.262
310.506
310.724
310.923
311.106
311.275
311.431
311.578
311.715
311.848
312.091
312.351
312.613
312.873
313.127
313.373
313.608
313.832
314.041
314.235
314.413
314.573
314.717
314.843
314.952
315.047
315.127
315.196
315.255
315.306
315.351
315.392
315.431
315.469
315.507
315.546
315.587
315.629
315.671
315.715
315.761
315.809
315.859
315.91
315.961
316.014
316.068
316.123
316.178
316.235
316.291
316.348
316.406
316.463
316.521
316.579
316.636
316.693
316.75
316.807
316.863
316.917
316.971
317.022
317.072
317.12
317.165
317.207
317.245
317.28
317.31
317.336
317.357
317.372
317.383
317.388
317.389
317.386
317.376
317.352
317.279
317.177
317.059
316.936
316.812
316.691
316.578
316.475
316.392
316.336
310.258
310.498
310.714
310.91
311.09
311.256
311.41
311.555
311.69
311.822
312.06
312.315
312.573
312.828
313.078
313.32
313.552
313.772
313.978
314.169
314.343
314.501
314.64
314.763
314.868
314.958
315.033
315.096
315.149
315.193
315.232
315.267
315.299
315.33
315.361
315.393
315.426
315.461
315.495
315.532
315.569
315.608
315.649
315.69
315.731
315.772
315.813
315.854
315.896
315.938
315.98
316.023
316.066
316.11
316.155
316.201
316.248
316.296
316.346
316.398
316.451
316.507
316.566
316.627
316.691
316.758
316.828
316.9
316.976
317.054
317.134
317.215
317.298
317.381
317.465
317.548
317.631
317.713
317.794
317.869
317.91
317.919
317.903
317.869
317.823
317.769
317.71
317.652
317.604
317.572
310.254
310.491
310.703
310.896
311.074
311.238
311.39
311.532
311.666
311.795
312.029
312.28
312.533
312.784
313.03
313.268
313.496
313.712
313.915
314.102
314.274
314.428
314.565
314.685
314.788
314.876
314.949
315.01
315.061
315.104
315.141
315.174
315.204
315.233
315.262
315.292
315.324
315.357
315.389
315.423
315.459
315.496
315.535
315.573
315.61
315.648
315.685
315.722
315.758
315.794
315.829
315.863
315.897
315.929
315.961
315.992
316.022
316.052
316.08
316.109
316.138
316.168
316.198
316.229
316.26
316.293
316.327
316.361
316.396
316.432
316.469
316.507
316.547
316.587
316.629
316.672
316.717
316.765
316.815
316.862
316.864
316.863
316.85
316.832
316.813
316.793
316.776
316.764
316.765
316.79
310.25
310.484
310.693
310.883
311.058
311.219
311.369
311.509
311.641
311.769
311.999
312.245
312.494
312.741
312.982
313.216
313.44
313.653
313.852
314.036
314.205
314.357
314.491
314.609
314.71
314.795
314.867
314.927
314.977
315.019
315.055
315.087
315.116
315.144
315.173
315.203
315.235
315.267
315.3
315.334
315.369
315.407
315.446
315.484
315.522
315.559
315.597
315.633
315.67
315.705
315.74
315.774
315.807
315.838
315.869
315.898
315.927
315.956
315.983
316.01
316.035
316.059
316.082
316.105
316.127
316.148
316.169
316.189
316.209
316.227
316.244
316.26
316.274
316.287
316.298
316.308
316.316
316.323
316.323
316.285
316.201
316.126
316.06
316.001
315.948
315.901
315.861
315.834
315.836
315.887
310.247
310.476
310.683
310.87
311.042
311.201
311.349
311.487
311.617
311.742
311.969
312.21
312.455
312.697
312.935
313.165
313.385
313.594
313.789
313.97
314.136
314.285
314.417
314.532
314.631
314.715
314.786
314.844
314.894
314.935
314.971
315.003
315.032
315.06
315.089
315.119
315.152
315.185
315.219
315.254
315.29
315.329
315.37
315.409
315.448
315.487
315.526
315.564
315.602
315.639
315.675
315.71
315.744
315.777
315.808
315.839
315.869
315.899
315.927
315.956
315.983
316.01
316.037
316.063
316.089
316.115
316.14
316.165
316.19
316.214
316.238
316.258
316.277
316.294
316.309
316.322
316.333
316.342
316.345
316.309
316.229
316.159
316.097
316.042
315.993
315.948
315.911
315.885
315.888
315.928
310.243
310.469
310.672
310.857
311.027
311.184
311.329
311.465
311.593
311.716
311.938
312.176
312.416
312.654
312.888
313.113
313.33
313.535
313.727
313.905
314.067
314.213
314.343
314.456
314.553
314.635
314.704
314.761
314.81
314.852
314.888
314.92
314.95
314.979
315.009
315.041
315.075
315.11
315.145
315.181
315.22
315.26
315.304
315.346
315.387
315.429
315.47
315.511
315.552
315.591
315.63
315.667
315.703
315.738
315.772
315.806
315.839
315.871
315.903
315.935
315.966
315.997
316.028
316.059
316.09
316.12
316.151
316.182
316.212
316.243
316.274
316.304
316.333
316.363
316.392
316.422
316.452
316.484
316.517
316.534
316.503
316.479
316.463
316.453
316.444
316.434
316.424
316.416
316.417
316.435
310.239
310.462
310.662
310.845
311.012
311.166
311.309
311.443
311.569
311.691
311.909
312.142
312.378
312.612
312.841
313.063
313.276
313.477
313.665
313.84
313.999
314.142
314.268
314.378
314.472
314.552
314.618
314.675
314.723
314.764
314.801
314.834
314.865
314.895
314.925
314.958
314.993
315.029
315.065
315.102
315.142
315.184
315.23
315.275
315.319
315.363
315.407
315.451
315.494
315.536
315.575
315.614
315.651
315.687
315.723
315.758
315.793
315.828
315.863
315.898
315.933
315.968
316.004
316.041
316.077
316.115
316.152
316.191
316.23
316.27
316.311
316.352
316.394
316.436
316.48
316.525
316.572
316.622
316.674
316.726
316.754
316.762
316.759
316.75
316.738
316.724
316.711
316.702
316.701
316.717
310.236
310.456
310.653
310.832
310.997
311.149
311.29
311.422
311.545
311.665
311.879
312.108
312.34
312.571
312.796
313.013
313.221
313.418
313.601
313.77
313.922
314.058
314.177
314.279
314.365
314.437
314.497
314.547
314.59
314.628
314.663
314.694
314.724
314.753
314.782
314.813
314.848
314.883
314.919
314.958
314.999
315.045
315.095
315.146
315.196
315.246
315.296
315.346
315.393
315.437
315.478
315.516
315.552
315.585
315.617
315.648
315.679
315.71
315.741
315.772
315.804
315.836
315.87
315.904
315.939
315.974
316.01
316.047
316.084
316.121
316.158
316.195
316.231
316.267
316.302
316.336
316.37
316.404
316.438
316.467
316.462
316.432
316.388
316.337
316.283
316.23
316.181
316.137
316.107
316.095
310.232
310.449
310.643
310.82
310.982
311.132
311.27
311.4
311.522
311.64
311.852
312.079
312.308
312.533
312.751
312.957
313.149
313.325
313.483
313.622
313.743
313.846
313.932
314.004
314.064
314.114
314.156
314.193
314.227
314.259
314.29
314.32
314.35
314.38
314.41
314.443
314.479
314.518
314.558
314.603
314.653
314.708
314.77
314.835
314.902
314.972
315.043
315.115
315.185
315.25
315.311
315.366
315.414
315.456
315.492
315.521
315.545
315.563
315.577
315.588
315.597
315.604
315.611
315.618
315.625
315.633
315.642
315.651
315.661
315.671
315.681
315.69
315.699
315.707
315.714
315.719
315.724
315.728
315.73
315.709
315.636
315.565
315.499
315.437
315.38
315.328
315.283
315.249
315.237
315.236
310.229
310.442
310.633
310.807
310.967
311.115
311.251
311.379
311.499
311.612
311.719
311.823
311.922
312.019
312.113
312.205
312.294
312.38
312.463
312.543
312.621
312.696
312.769
312.839
312.908
312.973
313.037
313.099
313.159
313.218
313.275
313.331
313.386
313.44
313.492
313.543
313.594
313.645
313.696
313.747
313.798
313.849
313.9
313.951
314.001
314.052
314.102
314.152
314.199
314.242
314.281
314.316
314.347
314.375
314.398
314.419
314.437
314.453
314.467
314.481
314.493
314.505
314.516
314.526
314.536
314.545
314.554
314.561
314.567
314.572
314.576
314.578
314.579
314.579
314.577
314.573
314.568
314.561
314.553
314.542
314.526
314.508
314.488
314.469
314.449
314.431
314.415
314.404
314.408
314.434
310.225
310.435
310.624
310.795
310.953
311.098
311.232
311.358
311.476
311.587
311.692
311.793
311.888
311.98
312.069
312.155
312.237
312.317
312.394
312.469
312.541
312.611
312.679
312.746
312.811
312.874
312.935
312.995
313.054
313.111
313.169
313.225
313.28
313.335
313.388
313.44
313.493
313.547
313.6
313.654
313.707
313.759
313.81
313.858
313.903
313.948
313.99
314.031
314.069
314.104
314.136
314.165
314.192
314.217
314.24
314.261
314.28
314.297
314.311
314.324
314.335
314.344
314.352
314.358
314.362
314.364
314.365
314.364
314.363
314.36
314.356
314.351
314.345
314.337
314.328
314.318
314.308
314.297
314.287
314.278
314.27
314.263
314.258
314.254
314.251
314.249
314.249
314.253
314.269
314.303
310.222
310.429
310.614
310.783
310.938
311.081
311.214
311.337
311.453
311.563
311.666
311.764
311.858
311.948
312.035
312.119
312.2
312.278
312.353
312.426
312.497
312.567
312.634
312.7
312.765
312.828
312.889
312.95
313.009
313.067
313.125
313.183
313.239
313.295
313.349
313.404
313.459
313.516
313.573
313.63
313.687
313.742
313.795
313.846
313.896
313.945
313.995
314.044
314.093
314.14
314.185
314.228
314.27
314.311
314.349
314.386
314.419
314.45
314.479
314.506
314.531
314.553
314.575
314.594
314.613
314.63
314.646
314.661
314.675
314.688
314.7
314.711
314.722
314.732
314.742
314.752
314.761
314.771
314.78
314.789
314.797
314.805
314.813
314.822
314.831
314.842
314.855
314.874
314.908
314.955
310.219
310.422
310.605
310.771
310.924
311.064
311.195
311.317
311.431
311.538
311.64
311.737
311.829
311.918
312.003
312.085
312.165
312.241
312.316
312.388
312.458
312.526
312.592
312.657
312.721
312.783
312.844
312.904
312.963
313.021
313.078
313.135
313.191
313.246
313.3
313.355
313.413
313.47
313.53
313.588
313.645
313.698
313.748
313.795
313.841
313.886
313.933
313.979
314.025
314.07
314.113
314.156
314.198
314.239
314.278
314.317
314.354
314.389
314.423
314.456
314.488
314.518
314.547
314.575
314.602
314.628
314.654
314.678
314.702
314.725
314.748
314.77
314.792
314.814
314.836
314.858
314.88
314.904
314.928
314.954
314.981
315.009
315.036
315.063
315.09
315.116
315.141
315.165
315.191
315.222
310.215
310.416
310.596
310.759
310.91
311.048
311.176
311.296
311.408
311.514
311.614
311.709
311.8
311.887
311.971
312.052
312.13
312.205
312.278
312.349
312.418
312.485
312.55
312.614
312.677
312.739
312.799
312.858
312.916
312.973
313.03
313.086
313.142
313.196
313.251
313.306
313.364
313.423
313.481
313.535
313.581
313.619
313.651
313.68
313.707
313.734
313.762
313.791
313.821
313.85
313.878
313.904
313.93
313.954
313.978
314
314.023
314.045
314.067
314.09
314.113
314.136
314.16
314.185
314.211
314.237
314.264
314.291
314.318
314.346
314.373
314.401
314.429
314.456
314.483
314.51
314.537
314.563
314.587
314.608
314.628
314.646
314.662
314.677
314.69
314.7
314.708
314.714
314.721
314.732
310.212
310.409
310.586
310.748
310.895
311.032
311.158
311.276
311.386
311.49
311.589
311.682
311.772
311.857
311.94
312.019
312.096
312.17
312.242
312.312
312.38
312.446
312.51
312.573
312.635
312.695
312.755
312.813
312.871
312.928
312.984
313.04
313.095
313.149
313.203
313.259
313.317
313.372
313.417
313.442
313.444
313.43
313.406
313.38
313.353
313.329
313.309
313.291
313.276
313.266
313.258
313.254
313.252
313.254
313.26
313.269
313.283
313.3
313.32
313.343
313.369
313.398
313.428
313.459
313.492
313.526
313.559
313.594
313.628
313.661
313.694
313.726
313.757
313.784
313.809
313.83
313.848
313.865
313.881
313.896
313.91
313.922
313.932
313.939
313.944
313.946
313.946
313.945
313.946
313.95
310.209
310.403
310.577
310.736
310.881
311.016
311.14
311.256
311.365
311.467
311.564
311.656
311.744
311.828
311.909
311.987
312.063
312.136
312.207
312.276
312.342
312.407
312.471
312.533
312.594
312.653
312.712
312.77
312.827
312.883
312.94
312.995
313.05
313.105
313.159
313.215
313.272
313.307
313.28
313.199
313.086
312.969
312.864
312.776
312.705
312.651
312.611
312.583
312.564
312.553
312.55
312.556
312.566
312.581
312.6
312.623
312.648
312.675
312.704
312.734
312.766
312.798
312.831
312.864
312.897
312.93
312.962
312.993
313.023
313.052
313.079
313.103
313.124
313.144
313.163
313.18
313.195
313.21
313.223
313.234
313.242
313.248
313.252
313.255
313.257
313.257
313.257
313.258
313.265
313.278
310.206
310.397
310.569
310.725
310.868
311
311.123
311.237
311.344
311.445
311.54
311.631
311.717
311.8
311.88
311.957
312.032
312.104
312.174
312.241
312.307
312.372
312.434
312.496
312.556
312.615
312.672
312.729
312.786
312.842
312.898
312.954
313.01
313.065
313.121
313.177
313.231
313.203
313.01
312.745
312.515
312.353
312.233
312.159
312.117
312.097
312.094
312.102
312.115
312.134
312.155
312.177
312.202
312.227
312.254
312.281
312.308
312.335
312.362
312.388
312.415
312.441
312.466
312.491
312.515
312.538
312.56
312.58
312.597
312.613
312.627
312.64
312.652
312.662
312.672
312.68
312.688
312.696
312.704
312.712
312.721
312.73
312.739
312.748
312.757
312.766
312.775
312.785
312.8
312.82
310.203
310.391
310.561
310.715
310.856
310.987
311.107
311.22
311.325
311.425
311.519
311.608
311.694
311.775
311.854
311.93
312.004
312.075
312.144
312.211
312.276
312.34
312.402
312.463
312.522
312.58
312.638
312.694
312.751
312.807
312.864
312.921
312.978
313.035
313.093
313.151
313.182
313.04
312.532
312.143
311.904
311.779
311.735
311.73
311.745
311.775
311.81
311.847
311.884
311.918
311.951
311.98
312.008
312.034
312.058
312.081
312.103
312.124
312.144
312.162
312.178
312.192
312.205
312.217
312.228
312.239
312.249
312.258
312.267
312.276
312.285
312.293
312.302
312.31
312.319
312.328
312.337
312.347
312.358
312.369
312.382
312.395
312.409
312.424
312.439
312.454
312.469
312.485
312.506
312.529
310.2
310.387
310.554
310.707
310.846
310.975
311.094
311.206
311.31
311.408
311.501
311.589
311.674
311.755
311.833
311.908
311.981
312.051
312.12
312.186
312.251
312.314
312.376
312.436
312.496
312.554
312.612
312.669
312.726
312.783
312.841
312.899
312.957
313.017
313.078
313.14
313.173
313.023
312.418
311.954
311.649
311.474
311.471
311.495
311.531
311.575
311.622
311.669
311.714
311.756
311.793
311.828
311.858
311.886
311.911
311.932
311.951
311.967
311.981
311.993
312.003
312.012
312.02
312.028
312.035
312.041
312.047
312.053
312.059
312.065
312.071
312.077
312.084
312.09
312.097
312.105
312.113
312.124
312.135
312.149
312.164
312.18
312.197
312.215
312.233
312.252
312.271
312.29
312.313
312.339
310.199
310.384
310.549
310.7
310.839
310.967
311.085
311.195
311.299
311.396
311.488
311.576
311.659
311.74
311.817
311.892
311.964
312.034
312.102
312.168
312.233
312.296
312.358
312.419
312.478
312.538
312.597
312.657
312.716
312.775
312.834
312.893
312.953
313.015
313.078
313.139
313.178
313.037
312.382
311.863
311.507
311.284
311.316
311.364
311.417
311.473
311.527
311.579
311.628
311.674
311.717
311.756
311.792
311.824
311.852
311.877
311.899
311.918
311.934
311.947
311.957
311.965
311.97
311.974
311.976
311.976
311.977
311.977
311.977
311.978
311.979
311.981
311.984
311.987
311.992
311.998
312.005
312.014
312.025
312.038
312.052
312.067
312.084
312.101
312.12
312.139
312.158
312.178
312.201
312.227
310.198
310.381
310.546
310.697
310.834
310.961
311.079
311.189
311.292
311.389
311.48
311.568
311.651
311.731
311.808
311.883
311.955
312.025
312.093
312.159
312.223
312.287
312.349
312.41
312.471
312.533
312.596
312.658
312.721
312.782
312.843
312.903
312.962
313.022
313.078
313.129
313.172
313.059
312.427
311.906
311.538
311.301
311.345
311.404
311.463
311.522
311.575
311.625
311.672
311.718
311.761
311.802
311.841
311.879
311.915
311.949
311.979
312.005
312.028
312.046
312.059
312.067
312.071
312.069
312.064
312.057
312.047
312.037
312.026
312.017
312.008
312.001
311.995
311.991
311.989
311.989
311.991
311.996
312.003
312.013
312.024
312.038
312.053
312.07
312.087
312.105
312.124
312.143
312.166
312.191
310.197
310.381
310.545
310.695
310.832
310.959
311.076
311.186
311.289
311.385
311.477
311.564
311.647
311.728
311.805
311.879
311.952
312.022
312.09
312.156
312.221
312.285
312.348
312.41
312.474
312.538
312.605
312.671
312.737
312.801
312.861
312.917
312.969
313.013
313.043
313.057
313.088
313.118
312.899
312.619
312.316
312.056
312.029
312.01
311.996
311.988
311.985
311.987
311.995
312.01
312.031
312.055
312.084
312.114
312.146
312.178
312.209
312.24
312.267
312.292
312.312
312.328
312.337
312.34
312.335
312.321
312.299
312.273
312.245
312.217
312.19
312.165
312.144
312.125
312.109
312.097
312.089
312.084
312.082
312.084
312.089
312.097
312.107
312.119
312.132
312.146
312.162
312.178
312.198
312.221
310.197
310.381
310.545
310.695
310.832
310.959
311.076
311.186
311.288
311.385
311.477
311.564
311.647
311.727
311.805
311.879
311.952
312.022
312.091
312.158
312.223
312.287
312.351
312.415
312.482
312.549
312.62
312.69
312.757
312.818
312.871
312.912
312.939
312.941
312.913
312.864
312.875
312.911
312.764
312.63
312.497
312.373
312.447
312.511
312.553
312.576
312.58
312.572
312.558
312.544
312.533
312.527
312.528
312.535
312.546
312.562
312.582
312.605
312.63
312.656
312.682
312.705
312.722
312.731
312.732
312.723
312.706
312.68
312.647
312.611
312.572
312.532
312.491
312.45
312.41
312.374
312.344
312.319
312.3
312.286
312.277
312.273
312.271
312.273
312.277
312.283
312.291
312.301
312.316
312.333
310.197
310.381
310.546
310.696
310.833
310.96
311.078
311.187
311.29
311.387
311.478
311.565
311.649
311.729
311.806
311.881
311.954
312.024
312.093
312.16
312.226
312.29
312.355
312.421
312.49
312.56
312.633
312.702
312.763
312.811
312.839
312.846
312.823
312.761
312.666
312.58
312.613
312.671
312.505
312.357
312.232
312.132
312.273
312.402
312.5
312.582
312.645
312.692
312.724
312.744
312.761
312.78
312.802
312.824
312.846
312.865
312.879
312.885
312.879
312.861
312.836
312.807
312.78
312.758
312.741
312.73
312.724
312.721
312.719
312.717
312.714
312.709
312.701
312.69
312.675
312.658
312.639
312.62
312.602
312.586
312.572
312.56
312.55
312.542
312.535
312.53
312.527
312.526
312.531
312.54
310.198
310.382
310.547
310.697
310.835
310.962
311.079
311.189
311.292
311.389
311.481
311.568
311.651
311.732
311.809
311.884
311.956
312.027
312.096
312.163
312.229
312.294
312.359
312.426
312.496
312.567
312.636
312.692
312.727
312.735
312.713
312.663
312.584
312.477
312.361
312.324
312.44
312.585
312.383
312.2
312.062
311.981
312.346
312.673
312.896
313.012
313.066
313.081
313.08
313.113
313.21
313.131
312.663
312.463
312.367
312.304
312.267
312.247
312.228
312.217
312.21
312.208
312.209
312.214
312.223
312.235
312.25
312.267
312.287
312.308
312.331
312.355
312.379
312.404
312.429
312.456
312.483
312.509
312.535
312.558
312.58
312.6
312.618
312.634
312.647
312.658
312.668
312.676
312.687
312.7
310.198
310.382
310.547
310.698
310.836
310.963
311.081
311.19
311.293
311.391
311.482
311.57
311.654
311.734
311.811
311.887
311.959
312.03
312.099
312.167
312.233
312.298
312.363
312.43
312.5
312.564
312.6
312.6
312.563
312.499
312.421
312.336
312.25
312.17
312.12
312.2
313.144
312.939
312.793
312.695
312.573
312.425
312.268
312.136
312.052
311.993
311.953
311.924
311.911
311.909
311.904
311.905
311.91
311.916
311.925
311.936
311.948
311.961
311.977
311.994
312.012
312.031
312.051
312.071
312.093
312.115
312.138
312.162
312.188
312.215
312.243
312.273
312.304
312.336
312.367
312.398
312.428
312.458
312.486
312.514
312.542
312.573
310.198
310.382
310.547
310.698
310.836
310.963
311.081
311.191
311.294
311.391
311.483
311.571
311.654
311.735
311.813
311.888
311.961
312.032
312.101
312.169
312.235
312.301
312.366
312.432
312.498
312.522
312.462
312.339
312.207
312.104
312.013
311.953
311.924
311.928
311.991
312.208
312.807
312.509
312.319
312.19
312.087
312
311.925
311.864
311.812
311.77
311.741
311.723
311.722
311.726
311.727
311.733
311.74
311.749
311.76
311.771
311.782
311.795
311.807
311.821
311.835
311.849
311.865
311.881
311.897
311.915
311.933
311.952
311.972
311.994
312.017
312.042
312.068
312.095
312.122
312.149
312.177
312.204
312.23
312.256
312.286
312.316
310.198
310.382
310.547
310.698
310.836
310.963
311.08
311.19
311.293
311.391
311.483
311.57
311.654
311.734
311.812
311.887
311.96
312.031
312.101
312.169
312.236
312.301
312.366
312.431
312.477
312.399
312.089
311.829
311.669
311.598
311.588
311.612
311.664
311.75
311.906
312.257
312.705
312.366
312.166
312.034
311.932
311.842
311.769
311.715
311.676
311.65
311.635
311.632
311.639
311.647
311.654
311.664
311.676
311.688
311.7
311.712
311.723
311.733
311.742
311.751
311.76
311.77
311.779
311.789
311.799
311.81
311.821
311.834
311.848
311.864
311.882
311.901
311.922
311.944
311.967
311.99
312.013
312.036
312.058
312.081
312.107
312.132
310.198
310.382
310.547
310.697
310.835
310.962
311.08
311.19
311.293
311.39
311.482
311.569
311.653
311.733
311.811
311.886
311.959
312.03
312.1
312.168
312.235
312.3
312.365
312.429
312.47
312.377
311.959
311.611
311.376
311.246
311.286
311.351
311.442
311.572
311.788
312.239
312.661
312.302
312.095
311.951
311.845
311.765
311.704
311.662
311.635
311.619
311.617
311.625
311.637
311.652
311.666
311.683
311.699
311.715
311.729
311.741
311.752
311.76
311.766
311.77
311.774
311.776
311.778
311.78
311.783
311.786
311.791
311.796
311.804
311.813
311.824
311.838
311.853
311.87
311.887
311.906
311.924
311.943
311.962
311.981
312.004
312.025
310.198
310.381
310.547
310.697
310.835
310.962
311.079
311.189
311.292
311.389
311.481
311.568
311.652
311.732
311.809
311.885
311.958
312.029
312.098
312.166
312.233
312.299
312.364
312.426
312.465
312.366
311.863
311.441
311.137
310.942
311.018
311.11
311.222
311.368
311.601
312.089
312.664
312.282
312.066
311.936
311.846
311.776
311.72
311.686
311.667
311.661
311.671
311.685
311.704
311.728
311.752
311.778
311.803
311.825
311.843
311.857
311.869
311.876
311.88
311.88
311.877
311.872
311.865
311.857
311.849
311.842
311.835
311.831
311.829
311.831
311.836
311.844
311.854
311.866
311.88
311.895
311.911
311.927
311.944
311.961
311.981
312.001
310.198
310.381
310.546
310.697
310.834
310.961
311.079
311.188
311.291
311.388
311.48
311.567
311.651
311.731
311.809
311.884
311.957
312.027
312.097
312.164
312.231
312.297
312.362
312.424
312.465
312.37
311.851
311.41
311.087
310.869
310.962
311.066
311.178
311.312
311.516
311.937
312.728
312.343
312.101
312.014
311.928
311.858
311.802
311.768
311.76