/*--------------------------------*- C++ -*----------------------------------*\
| =========                 |                                                 |
| \\      /  F ield         | OpenFOAM: The Open Source CFD Toolbox           |
|  \\    /   O peration     | Version:  v2012                                 |
|   \\  /    A nd           | Website:  www.openfoam.com                      |
|    \\/     M anipulation  |                                                 |
\*---------------------------------------------------------------------------*/
FoamFile
{
    version     2.0;
    format      ascii;
    class       volScalarField;
    location    "200/concrete";
    object      T;
}
// * * * * * * * * * * * * * * * * * * * * * * * * * * * * * * * * * * * * * //

dimensions      [0 0 0 1 0 0 0];


internalField   nonuniform List<scalar> 
1924
(
322.909
323.26
323.688
323.916
324.229
323.392
310.844
309.665
309.559
310.408
321.625
322.173
321.73
321.406
320.982
320.741
320.674
320.699
320.751
320.814
320.886
320.958
321.021
321.065
321.089
321.1
322.95
323.268
323.668
323.837
324.299
323.594
311.371
310.206
310.142
311.144
323.194
323.85
323.227
322.794
322.199
321.815
321.645
321.58
321.541
321.51
321.488
321.474
321.461
321.445
321.427
321.415
322.862
323.029
323.281
323.419
324.208
323.542
311.074
309.825
309.798
310.992
323.7
324.466
323.502
323.015
322.373
321.928
321.704
321.604
321.553
321.527
321.52
321.522
321.528
321.533
321.537
321.549
322.524
322.501
322.547
322.612
323.103
322.311
311.647
310.515
310.507
311.72
323.571
324.904
324.227
323.676
322.808
321.931
321.329
321.165
321.093
321.116
321.195
321.266
321.31
321.344
321.372
321.404
321.867
321.798
321.719
320.63
302.854
300.168
298.461
298.01
298.016
298.505
300.365
303.197
322.177
322.914
322.239
321.67
321.36
321.228
321.16
321.127
321.123
321.142
321.174
321.217
321.27
321.318
321.128
321.295
321.526
320.373
300.154
297.034
296.202
295.975
295.976
296.21
297.064
300.257
321.599
322.797
322.232
321.703
321.398
321.247
321.156
321.1
321.072
321.067
321.078
321.117
321.168
321.217
320.551
320.99
321.485
320.479
299.664
296.416
295.69
295.516
295.515
295.685
296.405
299.684
321.401
322.676
322.165
321.665
321.351
321.193
321.102
321.045
321.017
321.014
321.032
321.076
321.12
321.163
320.251
320.8
321.425
320.562
299.562
296.28
295.568
295.404
295.402
295.558
296.257
299.556
321.345
322.627
322.162
321.7
321.429
321.287
321.198
321.139
321.11
321.108
321.131
321.172
321.208
321.252
320.006
320.542
321.168
320.395
299.511
296.246
295.541
295.381
295.378
295.53
296.226
299.534
321.364
322.674
322.277
321.906
321.69
321.566
321.48
321.417
321.381
321.372
321.396
321.43
321.466
321.529
319.924
320.307
320.778
319.996
299.457
296.252
295.56
295.401
295.395
295.544
296.237
299.548
321.434
322.826
322.547
322.291
322.097
321.963
321.871
321.802
321.754
321.744
321.765
321.808
321.88
321.991
320.25
320.293
320.397
319.477
299.484
296.393
295.722
295.557
295.54
295.677
296.353
299.631
321.506
323.096
323.005
322.719
322.449
322.266
322.163
322.098
322.056
322.049
322.088
322.189
322.348
322.538
320.872
320.615
320.229
318.989
300.151
297.34
296.705
296.507
296.44
296.523
297.117
300.181
321.479
323.061
322.863
322.605
322.401
322.279
322.212
322.175
322.161
322.185
322.282
322.483
322.767
323.044
321.489
321.166
320.543
319.07
306.493
304.808
304.206
303.808
303.488
303.286
303.449
305.246
320.191
321.734
321.926
321.937
321.95
321.989
322.041
322.091
322.14
322.221
322.398
322.713
323.129
323.473
321.875
321.633
321.072
319.528
307.198
305.735
305.282
305.037
304.88
304.829
305.057
306.477
319.499
320.986
321.35
321.529
321.679
321.826
321.959
322.069
322.162
322.281
322.515
322.915
323.428
323.81
322.084
321.936
321.504
319.986
307.235
305.829
305.457
305.274
305.17
305.155
305.367
306.685
319.644
321.092
321.453
321.634
321.782
321.924
322.055
322.165
322.258
322.379
322.62
323.041
323.589
323.953
322.217
322.122
321.8
320.379
307.322
305.933
305.602
305.452
305.376
305.383
305.59
306.87
319.865
321.262
321.591
321.758
321.897
322.03
322.154
322.261
322.354
322.467
322.682
323.066
323.593
323.959
322.333
322.256
322.005
320.757
308.622
307.34
307.051
306.927
306.869
306.883
307.07
308.24
320.277
321.546
321.836
321.983
322.106
322.221
322.328
322.424
322.51
322.604
322.766
323.06
323.484
323.594
322.438
322.374
322.19
321.239
311.877
310.876
310.656
310.567
310.528
310.539
310.684
311.596
320.904
321.896
322.123
322.241
322.34
322.434
322.522
322.605
322.683
322.761
322.866
323.043
323.291
322.955
322.522
322.476
322.364
321.792
316.356
315.75
315.619
315.573
315.555
315.564
315.657
316.217
321.645
322.263
322.416
322.5
322.574
322.645
322.713
322.78
322.849
322.916
322.983
323.055
323.085
322.241
322.582
322.557
322.509
322.28
320.382
320.138
320.09
320.081
320.081
320.091
320.14
320.379
322.298
322.571
322.657
322.712
322.763
322.814
322.865
322.919
322.975
323.035
323.087
323.103
322.96
321.709
322.63
322.619
322.614
322.6
322.763
322.746
322.751
322.765
322.779
322.791
322.811
322.849
322.719
322.778
322.821
322.857
322.895
322.934
322.976
323.019
323.065
323.114
323.159
323.161
322.957
321.561
322.678
322.675
322.69
322.754
323.495
323.56
323.589
323.615
323.635
323.648
323.656
323.621
322.917
322.9
322.923
322.951
322.983
323.018
323.055
323.093
323.132
323.172
323.205
323.2
323.002
321.635
322.737
322.738
322.758
322.819
323.334
323.396
323.43
323.458
323.48
323.494
323.5
323.469
322.992
322.98
323
323.025
323.055
323.088
323.123
323.16
323.196
323.231
323.258
323.244
323.037
321.678
322.811
322.813
322.832
322.869
323.029
323.065
323.095
323.122
323.144
323.16
323.169
323.164
323.045
323.059
323.08
323.105
323.134
323.166
323.201
323.236
323.27
323.303
323.326
323.313
323.126
321.874
322.9
322.904
322.923
322.946
322.918
322.936
322.963
322.987
323.009
323.027
323.042
323.055
323.125
323.156
323.178
323.203
323.23
323.261
323.293
323.328
323.361
323.392
323.415
323.408
323.259
322.252
323.004
323.01
323.031
323.052
322.998
323.011
323.035
323.058
323.079
323.1
323.119
323.139
323.239
323.274
323.295
323.318
323.344
323.372
323.403
323.436
323.468
323.499
323.523
323.527
323.435
322.781
323.122
323.13
323.154
323.18
323.157
323.172
323.194
323.216
323.237
323.26
323.282
323.304
323.374
323.408
323.427
323.448
323.472
323.499
323.528
323.558
323.589
323.62
323.646
323.661
323.627
323.326
323.254
323.264
323.291
323.321
323.325
323.34
323.362
323.383
323.405
323.429
323.453
323.476
323.523
323.555
323.573
323.591
323.613
323.638
323.665
323.694
323.724
323.754
323.782
323.806
323.815
323.766
323.398
323.411
323.441
323.474
323.485
323.501
323.522
323.543
323.565
323.59
323.615
323.639
323.681
323.713
323.731
323.748
323.767
323.79
323.816
323.843
323.872
323.901
323.93
323.959
323.991
324.061
323.557
323.572
323.604
323.637
323.648
323.662
323.684
323.706
323.729
323.753
323.779
323.804
323.849
323.883
323.902
323.917
323.935
323.957
323.98
324.006
324.033
324.061
324.091
324.122
324.161
324.254
323.729
323.746
323.779
323.812
323.821
323.836
323.858
323.881
323.904
323.929
323.955
323.981
324.029
324.065
324.085
324.101
324.117
324.137
324.159
324.183
324.209
324.237
324.265
324.297
324.336
324.412
323.914
323.933
323.966
323.998
324.008
324.023
324.046
324.07
324.095
324.12
324.146
324.172
324.22
324.257
324.279
324.296
324.312
324.331
324.351
324.374
324.399
324.425
324.454
324.485
324.521
324.579
324.109
324.128
324.16
324.192
324.204
324.221
324.246
324.271
324.296
324.322
324.348
324.375
324.42
324.456
324.481
324.5
324.517
324.535
324.554
324.576
324.6
324.626
324.653
324.683
324.717
324.767
324.309
324.328
324.36
324.391
324.406
324.426
324.451
324.478
324.504
324.53
324.556
324.583
324.625
324.661
324.686
324.708
324.727
324.745
324.764
324.785
324.808
324.833
324.86
324.889
324.922
324.97
324.51
324.528
324.559
324.589
324.609
324.631
324.658
324.685
324.713
324.739
324.766
324.793
324.831
324.865
324.892
324.915
324.936
324.956
324.975
324.996
325.019
325.044
325.07
325.098
325.13
325.179
324.707
324.725
324.755
324.786
324.809
324.834
324.862
324.89
324.918
324.946
324.973
325
325.035
325.067
325.095
325.12
325.143
325.164
325.185
325.206
325.229
325.253
325.279
325.306
325.337
325.385
324.907
324.927
324.958
324.989
325.015
325.043
325.072
325.101
325.129
325.158
325.185
325.213
325.245
325.276
325.304
325.33
325.355
325.378
325.4
325.423
325.446
325.47
325.496
325.522
325.552
325.596
324.597
324.981
325.445
325.679
326.098
325.647
311.146
310.304
310.197
310.72
323.702
323.873
323.311
322.966
322.506
322.256
322.197
322.234
322.299
322.378
322.469
322.565
322.653
322.723
322.77
322.794
324.641
324.98
325.397
325.543
326.129
325.819
311.728
310.903
310.841
311.51
325.453
325.748
324.993
324.542
323.899
323.497
323.327
323.265
323.226
323.193
323.173
323.165
323.161
323.157
323.151
323.146
324.542
324.698
324.93
325.043
326.073
325.814
311.338
310.396
310.368
311.245
326.009
326.417
325.226
324.717
324.04
323.595
323.376
323.276
323.216
323.183
323.176
323.187
323.206
323.23
323.253
323.277
324.172
324.112
324.12
324.269
325.552
325.186
312.652
311.743
311.728
312.691
326.644
327.676
326.237
325.56
324.622
323.708
322.972
322.79
322.693
322.702
322.787
322.883
322.946
322.995
323.037
323.077
323.446
323.345
323.281
322.651
301.594
299.216
297.707
297.322
297.327
297.744
299.39
301.904
324.602
324.807
323.99
323.388
323.071
322.935
322.855
322.807
322.791
322.804
322.838
322.885
322.949
323.001
322.631
322.805
323.139
322.61
299.191
296.432
295.72
295.527
295.529
295.727
296.458
299.287
324.223
324.791
324.049
323.463
323.139
322.977
322.869
322.796
322.753
322.737
322.74
322.777
322.833
322.88
322.008
322.485
323.123
322.806
298.773
295.904
295.284
295.136
295.135
295.279
295.894
298.796
324.08
324.688
323.989
323.429
323.086
322.912
322.805
322.733
322.692
322.679
322.688
322.73
322.774
322.811
321.708
322.295
323.072
322.93
298.687
295.788
295.179
295.041
295.039
295.171
295.768
298.688
324.041
324.641
323.985
323.459
323.164
323.008
322.905
322.833
322.793
322.781
322.798
322.837
322.869
322.905
321.458
322.022
322.797
322.754
298.643
295.759
295.157
295.021
295.018
295.148
295.742
298.669
324.065
324.687
324.096
323.666
323.432
323.298
323.202
323.13
323.085
323.07
323.091
323.123
323.156
323.211
321.381
321.779
322.38
322.311
298.595
295.764
295.173
295.038
295.033
295.16
295.752
298.681
324.139
324.837
324.361
324.063
323.85
323.705
323.607
323.531
323.477
323.467
323.489
323.533
323.607
323.716
321.759
321.788
321.985
321.732
298.617
295.885
295.312
295.172
295.157
295.273
295.851
298.753
324.213
325.139
324.886
324.536
324.216
324.005
323.895
323.823
323.776
323.769
323.813
323.924
324.098
324.295
322.462
322.174
321.826
321.148
299.216
296.731
296.188
296.018
295.96
296.029
296.535
299.249
324.183
325.109
324.712
324.388
324.146
324.002
323.923
323.879
323.861
323.885
323.99
324.208
324.519
324.807
323.149
322.799
322.193
321.085
306.862
305.559
305.021
304.618
304.269
304.023
304.062
305.421
322.413
323.514
323.612
323.601
323.61
323.651
323.707
323.762
323.815
323.901
324.088
324.426
324.875
325.225
323.566
323.313
322.782
321.564
307.452
306.347
305.966
305.736
305.58
305.513
305.66
306.689
321.556
322.671
322.968
323.143
323.303
323.463
323.61
323.731
323.83
323.956
324.2
324.618
325.156
325.525
323.783
323.639
323.261
322.079
307.426
306.384
306.084
305.914
305.808
305.776
305.911
306.848
321.729
322.814
323.107
323.279
323.432
323.583
323.723
323.84
323.939
324.064
324.307
324.73
325.284
325.614
323.916
323.833
323.579
322.511
307.448
306.42
306.16
306.02
305.943
305.935
306.067
306.976
321.956
322.994
323.254
323.412
323.555
323.696
323.828
323.943
324.043
324.16
324.373
324.744
325.262
325.578
324.032
323.971
323.786
322.87
308.837
307.883
307.657
307.542
307.482
307.482
307.602
308.435
322.35
323.292
323.519
323.658
323.785
323.906
324.02
324.123
324.215
324.315
324.471
324.746
325.166
325.284
324.14
324.092
323.962
323.271
312.459
311.712
311.541
311.461
311.42
311.42
311.511
312.162
322.911
323.649
323.826
323.937
324.04
324.138
324.232
324.32
324.405
324.489
324.592
324.754
325.012
324.807
324.227
324.196
324.12
323.709
317.48
317.03
316.933
316.894
316.875
316.876
316.935
317.334
323.554
324.017
324.138
324.218
324.294
324.369
324.441
324.513
324.587
324.661
324.73
324.801
324.864
324.259
324.292
324.278
324.249
324.09
321.978
321.802
321.77
321.766
321.768
321.774
321.808
321.979
324.113
324.322
324.394
324.447
324.5
324.554
324.608
324.664
324.725
324.79
324.85
324.883
324.802
323.864
324.345
324.344
324.346
324.342
324.603
324.596
324.607
324.625
324.64
324.651
324.669
324.699
324.474
324.528
324.567
324.604
324.644
324.686
324.729
324.775
324.825
324.879
324.932
324.958
324.837
323.822
324.401
324.407
324.423
324.476
325.368
325.423
325.453
325.481
325.503
325.517
325.527
325.506
324.654
324.652
324.678
324.708
324.741
324.778
324.818
324.858
324.901
324.945
324.986
325.002
324.889
323.916
324.469
324.478
324.498
324.549
325.15
325.202
325.236
325.266
325.289
325.305
325.314
325.296
324.736
324.739
324.762
324.79
324.822
324.858
324.896
324.935
324.974
325.013
325.047
325.054
324.929
323.957
324.554
324.564
324.585
324.619
324.795
324.828
324.859
324.888
324.911
324.929
324.94
324.941
324.808
324.83
324.854
324.881
324.912
324.946
324.983
325.022
325.059
325.095
325.125
325.131
325.019
324.125
324.655
324.667
324.689
324.714
324.674
324.693
324.722
324.748
324.771
324.791
324.807
324.821
324.907
324.941
324.964
324.99
325.02
325.053
325.088
325.125
325.162
325.196
325.225
325.234
325.147
324.429
324.771
324.785
324.81
324.836
324.769
324.785
324.811
324.835
324.858
324.881
324.901
324.921
325.036
325.072
325.095
325.119
325.147
325.178
325.211
325.246
325.282
325.315
325.345
325.36
325.311
324.85
324.901
324.918
324.946
324.976
324.949
324.966
324.991
325.014
325.037
325.061
325.085
325.107
325.186
325.22
325.241
325.262
325.288
325.317
325.348
325.382
325.415
325.449
325.479
325.502
325.492
325.288
325.045
325.064
325.095
325.129
325.133
325.15
325.174
325.197
325.22
325.246
325.272
325.295
325.346
325.38
325.399
325.419
325.442
325.469
325.498
325.53
325.562
325.594
325.626
325.655
325.674
325.651
325.2
325.222
325.256
325.293
325.305
325.322
325.346
325.369
325.392
325.419
325.446
325.47
325.516
325.551
325.569
325.587
325.608
325.633
325.661
325.69
325.721
325.752
325.785
325.817
325.852
325.914
325.369
325.394
325.43
325.467
325.477
325.493
325.517
325.541
325.565
325.592
325.619
325.645
325.695
325.732
325.751
325.768
325.787
325.81
325.836
325.863
325.893
325.923
325.955
325.989
326.029
326.107
325.55
325.577
325.614
325.651
325.66
325.676
325.7
325.725
325.75
325.777
325.804
325.831
325.884
325.923
325.944
325.961
325.979
326
326.024
326.05
326.078
326.108
326.139
326.173
326.212
326.278
325.743
325.771
325.809
325.845
325.854
325.871
325.896
325.923
325.949
325.976
326.003
326.031
326.084
326.123
326.146
326.164
326.182
326.202
326.224
326.249
326.276
326.305
326.336
326.369
326.407
326.459
325.944
325.973
326.01
326.045
326.058
326.076
326.103
326.13
326.158
326.185
326.213
326.241
326.29
326.33
326.355
326.375
326.394
326.413
326.434
326.458
326.484
326.512
326.542
326.575
326.611
326.656
326.148
326.177
326.213
326.247
326.264
326.285
326.313
326.342
326.37
326.398
326.426
326.454
326.499
326.538
326.565
326.588
326.608
326.628
326.648
326.671
326.696
326.724
326.754
326.785
326.82
326.865
326.348
326.377
326.412
326.445
326.466
326.49
326.519
326.549
326.578
326.607
326.636
326.664
326.705
326.742
326.771
326.796
326.818
326.839
326.86
326.882
326.907
326.935
326.964
326.994
327.028
327.073
326.538
326.567
326.601
326.634
326.659
326.686
326.716
326.747
326.777
326.806
326.836
326.864
326.902
326.936
326.966
326.993
327.018
327.041
327.063
327.086
327.111
327.138
327.166
327.196
327.228
327.273
326.718
326.747
326.781
326.815
326.844
326.873
326.905
326.936
326.967
326.997
327.027
327.056
327.09
327.123
327.153
327.181
327.208
327.233
327.257
327.281
327.307
327.333
327.361
327.39
327.421
327.463
)
;

boundaryField
{
    concrete_to_air
    {
        type            compressible::turbulentTemperatureRadCoupledMixed;
        refValue        nonuniform List<scalar> 
898
(
312.74
312.782
312.812
312.828
312.861
312.895
312.688
312.429
312.15
311.909
311.894
311.886
311.886
311.894
311.902
311.911
311.922
311.934
311.946
311.955
311.962
311.966
311.966
311.962
311.952
311.932
312.725
312.728
312.704
312.661
312.677
312.718
312.575
312.446
312.321
312.208
312.298
312.377
312.433
312.474
312.499
312.514
312.52
312.515
312.498
312.473
312.442
312.408
312.373
312.338
312.303
312.265
312.631
312.573
312.483
312.404
312.442
312.508
312.348
312.202
312.079
311.979
312.127
312.266
312.383
312.48
312.556
312.613
312.646
312.665
312.679
312.68
312.667
312.647
312.623
312.596
312.569
312.539
312.419
312.314
312.202
312.164
312.286
312.442
312.247
312.07
311.934
311.855
312.266
312.648
312.831
312.936
313.013
312.699
312.255
312.122
312.081
312.094
312.114
312.122
312.118
312.103
312.086
312.07
312.11
312.026
311.973
312.043
312.503
312.205
311.989
311.841
311.739
311.675
311.636
311.613
311.6
311.591
311.583
311.578
311.584
311.593
311.8
311.794
311.845
312.043
312.273
311.962
311.759
311.63
311.538
311.47
311.418
311.385
311.362
311.347
311.335
311.333
311.344
311.356
311.542
311.612
311.752
312.077
312.184
311.871
311.677
311.547
311.441
311.371
311.322
311.288
311.265
311.25
311.239
311.24
311.25
311.259
311.314
311.427
311.625
312.044
312.155
311.854
311.672
311.538
311.445
311.381
311.335
311.303
311.279
311.262
311.252
311.254
311.261
311.268
311.079
311.21
311.426
311.884
312.196
311.915
311.746
311.627
311.543
311.482
311.439
311.409
311.385
311.367
311.362
311.366
311.37
311.377
311.022
311.145
311.336
311.732
312.291
312.043
311.885
311.79
311.695
311.627
311.587
311.564
311.545
311.54
311.546
311.555
311.566
311.58
311.155
311.21
311.317
311.599
312.461
312.279
312.138
311.948
311.802
311.716
311.685
311.68
311.686
311.701
311.723
311.75
311.783
311.818
311.389
311.377
311.386
311.541
312.664
312.355
312.008
311.816
311.715
311.677
311.679
311.703
311.739
311.781
311.83
311.885
311.947
312.011
311.623
311.588
311.539
311.567
311.353
311.093
310.821
310.547
310.283
310.04
309.839
309.772
310.552
310.871
311.08
311.236
311.363
311.472
311.571
311.662
311.747
311.829
311.911
311.997
312.087
312.176
311.818
311.804
311.755
311.715
311.509
311.316
311.138
310.975
310.828
310.697
310.583
310.496
310.705
310.897
311.069
311.224
311.366
311.498
311.621
311.736
311.846
311.95
312.054
312.16
312.269
312.369
311.991
312.002
311.981
311.937
311.728
311.542
311.375
311.226
311.091
310.97
310.863
310.779
310.94
311.098
311.248
311.391
311.527
311.658
311.784
311.905
312.022
312.136
312.248
312.362
312.477
312.559
312.18
312.202
312.204
312.183
311.977
311.789
311.622
311.472
311.338
311.217
311.11
311.024
311.163
311.306
311.446
311.584
311.719
311.851
311.98
312.106
312.228
312.346
312.463
312.578
312.68
312.697
312.385
312.407
312.421
312.42
312.237
312.066
311.912
311.773
311.649
311.538
311.44
311.362
311.487
311.619
311.752
311.883
312.014
312.142
312.267
312.388
312.505
312.618
312.726
312.826
312.882
312.766
312.561
312.587
312.609
312.623
312.492
312.365
312.249
312.146
312.054
311.975
311.907
311.858
311.964
312.078
312.192
312.307
312.42
312.532
312.64
312.744
312.844
312.939
313.029
313.104
313.124
312.947
312.669
312.703
312.735
312.763
312.703
312.642
312.587
312.539
312.499
312.468
312.447
312.439
312.521
312.608
312.695
312.782
312.869
312.953
313.035
313.113
313.188
313.259
313.325
313.376
313.369
313.15
312.709
312.751
312.792
312.831
312.837
312.84
312.843
312.85
312.86
312.876
312.897
312.925
312.984
313.045
313.106
313.166
313.226
313.284
313.341
313.395
313.448
313.498
313.545
313.582
313.562
313.334
312.712
312.759
312.804
312.849
312.894
312.937
312.978
313.02
313.062
313.106
313.151
313.199
313.243
313.287
313.331
313.375
313.417
313.459
313.5
313.54
313.579
313.617
313.654
313.69
313.712
313.658
312.707
312.755
312.802
312.848
312.906
312.961
313.016
313.069
313.122
313.175
313.227
313.278
313.317
313.355
313.392
313.429
313.465
313.501
313.536
313.571
313.606
313.64
313.673
313.706
313.737
313.742
312.709
312.756
312.803
312.849
312.903
312.956
313.009
313.06
313.111
313.161
313.21
313.258
313.297
313.335
313.372
313.409
313.445
313.481
313.516
313.551
313.585
313.619
313.653
313.686
313.717
313.737
312.718
312.765
312.811
312.857
312.904
312.952
312.998
313.045
313.091
313.136
313.18
313.223
313.264
313.303
313.342
313.381
313.418
313.456
313.492
313.528
313.564
313.599
313.634
313.668
313.7
313.723
312.732
312.779
312.825
312.87
312.914
312.958
313.001
313.045
313.087
313.13
313.171
313.212
313.253
313.294
313.334
313.373
313.412
313.45
313.488
313.525
313.562
313.598
313.633
313.668
313.701
313.726
312.75
312.796
312.842
312.887
312.931
312.974
313.017
313.059
313.101
313.143
313.184
313.224
313.265
313.306
313.347
313.386
313.425
313.463
313.501
313.539
313.576
313.612
313.648
313.683
313.717
313.746
312.769
312.816
312.862
312.908
312.952
312.995
313.039
313.081
313.123
313.165
313.207
313.248
313.289
313.329
313.37
313.409
313.448
313.486
313.524
313.562
313.599
313.636
313.672
313.707
313.742
313.774
312.792
312.839
312.885
312.931
312.976
313.02
313.064
313.107
313.149
313.192
313.233
313.275
313.316
313.356
313.397
313.436
313.475
313.514
313.552
313.589
313.626
313.663
313.7
313.735
313.771
313.805
312.817
312.865
312.911
312.957
313.003
313.047
313.091
313.135
313.178
313.22
313.262
313.304
313.345
313.386
313.426
313.466
313.505
313.544
313.582
313.62
313.657
313.694
313.731
313.767
313.803
313.839
312.845
312.893
312.94
312.987
313.033
313.078
313.122
313.166
313.209
313.251
313.294
313.335
313.377
313.418
313.459
313.499
313.538
313.577
313.616
313.654
313.692
313.729
313.766
313.803
313.839
313.875
312.876
312.924
312.972
313.019
313.065
313.111
313.156
313.2
313.243
313.286
313.329
313.371
313.413
313.454
313.495
313.536
313.576
313.615
313.654
313.692
313.731
313.768
313.806
313.843
313.879
313.916
312.909
312.958
313.007
313.054
313.101
313.147
313.192
313.237
313.281
313.324
313.367
313.41
313.452
313.494
313.536
313.577
313.617
313.657
313.696
313.735
313.774
313.812
313.849
313.887
313.924
313.961
312.944
312.994
313.043
313.091
313.139
313.185
313.231
313.276
313.321
313.365
313.409
313.452
313.495
313.537
313.579
313.621
313.661
313.702
313.742
313.781
313.82
313.859
313.897
313.935
313.972
314.01
312.98
313.031
313.081
313.13
313.178
313.225
313.272
313.318
313.363
313.408
313.452
313.495
313.539
313.582
313.624
313.666
313.708
313.749
313.789
313.829
313.869
313.908
313.947
313.985
314.023
314.061
313.016
313.068
313.118
313.168
313.217
313.265
313.313
313.359
313.405
313.451
313.496
313.54
313.584
313.627
313.671
313.713
313.755
313.797
313.838
313.878
313.919
313.958
313.998
314.037
314.076
314.114
313.052
313.104
313.156
313.206
313.256
313.305
313.353
313.401
313.447
313.494
313.539
313.584
313.629
313.673
313.717
313.76
313.803
313.845
313.887
313.928
313.969
314.009
314.05
314.089
314.129
314.168
313.086
313.139
313.192
313.243
313.294
313.343
313.393
313.441
313.489
313.536
313.582
313.628
313.673
313.718
313.763
313.806
313.85
313.893
313.935
313.978
314.019
314.06
314.101
314.142
314.182
314.222
)
;
        refGradient     nonuniform List<scalar> 
898
(
53.4701
54.8936
56.8732
58.3091
61.3409
66.2134
-2.74877
0.48052
0.594714
-2.21249
73.8457
70.5469
67.843
66.5858
64.0904
62.5621
61.8767
61.5358
61.2545
60.9912
60.753
60.5137
60.263
60.0416
59.9188
59.9032
53.7463
55.3854
57.9712
60.1666
64.5556
69.951
-0.000765854
3.08808
3.33258
0.643098
71.2454
66.2995
62.2005
60.6666
58.109
56.7476
56.4365
56.667
57.0365
57.4172
57.7601
58.0066
58.1306
58.1646
58.1707
58.1887
54.3766
56.1072
59.3201
62.4633
69.8092
74.8876
-2.28297
-0.0099034
0.367239
-1.36153
74.9929
69.813
62.3367
60.0963
57.3579
56.1473
56.1585
56.7178
57.2478
57.6349
57.8646
57.9288
57.8484
57.6898
57.5322
57.414
56.0846
58.0036
61.5072
65.0917
82.575
85.9198
13.9573
15.0457
15.2737
14.2464
80.6691
75.1333
57.0282
55.0018
53.9906
56.127
58.0024
59.1183
59.8916
59.8896
59.5315
59.2779
59.0049
58.7105
58.4556
58.2479
58.714
60.2483
62.6669
66.9869
58.4907
55.4594
55.5845
56.0146
57.0747
58.2883
59.2728
59.8267
60.0221
59.9726
59.8133
59.5073
59.147
58.8581
62.1807
62.6603
63.3618
66.6479
59.9003
55.6507
55.4221
55.8406
56.933
58.2254
59.2897
59.9587
60.312
60.4343
60.3807
60.1098
59.7327
59.3991
64.0401
63.3549
62.7705
65.2208
60.167
55.5307
55.2119
55.7621
57.0755
58.3944
59.3978
60.0294
60.3812
60.5253
60.4905
60.2204
59.8857
59.587
64.2055
63.1653
62.1089
64.1254
59.955
54.9823
54.5551
55.3044
56.623
57.8784
58.7781
59.3237
59.6352
59.7856
59.7667
59.5734
59.3608
59.1923
64.3528
63.1068
62.0236
64.2536
59.2711
53.5688
53.0652
53.9215
55.2825
56.4909
57.2944
57.7523
58.0234
58.1793
58.1863
58.1622
58.1771
58.2492
64.2848
62.9646
62.1652
65.2668
57.9846
51.2121
50.7553
51.7723
53.3153
54.5689
55.323
55.7097
55.9577
56.068
56.1583
56.3547
56.6494
57.0031
62.7296
62.2649
62.2585
66.314
55.9959
48.0248
47.7303
49.6822
51.7388
53.2023
53.9948
54.2998
54.4207
54.4725
54.6042
54.933
55.4658
55.9799
59.8785
60.7784
62.2823
66.7532
53.4267
47.0709
48.93
50.9141
52.4531
53.4568
53.9567
54.1161
54.0578
53.9463
54.0075
54.4236
55.1611
55.6688
57.2825
58.712
60.9241
63.8737
-14.3407
-11.889
-10.873
-9.86595
-8.89365
-7.84184
-7.33469
-9.89166
56.9421
54.5332
54.7697
55.0656
55.2088
55.195
55.0235
54.7032
54.284
53.9122
53.8667
54.3459
55.2462
55.6304
55.3322
56.2787
58.2452
62.2607
-13.5228
-11.2108
-10.7454
-10.3846
-9.98266
-9.56224
-9.35925
-11.4071
61.6792
58.4852
57.5935
57.0101
56.501
56.0149
55.4974
54.91
54.2749
53.7437
53.6143
54.0531
54.9408
55.0584
54.433
54.8881
56.2064
60.2781
-14.074
-11.5555
-11.1234
-10.9001
-10.6128
-10.2748
-10.1882
-12.4527
61.2826
57.9564
57.0106
56.4553
56.002
55.5812
55.1318
54.6085
54.0251
53.5132
53.3191
53.5533
54.2062
54.0745
54.0815
54.2685
55.1079
58.7916
-14.6811
-12.0243
-11.5955
-11.4727
-11.2772
-11.0069
-11.0324
-13.4486
60.8276
57.5763
56.6848
56.2077
55.8182
55.4341
55.0122
54.5278
53.9916
53.4807
53.1321
53.0169
53.3571
53.1515
53.9773
54.052
54.6143
57.7254
-9.40577
-6.85237
-6.39208
-6.26938
-6.10832
-5.90312
-6.0107
-8.34077
59.7185
56.7547
55.9687
55.5805
55.2658
54.9349
54.5611
54.1425
53.6891
53.2168
52.7491
52.3621
52.5778
53.5177
54.0093
54.0367
54.4059
56.7109
5.94069
8.03677
8.4986
8.66606
8.80646
8.91884
8.74509
6.80955
58.1219
55.806
55.1695
54.8475
54.5812
54.2911
53.9608
53.6033
53.2326
52.831
52.34
51.8063
51.909
54.1956
54.1632
54.1596
54.356
55.7062
27.431
28.7596
29.1102
29.2623
29.3481
29.3603
29.1634
27.8747
56.2954
54.8473
54.3812
54.1087
53.8719
53.6163
53.3311
53.031
52.7325
52.4203
52.0249
51.5453
51.5605
54.6421
54.4158
54.3855
54.4356
54.9436
46.229
46.7594
46.9301
47.0038
47.0104
46.9409
46.7566
46.1303
54.7644
54.122
53.8228
53.6036
53.399
53.1807
52.9411
52.6882
52.4351
52.185
51.9231
51.6704
51.7881
55.0942
54.7273
54.6755
54.6278
54.616
56.6228
56.6151
56.6365
56.6318
56.5754
56.4584
56.296
56.1067
53.9293
53.7914
53.6066
53.4289
53.2521
53.0655
52.8633
52.6481
52.4283
52.2155
52.0316
51.9469
52.2713
55.515
55.0662
54.9994
54.904
54.7038
59.1116
58.8999
58.8478
58.7994
58.713
58.5794
58.4306
58.3936
53.7855
53.8273
53.6954
53.5434
53.3879
53.2265
53.0543
52.869
52.6756
52.4849
52.3169
52.2487
52.6496
55.9806
55.4261
55.3506
55.2414
55.0509
57.7078
57.5045
57.4366
57.3745
57.2829
57.1535
57.0117
56.9523
54.083
54.1067
53.9825
53.8396
53.6942
53.5464
53.3927
53.2281
53.0536
52.88
52.7316
52.6829
53.0709
56.3215
55.8132
55.7333
55.625
55.4985
56.025
55.8859
55.8203
55.7517
55.661
55.5421
55.4059
55.2817
54.5336
54.4853
54.3506
54.2084
54.067
53.9257
53.7829
53.6333
53.4747
53.3143
53.1763
53.1334
53.5006
56.5228
56.2311
56.1488
56.0444
55.9622
55.4872
55.3861
55.317
55.2377
55.1442
55.0345
54.9061
54.7444
54.9912
54.8937
54.7471
54.6024
54.4623
54.3235
54.1859
54.0463
53.9012
53.7537
53.6224
53.5676
53.8468
56.2773
56.6747
56.5912
56.49
56.4221
55.8675
55.7673
55.6857
55.5912
55.4905
55.3851
55.2651
55.0989
55.4225
55.3093
55.1537
55.005
54.8649
54.7274
54.592
54.4577
54.3219
54.1849
54.0588
53.9867
54.1441
55.7144
57.1348
57.0513
56.9527
56.8842
56.5369
56.4193
56.322
56.2131
56.104
55.9988
55.8855
55.7304
55.8475
55.7371
55.5754
55.4213
55.2793
55.1419
55.0072
54.8751
54.7446
54.6152
54.493
54.4026
54.4354
55.1409
57.6027
57.5209
57.4248
57.3523
57.1441
57.007
56.8959
56.7766
56.6603
56.5523
56.4423
56.2988
56.2787
56.176
56.0106
55.8498
55.7034
55.5646
55.4297
55.298
55.1697
55.0444
54.9244
54.82
54.7598
54.8511
58.0738
57.9949
57.9005
57.8237
57.6414
57.4889
57.3679
57.2427
57.1211
57.0085
56.8982
56.7617
56.7164
56.6211
56.4552
56.2887
56.1363
55.994
55.8577
55.7254
55.597
55.4728
55.3538
55.2419
55.1332
54.9374
58.5481
58.4724
58.3777
58.2948
58.0917
57.9284
57.8009
57.6727
57.5475
57.4297
57.3163
57.1823
57.156
57.0669
56.904
56.7342
56.5755
56.4279
56.2885
56.1543
56.0244
55.8994
55.7805
55.6666
55.544
55.2967
59.0283
58.9547
58.8567
58.765
58.5441
58.3739
58.2423
58.1128
57.985
57.8622
57.7442
57.6101
57.5965
57.5118
57.3549
57.1856
57.0224
56.8686
56.7242
56.5869
56.4547
56.3283
56.2089
56.0953
55.975
55.7714
59.5145
59.4406
59.3364
59.2334
59.01
58.8366
58.7023
58.5718
58.4419
58.3149
58.192
58.0564
58.0376
57.9541
57.8049
57.6398
57.4748
57.3156
57.1654
57.0237
56.8888
56.7605
56.6398
56.5258
56.4097
56.2507
59.9977
59.9205
59.8075
59.6922
59.4765
59.3031
59.1668
59.0351
58.9033
58.7728
58.6455
58.5081
58.4722
58.3859
58.2443
58.086
57.9226
57.7602
57.6046
57.4582
57.3201
57.1897
57.0668
56.9505
56.8343
56.6921
60.4548
60.3713
60.2482
60.1208
59.9168
59.7462
59.6079
59.4744
59.3406
59.2075
59.0765
58.9375
58.8799
58.7869
58.6512
58.5004
58.3415
58.179
58.0199
57.8692
57.728
57.595
57.4691
57.3487
57.2283
57.0829
60.848
60.7556
60.6222
60.4841
60.2927
60.1263
59.9859
59.85
59.7141
59.5787
59.4449
59.3049
59.2251