/*--------------------------------*- C++ -*----------------------------------*\
| =========                 |                                                 |
| \\      /  F ield         | OpenFOAM: The Open Source CFD Toolbox           |
|  \\    /   O peration     | Version:  v2012                                 |
|   \\  /    A nd           | Website:  www.openfoam.com                      |
|    \\/     M anipulation  |                                                 |
\*---------------------------------------------------------------------------*/
FoamFile
{
    version     2.0;
    format      ascii;
    class       volScalarField;
    location    "50/soil1";
    object      T;
}
// * * * * * * * * * * * * * * * * * * * * * * * * * * * * * * * * * * * * * //

dimensions      [0 0 0 1 0 0 0];


internalField   nonuniform List<scalar> 
57600
(
302.072
302.043
302.011
301.99
301.982
301.981
301.983
301.985
301.985
301.984
301.982
301.978
301.974
301.969
301.964
301.958
301.953
301.947
301.94
301.934
301.928
301.922
301.916
301.911
301.907
301.902
301.898
301.894
301.891
301.887
301.884
301.882
301.879
301.877
301.875
301.874
301.873
301.872
301.871
301.871
301.87
301.869
301.868
301.867
301.866
301.866
301.865
301.865
301.864
301.864
301.864
301.864
301.864
301.864
301.864
301.865
301.866
301.867
301.869
301.87
301.872
301.874
301.877
301.88
301.884
301.888
301.893
301.899
301.905
301.911
301.917
301.924
301.931
301.937
301.944
301.951
301.958
301.965
301.972
301.979
301.985
301.991
301.997
302.004
302.013
302.029
302.059
302.11
302.181
302.251
302.04
302.01
301.975
301.952
301.942
301.94
301.94
301.941
301.94
301.939
301.936
301.932
301.927
301.922
301.917
301.911
301.905
301.899
301.893
301.886
301.88
301.874
301.868
301.863
301.859
301.854
301.85
301.846
301.843
301.839
301.836
301.834
301.831
301.829
301.828
301.826
301.825
301.825
301.825
301.824
301.823
301.822
301.82
301.82
301.819
301.819
301.818
301.818
301.817
301.817
301.817
301.817
301.817
301.817
301.818
301.818
301.819
301.821
301.822
301.824
301.826
301.828
301.831
301.834
301.837
301.842
301.847
301.852
301.858
301.865
301.871
301.877
301.884
301.891
301.897
301.904
301.911
301.919
301.926
301.932
301.939
301.945
301.952
301.959
301.969
301.986
302.017
302.069
302.14
302.211
301.996
301.963
301.926
301.9
301.887
301.882
301.88
301.879
301.877
301.874
301.871
301.866
301.861
301.855
301.85
301.844
301.838
301.832
301.825
301.819
301.812
301.806
301.801
301.796
301.791
301.786
301.782
301.779
301.775
301.772
301.769
301.766
301.763
301.761
301.76
301.759
301.758
301.758
301.759
301.758
301.757
301.755
301.753
301.752
301.752
301.751
301.751
301.75
301.75
301.75
301.75
301.75
301.75
301.75
301.751
301.752
301.753
301.754
301.756
301.757
301.759
301.762
301.764
301.767
301.771
301.776
301.781
301.786
301.792
301.798
301.805
301.811
301.818
301.825
301.832
301.839
301.846
301.853
301.86
301.867
301.874
301.881
301.888
301.896
301.908
301.927
301.959
302.013
302.086
302.157
301.937
301.902
301.862
301.832
301.816
301.808
301.803
301.8
301.796
301.792
301.787
301.781
301.776
301.769
301.763
301.757
301.751
301.744
301.738
301.731
301.725
301.718
301.713
301.707
301.703
301.698
301.694
301.69
301.687
301.683
301.68
301.677
301.675
301.673
301.671
301.67
301.67
301.671
301.672
301.672
301.67
301.668
301.665
301.665
301.664
301.664
301.663
301.663
301.663
301.662
301.662
301.663
301.663
301.663
301.664
301.665
301.666
301.667
301.669
301.671
301.673
301.675
301.678
301.681
301.685
301.689
301.694
301.7
301.706
301.712
301.719
301.725
301.732
301.739
301.746
301.753
301.76
301.768
301.775
301.783
301.791
301.798
301.807
301.817
301.83
301.851
301.885
301.941
302.016
302.088
301.868
301.831
301.787
301.754
301.735
301.724
301.716
301.71
301.704
301.698
301.692
301.685
301.678
301.671
301.664
301.657
301.65
301.644
301.637
301.63
301.623
301.617
301.611
301.606
301.601
301.596
301.592
301.588
301.585
301.582
301.578
301.576
301.573
301.571
301.569
301.568
301.569
301.571
301.572
301.572
301.57
301.567
301.564
301.563
301.563
301.562
301.562
301.562
301.562
301.562
301.562
301.562
301.562
301.563
301.563
301.564
301.566
301.567
301.569
301.57
301.572
301.575
301.578
301.581
301.585
301.589
301.595
301.6
301.607
301.613
301.62
301.626
301.633
301.64
301.647
301.655
301.663
301.671
301.679
301.688
301.696
301.705
301.715
301.727
301.742
301.765
301.801
301.859
301.935
302.009
301.796
301.757
301.711
301.674
301.652
301.638
301.629
301.62
301.612
301.604
301.596
301.587
301.579
301.571
301.564
301.556
301.549
301.541
301.534
301.527
301.52
301.513
301.507
301.501
301.496
301.492
301.488
301.484
301.481
301.478
301.475
301.472
301.469
301.467
301.465
301.464
301.465
301.468
301.47
301.47
301.468
301.464
301.46
301.459
301.459
301.459
301.459
301.459
301.459
301.459
301.459
301.459
301.459
301.46
301.461
301.462
301.463
301.464
301.466
301.468
301.47
301.472
301.475
301.479
301.483
301.487
301.493
301.498
301.505
301.511
301.518
301.525
301.532
301.54
301.547
301.555
301.564
301.573
301.582
301.592
301.602
301.613
301.624
301.637
301.654
301.678
301.716
301.775
301.852
301.928
301.729
301.687
301.638
301.599
301.574
301.558
301.546
301.536
301.526
301.516
301.507
301.497
301.488
301.479
301.471
301.463
301.455
301.447
301.439
301.431
301.424
301.417
301.41
301.404
301.399
301.394
301.39
301.386
301.383
301.381
301.378
301.375
301.372
301.369
301.368
301.367
301.368
301.371
301.375
301.375
301.372
301.368
301.364
301.362
301.362
301.362
301.362
301.362
301.362
301.362
301.362
301.362
301.363
301.363
301.364
301.365
301.367
301.368
301.37
301.372
301.374
301.377
301.379
301.383
301.387
301.392
301.397
301.403
301.41
301.417
301.424
301.431
301.439
301.447
301.455
301.463
301.472
301.482
301.493
301.504
301.515
301.527
301.539
301.554
301.571
301.596
301.636
301.696
301.775
301.851
301.667
301.624
301.573
301.532
301.505
301.486
301.473
301.461
301.45
301.439
301.428
301.417
301.408
301.398
301.39
301.381
301.373
301.364
301.356
301.348
301.34
301.332
301.325
301.319
301.313
301.308
301.303
301.3
301.297
301.295
301.292
301.289
301.286
301.283
301.281
301.28
301.281
301.286
301.289
301.29
301.287
301.282
301.277
301.276
301.276
301.276
301.277
301.277
301.277
301.277
301.277
301.276
301.277
301.277
301.278
301.279
301.281
301.282
301.284
301.286
301.289
301.291
301.294
301.298
301.302
301.307
301.313
301.319
301.326
301.333
301.341
301.349
301.357
301.365
301.373
301.382
301.392
301.403
301.414
301.426
301.438
301.451
301.464
301.479
301.497
301.524
301.564
301.625
301.705
301.782
301.612
301.567
301.514
301.471
301.442
301.422
301.407
301.394
301.381
301.37
301.358
301.347
301.337
301.328
301.319
301.31
301.302
301.293
301.285
301.276
301.268
301.26
301.253
301.246
301.239
301.234
301.229
301.225
301.222
301.22
301.218
301.215
301.212
301.209
301.206
301.204
301.206
301.21
301.214
301.215
301.213
301.207
301.202
301.201
301.201
301.202
301.203
301.204
301.203
301.203
301.202
301.201
301.202
301.202
301.203
301.205
301.206
301.208
301.21
301.212
301.214
301.217
301.22
301.224
301.228
301.234
301.24
301.246
301.253
301.261
301.269
301.277
301.286
301.294
301.303
301.312
301.322
301.333
301.345
301.357
301.37
301.383
301.396
301.412
301.431
301.458
301.499
301.561
301.641
301.719
301.561
301.514
301.46
301.416
301.386
301.364
301.347
301.333
301.319
301.307
301.292
301.281
301.271
301.262
301.253
301.245
301.237
301.229
301.22
301.212
301.204
301.196
301.188
301.181
301.174
301.168
301.162
301.158
301.155
301.153
301.151
301.149
301.145
301.141
301.138
301.136
301.137
301.141
301.145
301.146
301.144
301.139
301.133
301.132
301.133
301.135
301.137
301.137
301.136
301.135
301.134
301.133
301.133
301.134
301.135
301.137
301.138
301.14
301.142
301.144
301.147
301.15
301.153
301.157
301.162
301.167
301.173
301.18
301.188
301.195
301.204
301.212
301.22
301.228
301.237
301.246
301.256
301.267
301.279
301.291
301.305
301.318
301.332
301.349
301.368
301.396
301.437
301.5
301.58
301.659
301.513
301.465
301.41
301.364
301.333
301.31
301.292
301.276
301.262
301.247
301.219
301.203
301.194
301.187
301.18
301.174
301.167
301.16
301.153
301.145
301.137
301.129
301.121
301.113
301.106
301.1
301.094
301.089
301.085
301.083
301.081
301.079
301.076
301.071
301.067
301.064
301.064
301.067
301.071
301.071
301.069
301.065
301.061
301.06
301.062
301.064
301.066
301.066
301.064
301.062
301.06
301.06
301.06
301.061
301.062
301.064
301.065
301.067
301.069
301.072
301.074
301.077
301.081
301.085
301.09
301.095
301.101
301.108
301.115
301.123
301.13
301.138
301.146
301.154
301.162
301.171
301.18
301.19
301.2
301.212
301.232
301.25
301.267
301.285
301.306
301.335
301.377
301.44
301.521
301.6
301.467
301.418
301.361
301.314
301.282
301.258
301.239
301.222
301.207
301.193
301.165
301.151
301.142
301.136
301.129
301.123
301.117
301.11
301.102
301.095
301.087
301.079
301.071
301.063
301.056
301.049
301.043
301.038
301.034
301.031
301.03
301.028
301.025
301.021
301.016
301.013
301.011
301.013
301.016
301.016
301.015
301.011
301.008
301.008
301.01
301.013
301.014
301.013
301.011
301.008
301.006
301.005
301.006
301.007
301.008
301.01
301.012
301.014
301.016
301.019
301.022
301.025
301.029
301.033
301.038
301.044
301.05
301.057
301.064
301.071
301.079
301.087
301.094
301.102
301.11
301.119
301.128
301.137
301.147
301.158
301.177
301.195
301.212
301.23
301.251
301.279
301.321
301.384
301.465
301.544
301.421
301.371
301.313
301.265
301.232
301.207
301.187
301.169
301.154
301.141
301.117
301.104
301.096
301.089
301.082
301.076
301.069
301.061
301.054
301.046
301.038
301.029
301.021
301.014
301.007
301.001
300.995
300.989
300.985
300.982
300.98
300.979
300.977
300.973
300.968
300.964
300.962
300.962
300.964
300.964
300.963
300.96
300.957
300.958
300.96
300.963
300.964
300.962
300.959
300.955
300.953
300.953
300.954
300.955
300.957
300.959
300.961
300.963
300.966
300.969
300.972
300.976
300.98
300.985
300.99
300.995
301.002
301.009
301.016
301.023
301.031
301.039
301.046
301.054
301.062
301.071
301.08
301.089
301.099
301.11
301.128
301.144
301.16
301.177
301.197
301.225
301.267
301.33
301.411
301.49
301.376
301.325
301.265
301.217
301.182
301.157
301.136
301.117
301.102
301.089
301.069
301.058
301.05
301.043
301.035
301.027
301.02
301.012
301.004
300.996
300.987
300.979
300.971
300.963
300.957
300.951
300.946
300.94
300.935
300.931
300.929
300.929
300.928
300.924
300.92
300.915
300.912
300.911
300.912
300.911
300.91
300.908
300.907
300.908
300.911
300.913
300.913
300.91
300.906
300.902
300.901
300.9
300.902
300.903
300.905
300.907
300.909
300.912
300.915
300.918
300.922
300.926
300.93
300.935
300.94
300.946
300.953
300.959
300.967
300.974
300.982
300.99
300.998
301.005
301.013
301.022
301.031
301.041
301.052
301.062
301.079
301.094
301.109
301.125
301.145
301.173
301.214
301.277
301.358
301.436
301.331
301.279
301.218
301.168
301.132
301.106
301.084
301.065
301.049
301.038
301.021
301.013
301.004
300.996
300.987
300.979
300.971
300.962
300.954
300.945
300.936
300.928
300.919
300.912
300.906
300.901
300.896
300.891
300.885
300.881
300.878
300.878
300.877
300.875
300.871
300.867
300.863
300.861
300.86
300.859
300.858
300.857
300.857
300.859
300.861
300.863
300.861
300.858
300.853
300.85
300.849
300.849
300.85
300.852
300.854
300.856
300.859
300.861
300.865
300.868
300.872
300.876
300.88
300.885
300.891
300.897
300.903
300.91
300.917
300.925
300.933
300.941
300.948
300.956
300.965
300.973
300.983
300.993
301.004
301.015
301.031
301.044
301.058
301.074
301.093
301.121
301.162
301.224
301.305
301.384
301.286
301.233
301.171
301.12
301.083
301.056
301.034
301.014
300.998
300.987
300.974
300.967
300.959
300.949
300.94
300.93
300.922
300.913
300.904
300.895
300.886
300.877
300.868
300.86
300.855
300.851
300.847
300.842
300.837
300.831
300.827
300.826
300.826
300.825
300.822
300.819
300.815
300.811
300.809
300.807
300.807
300.807
300.808
300.81
300.811
300.812
300.81
300.806
300.802
300.8
300.799
300.799
300.8
300.802
300.804
300.806
300.809
300.812
300.815
300.818
300.822
300.827
300.831
300.836
300.842
300.848
300.854
300.861
300.869
300.876
300.884
300.892
300.9
300.908
300.916
300.925
300.935
300.946
300.958
300.969
300.983
300.996
301.008
301.023
301.042
301.069
301.11
301.173
301.253
301.332
301.242
301.188
301.125
301.073
301.035
301.007
300.984
300.963
300.947
300.938
300.928
300.923
300.915
300.904
300.893
300.883
300.873
300.864
300.855
300.845
300.836
300.826
300.817
300.809
300.804
300.801
300.799
300.795
300.79
300.784
300.779
300.777
300.776
300.775
300.774
300.772
300.768
300.763
300.76
300.757
300.757
300.758
300.76
300.762
300.763
300.763
300.761
300.757
300.754
300.752
300.751
300.751
300.751
300.752
300.754
300.757
300.76
300.763
300.766
300.77
300.774
300.778
300.782
300.787
300.793
300.799
300.806
300.813
300.82
300.828
300.836
300.844
300.852
300.86
300.869
300.878
300.889
300.9
300.912
300.923
300.936
300.948
300.959
300.974
300.992
301.019
301.06
301.122
301.203
301.281
301.199
301.144
301.079
301.026
300.988
300.959
300.934
300.913
300.897
300.888
300.882
300.879
300.87
300.858
300.846
300.834
300.824
300.815
300.806
300.796
300.786
300.776
300.766
300.758
300.752
300.751
300.75
300.748
300.744
300.738
300.732
300.729
300.728
300.726
300.726
300.725
300.722
300.716
300.711
300.707
300.707
300.71
300.713
300.714
300.714
300.714
300.713
300.711
300.709
300.707
300.705
300.703
300.703
300.703
300.705
300.707
300.71
300.714
300.717
300.72
300.724
300.729
300.733
300.738
300.744
300.75
300.757
300.764
300.771
300.779
300.787
300.795
300.803
300.812
300.821
300.831
300.842
300.854
300.867
300.878
300.89
300.9
300.911
300.925
300.943
300.969
301.01
301.072
301.153
301.231
301.157
301.1
301.035
300.981
300.941
300.911
300.886
300.864
300.847
300.839
300.834
300.83
300.82
300.807
300.794
300.781
300.771
300.761
300.752
300.742
300.732
300.721
300.71
300.701
300.696
300.695
300.696
300.696
300.694
300.689
300.684
300.681
300.678
300.676
300.675
300.674
300.671
300.665
300.659
300.655
300.655
300.658
300.661
300.663
300.662
300.663
300.663
300.663
300.661
300.658
300.655
300.651
300.649
300.649
300.651
300.653
300.656
300.66
300.663
300.666
300.67
300.675
300.679
300.684
300.69
300.696
300.703
300.71
300.718
300.726
300.734
300.742
300.75
300.759
300.769
300.779
300.791
300.804
300.817
300.829
300.841
300.851
300.862
300.876
300.894
300.921
300.962
301.023
301.104
301.182
301.116
301.058
300.991
300.936
300.895
300.865
300.839
300.816
300.797
300.785
300.777
300.77
300.757
300.742
300.728
300.715
300.703
300.693
300.684
300.675
300.664
300.653
300.642
300.632
300.626
300.626
300.629
300.631
300.631
300.629
300.624
300.622
300.62
300.617
300.615
300.614
300.61
300.603
300.596
300.592
300.592
300.596
300.598
300.6
300.6
300.602
300.604
300.604
300.601
300.597
300.591
300.585
300.581
300.581
300.582
300.585
300.588
300.592
300.595
300.599
300.603
300.607
300.612
300.617
300.623
300.629
300.636
300.644
300.652
300.66
300.668
300.677
300.686
300.695
300.706
300.717
300.73
300.745
300.759
300.772
300.786
300.798
300.81
300.826
300.845
300.873
300.914
300.976
301.057
301.136
301.075
301.016
300.948
300.891
300.85
300.818
300.791
300.767
300.745
300.728
300.715
300.7
300.684
300.667
300.65
300.636
300.624
300.614
300.606
300.597
300.586
300.575
300.562
300.551
300.545
300.545
300.55
300.554
300.557
300.557
300.555
300.556
300.555
300.553
300.55
300.547
300.542
300.534
300.527
300.522
300.522
300.526
300.528
300.529
300.53
300.533
300.535
300.535
300.531
300.523
300.513
300.505
300.5
300.499
300.501
300.504
300.508
300.512
300.516
300.52
300.524
300.528
300.533
300.539
300.545
300.552
300.56
300.568
300.576
300.585
300.594
300.604
300.614
300.625
300.637
300.65
300.665
300.681
300.697
300.713
300.728
300.743
300.758
300.776
300.797
300.826
300.868
300.931
301.012
301.091
301.033
300.973
300.904
300.846
300.804
300.771
300.744
300.718
300.694
300.672
300.652
300.633
300.613
300.594
300.577
300.562
300.549
300.539
300.531
300.523
300.513
300.501
300.488
300.475
300.468
300.468
300.472
300.477
300.481
300.483
300.484
300.488
300.49
300.489
300.487
300.483
300.478
300.47
300.464
300.46
300.461
300.464
300.464
300.465
300.465
300.468
300.47
300.468
300.461
300.45
300.438
300.429
300.423
300.422
300.425
300.428
300.432
300.437
300.441
300.445
300.449
300.453
300.458
300.464
300.471
300.478
300.485
300.494
300.502
300.512
300.521
300.532
300.543
300.555
300.568
300.582
300.598
300.615
300.633
300.651
300.669
300.686
300.705
300.725
300.747
300.777
300.82
300.883
300.965
301.044
300.99
300.929
300.859
300.8
300.756
300.723
300.695
300.669
300.644
300.619
300.596
300.574
300.553
300.533
300.515
300.499
300.486
300.475
300.467
300.46
300.451
300.439
300.425
300.412
300.403
300.401
300.405
300.409
300.414
300.417
300.421
300.428
300.434
300.436
300.435
300.432
300.427
300.421
300.419
300.417
300.418
300.419
300.416
300.415
300.413
300.414
300.413
300.408
300.398
300.385
300.372
300.362
300.358
300.357
300.36
300.364
300.368
300.373
300.378
300.382
300.387
300.391
300.395
300.401
300.407
300.414
300.422
300.43
300.439
300.448
300.459
300.469
300.481
300.494
300.507
300.522
300.539
300.556
300.575
300.594
300.613
300.632
300.652
300.673
300.696
300.726
300.77
300.833
300.915
300.993
300.945
300.883
300.812
300.752
300.708
300.674
300.645
300.618
300.593
300.568
300.544
300.521
300.499
300.478
300.459
300.442
300.428
300.417
300.408
300.401
300.393
300.382
300.368
300.354
300.344
300.34
300.343
300.346
300.35
300.354
300.361
300.372
300.382
300.388
300.389
300.389
300.388
300.386
300.39
300.392
300.393
300.39
300.382
300.377
300.37
300.366
300.361
300.353
300.34
300.325
300.312
300.303
300.299
300.299
300.302
300.306
300.311
300.317
300.323
300.327
300.332
300.335
300.339
300.344
300.35
300.357
300.364
300.372
300.38
300.39
300.4
300.411
300.424
300.437
300.451
300.466
300.483
300.501
300.52
300.539
300.559
300.579
300.599
300.62
300.644
300.674
300.717
300.781
300.862
300.941
300.9
300.837
300.764
300.703
300.658
300.623
300.594
300.567
300.541
300.516
300.492
300.469
300.447
300.426
300.407
300.389
300.373
300.361
300.352
300.344
300.336
300.326
300.313
300.299
300.287
300.283
300.284
300.286
300.29
300.295
300.305
300.32
300.334
300.342
300.347
300.351
300.357
300.364
300.38
300.391
300.392
300.383
300.365
300.351
300.337
300.327
300.318
300.306
300.29
300.274
300.26
300.252
300.248
300.249
300.252
300.256
300.261
300.268
300.274
300.279
300.282
300.285
300.287
300.291
300.296
300.301
300.308
300.315
300.323
300.333
300.343
300.355
300.367
300.381
300.396
300.411
300.428
300.446
300.465
300.485
300.504
300.524
300.545
300.566
300.59
300.62
300.664
300.727
300.808
300.886
300.853
300.79
300.716
300.654
300.608
300.573
300.543
300.516
300.49
300.465
300.441
300.418
300.396
300.376
300.357
300.339
300.323
300.309
300.298
300.29
300.282
300.273
300.261
300.247
300.235
300.23
300.23
300.231
300.235
300.243
300.254
300.272
300.288
300.299
300.307
300.319
300.338
300.361
300.402
300.429
300.433
300.412
300.375
300.347
300.322
300.306
300.292
300.277
300.259
300.242
300.228
300.218
300.214
300.213
300.214
300.217
300.222
300.228
300.234
300.237
300.239
300.239
300.24
300.242
300.245
300.249
300.254
300.261
300.269
300.278
300.288
300.3
300.313
300.327
300.341
300.357
300.374
300.392
300.411
300.431
300.451
300.471
300.491
300.512
300.536
300.566
300.61
300.673
300.754
300.832
300.809
300.745
300.67
300.606
300.559
300.523
300.493
300.465
300.439
300.414
300.39
300.367
300.346
300.327
300.309
300.291
300.275
300.261
300.249
300.24
300.232
300.223
300.213
300.2
300.189
300.183
300.182
300.184
300.189
300.198
300.211
300.23
300.247
300.259
300.271
300.294
300.332
300.383
300.466
300.521
300.528
300.489
300.423
300.377
300.339
300.315
300.297
300.278
300.258
300.239
300.222
300.21
300.201
300.196
300.193
300.192
300.194
300.198
300.201
300.202
300.201
300.199
300.196
300.197
300.198
300.201
300.205
300.211
300.219
300.228
300.238
300.249
300.262
300.276
300.29
300.306
300.322
300.34
300.36
300.379
300.399
300.419
300.439
300.46
300.484
300.515
300.558
300.622
300.702
300.779
300.768
300.703
300.627
300.562
300.514
300.477
300.446
300.418
300.391
300.365
300.341
300.318
300.297
300.278
300.261
300.245
300.23
300.216
300.204
300.194
300.185
300.177
300.167
300.156
300.146
300.141
300.141
300.142
300.148
300.158
300.171
300.189
300.207
300.223
300.241
300.276
300.337
300.425
300.569
300.659
300.671
300.611
300.507
300.44
300.387
300.352
300.325
300.3
300.275
300.251
300.231
300.214
300.2
300.188
300.18
300.174
300.171
300.171
300.172
300.17
300.166
300.161
300.156
300.155
300.155
300.158
300.162
300.168
300.175
300.183
300.193
300.204
300.216
300.23
300.244
300.259
300.276
300.294
300.313
300.332
300.352
300.372
300.392
300.413
300.437
300.467
300.511
300.574
300.655
300.73
300.732
300.666
300.589
300.524
300.475
300.437
300.405
300.375
300.348
300.321
300.296
300.272
300.251
300.232
300.215
300.2
300.186
300.174
300.162
300.152
300.142
300.133
300.124
300.114
300.106
300.102
300.102
300.103
300.109
300.119
300.131
300.15
300.171
300.194
300.225
300.277
300.362
300.479
300.644
300.758
300.776
300.706
300.594
300.512
300.443
300.393
300.352
300.317
300.286
300.259
300.235
300.214
300.195
300.178
300.164
300.153
300.146
300.144
300.142
300.138
300.132
300.125
300.119
300.117
300.118
300.12
300.125
300.131
300.138
300.145
300.155
300.165
300.177
300.19
300.204
300.219
300.236
300.254
300.272
300.292
300.312
300.331
300.351
300.372
300.396
300.427
300.47
300.533
300.613
300.688
300.703
300.637
300.559
300.493
300.443
300.404
300.371
300.34
300.312
300.284
300.258
300.233
300.211
300.191
300.174
300.159
300.147
300.136
300.125
300.115
300.105
300.095
300.085
300.076
300.069
300.066
300.067
300.069
300.075
300.085
300.097
300.116
300.141
300.171
300.213
300.279
300.378
300.496
300.622
300.737
300.762
300.702
300.627
300.547
300.469
300.409
300.361
300.321
300.286
300.256
300.23
300.205
300.182
300.161
300.143
300.129
300.12
300.115
300.112
300.107
300.101
300.093
300.087
300.086
300.087
300.091
300.096
300.102
300.108
300.115
300.123
300.133
300.145
300.158
300.172
300.187
300.203
300.221
300.239
300.259
300.278
300.298
300.318
300.339
300.363
300.393
300.437
300.5
300.58
300.654
300.681
300.614
300.536
300.469
300.418
300.379
300.345
300.314
300.285
300.257
300.23
300.204
300.18
300.159
300.141
300.127
300.115
300.105
300.096
300.085
300.075
300.064
300.054
300.045
300.039
300.038
300.042
300.046
300.055
300.067
300.08
300.099
300.126
300.159
300.207
300.277
300.375
300.471
300.534
300.635
300.666
300.628
300.607
300.544
300.467
300.405
300.355
300.315
300.281
300.251
300.222
300.195
300.168
300.143
300.122
300.106
300.096
300.091
300.088
300.083
300.077
300.069
300.064
300.063
300.066
300.071
300.076
300.081
300.086
300.092
300.099
300.109
300.12
300.133
300.147
300.162
300.178
300.196
300.214
300.234
300.253
300.273
300.293
300.314
300.338
300.368
300.411
300.474
300.554
300.628
300.665
300.599
300.52
300.453
300.402
300.363
300.329
300.298
300.268
300.24
300.212
300.186
300.162
300.14
300.121
300.106
300.094
300.084
300.075
300.066
300.055
300.045
300.035
300.026
300.021
300.022
300.032
300.042
300.055
300.069
300.082
300.101
300.128
300.163
300.212
300.278
300.36
300.417
300.403
300.472
300.507
300.502
300.543
300.508
300.444
300.387
300.339
300.302
300.271
300.244
300.216
300.187
300.158
300.131
300.109
300.092
300.081
300.076
300.072
300.067
300.061
300.054
300.049
300.05
300.054
300.059
300.064
300.068
300.071
300.075
300.082
300.091
300.102
300.115
300.129
300.144
300.16
300.178
300.196
300.216
300.235
300.255
300.275
300.296
300.32
300.35
300.393
300.456
300.536
300.609
300.656
300.589
300.51
300.443
300.392
300.353
300.319
300.289
300.26
300.231
300.204
300.178
300.154
300.132
300.112
300.095
300.082
300.073
300.065
300.056
300.047
300.038
300.029
300.022
300.02
300.026
300.043
300.06
300.078
300.093
300.102
300.12
300.149
300.187
300.238
300.3
300.364
300.38
300.282
300.299
300.328
300.357
300.464
300.459
300.408
300.358
300.314
300.281
300.256
300.233
300.209
300.182
300.153
300.127
300.104
300.088
300.077
300.07
300.063
300.057
300.051
300.045
300.041
300.043
300.048
300.053
300.057
300.059
300.061
300.064
300.07
300.079
300.09
300.103
300.117
300.132
300.148
300.166
300.185
300.204
300.224
300.243
300.263
300.284
300.308
300.339
300.382
300.445
300.524
300.597
300.652
300.585
300.506
300.439
300.388
300.349
300.316
300.285
300.256
300.229
300.202
300.177
300.152
300.13
300.109
300.092
300.078
300.068
300.061
300.055
300.049
300.042
300.036
300.033
300.037
300.049
300.074
300.099
300.12
300.133
300.135
300.148
300.179
300.224
300.286
300.354
300.423
300.434
300.311
300.293
300.303
300.336
300.461
300.452
300.389
300.332
300.283
300.249
300.227
300.21
300.191
300.168
300.142
300.117
300.096
300.081
300.071
300.063
300.054
300.048
300.043
300.038
300.036
300.039
300.044
300.049
300.052
300.052
300.053
300.055
300.061
300.07
300.082
300.095
300.109
300.125
300.141
300.159
300.178
300.197
300.217
300.236
300.256
300.278
300.301
300.332
300.375
300.438
300.517
300.59
300.653
300.586
300.507
300.439
300.389
300.35
300.316
300.286
300.257
300.229
300.203
300.177
300.153
300.131
300.11
300.091
300.077
300.067
300.062
300.059
300.056
300.053
300.051
300.055
300.067
300.088
300.124
300.157
300.18
300.185
300.177
300.182
300.212
300.266
300.342
300.425
300.514
300.534
300.409
300.375
300.375
300.408
300.529
300.499
300.399
300.318
300.254
300.213
300.191
300.177
300.162
300.143
300.121
300.101
300.084
300.071
300.061
300.054
300.044
300.038
300.035
300.031
300.031
300.035
300.041
300.046
300.047
300.046
300.046
300.049
300.055
300.065
300.077
300.091
300.105
300.12
300.137
300.155
300.174
300.193
300.213
300.233
300.253
300.274
300.298
300.329
300.372
300.435
300.514
300.587
300.656
300.589
300.51
300.443
300.393
300.353
300.32
300.289
300.26
300.232
300.205
300.179
300.155
300.133
300.111
300.092
300.077
300.067
300.063
300.062
300.063
300.064
300.069
300.082
300.107
300.142
300.198
300.244
300.266
300.259
300.233
300.228
300.253
300.312
300.399
300.493
300.579
300.607
300.513
300.48
300.477
300.505
300.595
300.546
300.42
300.313
300.233
300.183
300.158
300.142
300.128
300.112
300.097
300.083
300.071
300.061
300.052
300.045
300.034
300.029
300.026
300.025
300.026
300.032
300.038
300.042
300.042
300.041
300.041
300.045
300.052
300.062
300.075
300.088
300.103
300.118
300.135
300.153
300.172
300.192
300.212
300.231
300.252
300.273
300.297
300.327
300.371
300.434
300.513
300.586
300.66
300.593
300.515
300.448
300.397
300.358
300.324
300.293
300.263
300.235
300.208
300.182
300.158
300.135
300.114
300.094
300.078
300.068
300.064
300.064
300.067
300.072
300.083
300.108
300.15
300.21
300.304
300.372
300.394
300.37
300.317
300.298
300.315
300.371
300.456
300.524
300.489
300.502
300.489
300.482
300.481
300.484
300.489
300.442
300.403
300.307
300.222
300.168
300.138
300.119
300.102
300.087
300.076
300.067
300.06
300.053
300.046
300.038
300.027
300.022
300.02
300.021
300.023
300.03
300.035
300.038
300.039
300.038
300.039
300.043
300.051
300.061
300.074
300.087
300.101
300.117
300.134
300.152
300.171
300.191
300.211
300.231
300.251
300.273
300.297
300.327
300.371
300.434
300.513
300.586
300.661
300.594
300.516
300.45
300.4
300.361
300.327
300.296
300.266
300.238
300.21
300.185
300.161
300.138
300.117
300.097
300.081
300.069
300.063
300.062
300.066
300.074
300.092
300.129
300.193
300.288
300.441
300.543
300.568
300.521
300.427
300.385
300.385
300.428
300.5
300.552
300.484
300.494
300.502
300.504
300.504
300.499
300.481
300.432
300.409
300.315
300.232
300.177
300.142
300.117
300.096
300.08
300.068
300.06
300.055
300.05
300.043
300.035
300.023
300.018
300.017
300.019
300.022
300.029
300.034
300.037
300.037
300.037
300.039
300.044
300.052
300.062
300.073
300.087
300.101
300.117
300.134
300.152
300.172
300.191
300.211
300.231
300.252
300.273
300.297
300.328
300.372
300.435
300.514
300.586
300.659
300.592
300.514
300.448
300.398
300.359
300.326
300.295
300.266
300.238
300.211
300.185
300.162
300.139
300.119
300.099
300.082
300.068
300.059
300.057
300.062
300.077
300.104
300.155
300.242
300.366
300.547
300.673
300.701
300.638
300.53
300.468
300.447
300.472
300.526
300.565
300.491
300.501
300.512
300.515
300.515
300.509
300.487
300.437
300.417
300.329
300.251
300.196
300.159
300.129
300.105
300.086
300.073
300.064
300.057
300.05
300.043
300.034
300.022
300.016
300.017
300.019
300.023
300.029
300.034
300.037
300.038
300.04
300.042
300.047
300.054
300.063
300.074
300.086
300.101
300.117
300.134
300.153
300.172
300.192
300.212
300.232
300.252
300.274
300.298
300.329
300.372
300.435
300.514
300.587
300.656
300.588
300.51
300.443
300.393
300.355
300.322
300.292
300.263
300.235
300.209
300.183
300.16
300.139
300.118
300.1
300.083
300.068
300.058
300.055
300.061
300.077
300.11
300.169
300.265
300.39
300.533
300.661
300.694
300.636
300.564
300.505
300.475
300.489
300.534
300.567
300.493
300.503
300.515
300.518
300.518
300.512
300.489
300.439
300.42
300.333
300.259
300.208
300.169
300.138
300.113
300.095
300.082
300.072
300.062
300.053
300.045
300.035
300.023
300.017
300.017
300.02
300.023
300.029
300.034
300.038
300.041
300.043
300.046
300.051
300.056
300.064
300.074
300.087
300.101
300.117
300.135
300.153
300.173
300.192
300.212
300.233
300.253
300.274
300.298
300.329
300.373
300.436
300.515
300.588
300.653
300.585
300.505
300.438
300.388
300.349
300.316
300.286
300.257
300.23
300.203
300.178
300.156
300.135
300.117
300.101
300.086
300.074
300.065
300.061
300.065
300.079
300.11
300.165
300.25
300.347
300.42
300.531
300.569
300.535
300.525
300.491
300.469
300.482
300.526
300.563
300.491
300.502
300.514
300.518
300.517
300.511
300.488
300.437
300.413
300.324
300.252
300.204
300.166
300.137
300.115
300.1
300.089
300.08
300.069
300.058
300.048
300.038
300.025
300.02
300.02
300.023
300.025
300.03
300.036
300.04
300.044
300.047
300.05
300.054
300.058
300.065
300.074
300.087
300.102
300.118
300.135
300.154
300.173
300.193
300.213
300.233
300.253
300.275
300.299
300.33
300.374