/*--------------------------------*- C++ -*----------------------------------*\
| =========                 |                                                 |
| \\      /  F ield         | OpenFOAM: The Open Source CFD Toolbox           |
|  \\    /   O peration     | Version:  v2012                                 |
|   \\  /    A nd           | Website:  www.openfoam.com                      |
|    \\/     M anipulation  |                                                 |
\*---------------------------------------------------------------------------*/
FoamFile
{
    version     2.0;
    format      ascii;
    class       volScalarField;
    location    "600/soil2";
    object      T;
}
// * * * * * * * * * * * * * * * * * * * * * * * * * * * * * * * * * * * * * //

dimensions      [0 0 0 1 0 0 0];


internalField   nonuniform List<scalar> 
10496
(
328.374
329.045
329.662
330.194
330.652
331.051
331.4
331.709
331.984
332.231
332.454
332.657
332.842
333.011
333.168
333.312
333.447
333.572
333.69
333.8
333.904
334.002
334.095
334.183
334.267
334.348
334.425
334.498
334.569
334.638
334.703
334.767
334.828
334.888
334.945
335.001
335.056
335.11
335.162
335.213
335.262
335.311
335.359
335.406
335.452
335.497
335.542
335.586
335.629
335.672
335.714
335.755
335.796
335.836
335.876
335.916
335.954
335.993
336.03
336.068
336.104
336.141
336.176
336.212
336.247
336.281
336.315
336.349
336.382
336.415
336.447
336.479
336.511
336.543
336.574
336.606
336.637
336.668
336.699
336.73
336.761
336.793
336.825
336.859
336.895
336.935
336.979
337.041
337.176
337.579
328.118
328.771
329.372
329.889
330.333
330.719
331.056
331.354
331.618
331.855
332.069
332.262
332.438
332.6
332.748
332.885
333.012
333.13
333.24
333.344
333.441
333.532
333.619
333.701
333.779
333.853
333.924
333.992
334.057
334.12
334.18
334.238
334.294
334.348
334.4
334.451
334.5
334.549
334.596
334.642
334.686
334.729
334.772
334.814
334.856
334.896
334.936
334.975
335.014
335.052
335.089
335.126
335.163
335.199
335.234
335.269
335.303
335.337
335.371
335.404
335.437
335.469
335.5
335.532
335.563
335.593
335.623
335.653
335.683
335.712
335.74
335.769
335.797
335.825
335.853
335.881
335.908
335.936
335.963
335.991
336.018
336.046
336.075
336.106
336.139
336.174
336.215
336.276
336.425
336.872
327.85
328.493
329.085
329.594
330.031
330.41
330.742
331.035
331.295
331.527
331.736
331.926
332.099
332.257
332.402
332.535
332.659
332.774
332.882
332.983
333.077
333.166
333.25
333.33
333.406
333.478
333.546
333.612
333.675
333.735
333.793
333.849
333.902
333.954
334.004
334.052
334.099
334.146
334.191
334.235
334.277
334.318
334.358
334.399
334.439
334.477
334.515
334.552
334.588
334.624
334.66
334.694
334.729
334.763
334.796
334.829
334.861
334.893
334.925
334.956
334.987
335.017
335.047
335.076
335.105
335.134
335.162
335.19
335.217
335.245
335.271
335.298
335.324
335.35
335.376
335.402
335.428
335.453
335.479
335.505
335.53
335.557
335.584
335.612
335.644
335.679
335.719
335.781
335.934
336.384
327.583
328.217
328.801
329.303
329.735
330.109
330.436
330.725
330.981
331.211
331.417
331.604
331.774
331.93
332.073
332.205
332.327
332.44
332.546
332.645
332.738
332.826
332.908
332.987
333.061
333.132
333.199
333.264
333.325
333.384
333.441
333.495
333.548
333.599
333.647
333.694
333.74
333.786
333.83
333.872
333.913
333.953
333.992
334.031
334.07
334.107
334.144
334.18
334.215
334.25
334.284
334.318
334.351
334.384
334.417
334.449
334.48
334.511
334.542
334.572
334.602
334.631
334.66
334.688
334.716
334.744
334.771
334.798
334.825
334.851
334.877
334.903
334.929
334.954
334.979
335.004
335.029
335.054
335.079
335.104
335.13
335.156
335.183
335.212
335.243
335.278
335.319
335.382
335.536
335.982
327.318
327.943
328.52
329.016
329.442
329.811
330.134
330.419
330.673
330.899
331.103
331.287
331.455
331.609
331.75
331.88
332
332.112
332.217
332.315
332.406
332.493
332.574
332.651
332.725
332.794
332.861
332.924
332.985
333.043
333.098
333.152
333.204
333.253
333.301
333.347
333.391
333.436
333.479
333.52
333.56
333.599
333.637
333.675
333.713
333.749
333.785
333.819
333.854
333.888
333.921
333.954
333.986
334.017
334.049
334.08
334.11
334.14
334.169
334.198
334.227
334.255
334.283
334.311
334.338
334.364
334.39
334.416
334.442
334.467
334.492
334.516
334.541
334.565
334.589
334.613
334.637
334.66
334.684
334.708
334.733
334.758
334.784
334.812
334.842
334.876
334.915
334.976
335.124
335.558
327.056
327.674
328.243
328.732
329.153
329.518
329.837
330.119
330.369
330.592
330.793
330.975
331.141
331.293
331.432
331.56
331.679
331.79
331.893
331.99
332.08
332.165
332.246
332.322
332.395
332.463
332.529
332.591
332.651
332.708
332.763
332.815
332.866
332.915
332.962
333.006
333.05
333.093
333.135
333.175
333.214
333.251
333.288
333.325
333.361
333.396
333.43
333.463
333.496
333.528
333.56
333.591
333.621
333.651
333.681
333.71
333.738
333.766
333.794
333.821
333.848
333.874
333.899
333.925
333.949
333.974
333.997
334.021
334.044
334.066
334.088
334.11
334.131
334.152
334.173
334.194
334.214
334.234
334.254
334.274
334.294
334.315
334.336
334.359
334.384
334.413
334.446
334.498
334.628
335.028
326.799
327.408
327.97
328.453
328.869
329.229
329.544
329.822
330.069
330.289
330.487
330.666
330.829
330.979
331.116
331.243
331.361
331.471
331.573
331.668
331.758
331.843
331.922
331.998
332.069
332.137
332.202
332.263
332.322
332.378
332.432
332.484
332.533
332.58
332.626
332.67
332.712
332.753
332.792
332.83
332.867
332.903
332.938
332.972
333.005
333.036
333.068
333.098
333.127
333.156
333.184
333.212
333.238
333.265
333.29
333.315
333.34
333.364
333.387
333.41
333.432
333.454
333.475
333.495
333.515
333.534
333.553
333.571
333.588
333.605
333.621
333.637
333.652
333.666
333.68
333.693
333.706
333.718
333.73
333.742
333.754
333.766
333.778
333.793
333.809
333.829
333.854
333.893
333.997
334.334
326.545
327.145
327.7
328.177
328.588
328.944
329.255
329.529
329.772
329.987
330.177
330.35
330.509
330.656
330.793
330.919
331.037
331.146
331.248
331.344
331.434
331.519
331.599
331.674
331.745
331.813
331.877
331.937
331.995
332.05
332.103
332.153
332.2
332.245
332.289
332.331
332.371
332.406
332.44
332.474
332.508
332.541
332.572
332.599
332.626
332.653
332.679
332.704
332.729
332.752
332.774
332.796
332.817
332.837
332.856
332.875
332.892
332.909
332.925
332.94
332.954
332.968
332.981
332.993
333.004
333.014
333.024
333.033
333.041
333.048
333.055
333.061
333.067
333.071
333.075
333.079
333.082
333.085
333.088
333.091
333.095
333.1
333.106
333.113
333.123
333.138
333.159
333.189
333.265
333.517
326.294
326.886
327.434
327.906
328.311
328.663
328.97
329.24
329.477
329.678
329.835
329.985
330.133
330.275
330.412
330.541
330.663
330.778
330.886
330.988
331.084
331.175
331.259
331.339
331.413
331.482
331.546
331.606
331.663
331.716
331.766
331.813
331.857
331.898
331.938
331.977
332.013
332.041
332.068
332.097
332.125
332.155
332.182
332.201
332.221
332.242
332.262
332.281
332.299
332.315
332.331
332.346
332.36
332.374
332.387
332.398
332.409
332.42
332.429
332.437
332.445
332.452
332.459
332.464
332.469
332.474
332.477
332.48
332.483
332.485
332.486
332.487
332.488
332.488
332.488
332.487
332.486
332.486
332.486
332.49
332.502
332.516
332.527
332.538
332.552
332.571
332.597
332.631
332.698
332.896
326.047
326.631
327.172
327.637
328.038
328.385
328.688
328.953
329.176
329.325
329.216
329.223
329.309
329.437
329.587
329.746
329.907
330.064
330.215
330.359
330.493
330.618
330.732
330.838
330.933
331.019
331.096
331.167
331.231
331.291
331.346
331.397
331.444
331.487
331.529
331.571
331.609
331.635
331.659
331.689
331.719
331.752
331.783
331.8
331.817
331.84
331.86
331.879
331.896
331.912
331.926
331.94
331.953
331.965
331.975
331.984
331.992
331.999
332.004
332.008
332.011
332.013
332.014
332.013
332.012
332.01
332.006
332.002
331.996
331.99
331.983
331.976
331.967
331.959
331.949
331.939
331.929
331.92
331.913
331.923
332.008
332.086
332.144
332.186
332.22
332.253
332.291
332.34
332.421
332.623
325.804
326.379
326.913
327.373
327.768
328.111
328.41
328.668
328.866
328.812
326.019
325.464
325.563
325.875
326.251
326.633
326.996
327.33
327.632
327.901
328.136
328.34
328.513
328.658
328.778
328.875
328.953
329.015
329.065
329.107
329.142
329.173
329.2
329.225
329.251
329.281
329.307
329.32
329.333
329.355
329.38
329.412
329.443
329.457
329.473
329.498
329.522
329.544
329.565
329.584
329.602
329.618
329.633
329.645
329.655
329.662
329.666
329.668
329.666
329.662
329.656
329.646
329.633
329.617
329.598
329.576
329.551
329.523
329.492
329.459
329.423
329.385
329.344
329.302
329.258
329.212
329.164
329.115
329.07
329.085
330.061
330.806
331.322
331.671
331.907
332.072
332.198
332.316
332.465
332.747
325.564
326.131
326.658
327.112
327.502
327.841
328.136
328.388
328.574
328.477
325.539
324.931
325.021
325.343
325.736
326.136
326.518
326.871
327.19
327.473
327.722
327.937
328.119
328.27
328.394
328.493
328.571
328.63
328.676
328.711
328.74
328.764
328.786
328.807
328.833
328.869
328.903
328.92
328.939
328.973
329.014
329.067
329.122
329.154
329.19
329.241
329.291
329.342
329.395
329.448
329.502
329.557
329.612
329.666
329.72
329.773
329.825
329.876
329.925
329.973
330.018
330.061
330.1
330.137
330.169
330.196
330.219
330.236
330.247
330.252
330.251
330.244
330.229
330.209
330.182
330.148
330.109
330.065
330.023
330.046
330.838
331.445
331.867
332.154
332.348
332.484
332.594
332.716
332.91
333.289
325.327
325.886
326.406
326.854
327.24
327.574
327.865
328.114
328.295
328.19
325.272
324.661
324.746
325.063
325.453
325.85
326.231
326.582
326.9
327.183
327.431
327.644
327.824
327.973
328.093
328.188
328.261
328.315
328.354
328.381
328.4
328.415
328.428
328.441
328.46
328.491
328.52
328.527
328.533
328.559
328.592
328.64
328.691
328.711
328.735
328.777
328.819
328.862
328.906
328.951
328.998
329.044
329.09
329.136
329.181
329.226
329.271
329.316
329.361
329.406
329.452
329.497
329.542
329.588
329.634
329.68
329.726
329.772
329.818
329.865
329.91
329.956
330
330.044
330.087
330.128
330.167
330.205
330.247
330.35
331.115
331.683
332.069
332.333
332.521
332.663
332.79
332.943
333.198
333.691
325.093
325.644
326.158
326.6
326.981
327.311
327.599
327.844
328.022
327.916
325.035
324.429
324.511
324.824
325.209
325.602
325.978
326.326
326.64
326.92
327.166
327.376
327.554
327.701
327.819
327.913
327.984
328.037
328.074
328.098
328.113
328.124
328.133
328.143
328.159
328.19
328.22
328.22
328.219
328.242
328.271
328.319
328.373
328.386
328.401
328.441
328.479
328.518
328.559
328.6
328.64
328.68
328.716
328.75
328.783
328.814
328.844
328.873
328.9
328.926
328.951
328.974
328.996
329.017
329.036
329.054
329.07
329.085
329.099
329.112
329.123
329.133
329.143
329.151
329.158
329.165
329.17
329.175
329.181
329.232
329.995
330.548
330.918
331.172
331.357
331.506
331.648
331.822
332.084
332.524
324.863
325.406
325.913
326.35
326.726
327.052
327.336
327.578
327.753
327.649
324.806
324.208
324.289
324.598
324.977
325.365
325.736
326.08
326.391
326.667
326.909
327.117
327.292
327.437
327.553
327.646
327.718
327.771
327.808
327.831
327.844
327.852
327.858
327.865
327.88
327.913
327.946
327.943
327.936
327.958
327.987
328.038
328.096
328.107
328.119
328.159
328.199
328.241
328.285
328.329
328.371
328.411
328.448
328.485
328.521
328.557
328.592
328.626
328.658
328.689
328.717
328.744
328.77
328.795
328.819
328.842
328.863
328.884
328.903
328.922
328.939
328.954
328.968
328.981
328.991
329
329.007
329.011
329.016
329.062
329.792
330.315
330.659
330.888
331.049
331.176
331.298
331.453
331.7
332.15
324.636
325.171
325.672
326.103
326.474
326.796
327.076
327.316
327.489
327.386
324.582
323.992
324.072
324.376
324.751
325.134
325.5
325.839
326.146
326.419
326.658
326.863
327.036
327.178
327.292
327.384
327.455
327.51
327.549
327.574
327.586
327.591
327.593
327.598
327.612
327.648
327.684
327.679
327.668
327.691
327.721
327.774
327.84
327.85
327.86
327.904
327.949
327.999
328.049
328.098
328.142
328.183
328.223
328.263
328.304
328.346
328.386
328.426
328.465
328.502
328.54
328.577
328.613
328.65
328.686
328.723
328.759
328.796
328.833
328.871
328.909
328.948
328.987
329.028
329.068
329.11
329.153
329.197
329.25
329.363
330.099
330.633
330.989
331.228
331.398
331.535
331.67
331.837
332.109
332.633
324.413
324.939
325.433
325.859
326.225
326.543
326.82
327.056
327.227
327.127
324.361
323.78
323.859
324.16
324.53
324.908
325.27
325.604
325.907
326.176
326.412
326.614
326.783
326.923
327.034
327.124
327.195
327.251
327.293
327.32
327.334
327.337
327.336
327.337
327.35
327.387
327.427
327.421
327.407
327.43
327.461
327.517
327.589
327.601
327.611
327.66
327.713
327.771
327.829
327.881
327.927
327.969
328.01
328.054
328.099
328.145
328.19
328.234
328.278
328.32
328.363
328.405
328.447
328.49
328.532
328.575
328.618
328.661
328.705
328.749
328.793
328.837
328.88
328.923
328.966
329.007
329.046
329.085
329.128
329.229
329.948
330.47
330.814
331.038
331.189
331.301
331.402
331.528
331.749
332.2
324.192
324.71
325.199
325.618
325.98
326.294
326.567
326.801
326.971
326.874
324.149
323.578
323.658
323.956
324.32
324.693
325.049
325.378
325.675
325.939
326.17
326.367
326.532
326.666
326.773
326.857
326.925
326.98
327.024
327.054
327.069
327.071
327.065
327.06
327.068
327.101
327.141
327.133
327.113
327.133
327.162
327.218
327.294
327.307
327.319
327.375
327.437
327.503
327.566
327.618
327.66
327.698
327.737
327.779
327.822
327.864
327.905
327.943
327.98
328.015
328.049
328.082
328.114
328.145
328.175
328.204
328.231
328.258
328.282
328.306
328.327
328.346
328.362
328.376
328.386
328.393
328.395
328.393
328.391
328.442
329.156
329.676
330.017
330.239
330.387
330.494
330.582
330.682
330.853
331.209
323.975
324.485
324.967
325.381
325.738
326.048
326.318
326.55
326.72
326.633
323.963
323.411
323.494
323.788
324.145
324.51
324.857
325.175
325.461
325.712
325.928
326.11
326.259
326.377
326.467
326.535
326.588
326.631
326.667
326.693
326.705
326.701
326.685
326.668
326.662
326.684
326.716
326.701
326.672
326.686
326.711
326.766
326.846
326.866
326.885
326.955
327.033
327.112
327.182
327.235
327.276
327.312
327.349
327.388
327.425
327.458
327.486
327.509
327.527
327.543
327.555
327.566
327.574
327.58
327.585
327.587
327.589
327.588
327.586
327.581
327.575
327.566
327.555
327.541
327.525
327.505
327.482
327.452
327.414
327.416
328.158
328.716
329.099
329.36
329.542
329.675
329.779
329.88
330.025
330.322
323.762
324.264
324.739
325.148
325.5
325.806
326.073
326.304
326.481
326.434
323.963
323.476
323.568
323.847
324.179
324.511
324.819
325.093
325.33
325.529
325.692
325.821
325.92
325.992
326.043
326.078
326.104
326.127
326.15
326.171
326.182
326.179
326.161
326.137
326.122
326.136
326.165
326.146
326.113
326.123
326.146
326.199
326.282
326.308
326.339
326.427
326.525
326.623
326.706
326.771
326.822
326.87
326.917
326.963
327.002
327.031
327.047
327.052
327.049
327.04
327.026
327.011
326.993
326.975
326.956
326.936
326.916
326.895
326.873
326.851
326.828
326.805
326.78
326.754
326.726
326.698
326.667
326.633
326.597
326.605
327.438
328.069
328.509
328.811
329.02
329.168
329.277
329.37
329.486
329.733
323.551
324.045
324.515
324.918
325.266
325.568
325.832
326.063
326.258
326.391
326.333
326.386
326.501
326.636
326.774
326.909
327.036
327.154
327.264
327.364
327.456
327.539
327.614
327.682
327.742
327.796
327.848
327.903
327.965
328.03
328.089
328.131
328.151
328.157
328.167
328.207
328.266
328.265
328.241
328.259
328.281
328.324
328.395
328.389
328.379
328.432
328.491
328.539
328.566
328.573
328.575
328.583
328.602
328.628
328.653
328.676
328.694
328.708
328.72
328.73
328.739
328.745
328.75
328.754
328.757
328.759
328.759
328.76
328.759
328.758
328.756
328.753
328.75
328.747
328.743
328.739
328.734
328.729
328.727
328.737
328.814
328.885
328.94
328.981
329.013
329.04
329.065
329.096
329.162
329.365
323.343
323.829
324.292
324.69
325.033
325.332
325.593
325.823
326.025
326.197
326.334
326.468
326.6
326.726
326.846
326.958
327.062
327.159
327.25
327.335
327.414
327.488
327.557
327.621
327.68
327.734
327.785
327.84
327.902
327.973
328.042
328.098
328.131
328.144
328.154
328.193
328.253
328.255
328.232
328.25
328.269
328.307
328.376
328.369
328.358
328.41
328.464
328.5
328.512
328.506
328.502
328.51
328.531
328.558
328.584
328.607
328.627
328.645
328.662
328.678
328.692
328.704
328.715
328.725
328.734
328.742
328.748
328.754
328.759
328.763
328.766
328.768
328.77
328.771
328.772
328.772
328.772
328.772
328.772
328.775
328.787
328.799
328.812
328.823
328.835
328.847
328.861
328.884
328.947
329.163
323.135
323.614
324.071
324.464
324.803
325.097
325.355
325.583
325.785
325.964
326.123
326.269
326.404
326.529
326.644
326.752
326.852
326.945
327.032
327.114
327.19
327.263
327.331
327.396
327.456
327.511
327.562
327.614
327.673
327.742
327.814
327.878
327.922
327.942
327.953
327.988
328.044
328.046
328.021
328.036
328.05
328.081
328.149
328.145
328.137
328.193
328.243
328.273
328.278
328.273
328.277
328.296
328.326
328.36
328.391
328.42
328.446
328.471
328.495
328.516
328.536
328.555
328.572
328.587
328.602
328.614
328.626
328.636
328.645
328.654
328.661
328.668
328.673
328.678
328.683
328.687
328.691
328.694
328.698
328.702
328.708
328.716
328.724
328.734
328.746
328.759
328.774
328.8
328.878
329.139
322.929
323.399
323.851
324.238
324.572
324.863
325.118
325.343
325.543
325.723
325.884
326.031
326.166
326.289
326.403
326.509
326.608
326.699
326.785
326.866
326.942
327.013
327.081
327.146
327.208
327.265
327.318
327.369
327.424
327.488
327.559
327.626
327.677
327.704
327.717
327.747
327.799
327.798
327.774
327.782
327.785
327.802
327.856
327.85
327.84
327.89
327.93
327.947
327.945
327.94
327.948
327.971
328.002
328.033
328.062
328.089
328.114
328.138
328.161
328.181
328.2
328.216
328.231
328.244
328.255
328.265
328.273
328.28
328.286
328.292
328.296
328.3
328.304
328.308
328.312
328.316
328.321
328.326
328.332
328.338
328.346
328.357
328.369
328.384
328.401
328.42
328.442
328.476
328.567
328.839
322.724
323.186
323.632
324.014
324.344
324.63
324.881
325.104
325.302
325.48
325.64
325.786
325.919
326.042
326.155
326.259
326.357
326.448
326.533
326.613
326.688
326.759
326.827
326.892
326.955
327.016
327.074
327.128
327.182
327.241
327.308
327.376
327.431
327.462
327.477
327.503
327.55
327.544
327.495
327.484
327.458
327.442
327.481
327.455
327.426
327.456
327.475
327.472
327.456
327.445
327.447
327.459
327.474
327.487
327.499
327.509
327.519
327.529
327.536
327.542
327.547
327.55
327.553
327.556
327.559
327.562
327.566
327.571
327.576
327.582
327.589
327.598
327.607
327.618
327.629
327.642
327.656
327.671
327.687
327.705
327.724
327.744
327.767
327.792
327.82
327.849
327.882
327.93
328.029
328.284
322.521
322.975
323.415
323.792
324.117
324.4
324.648
324.867
325.063
325.239
325.398
325.542
325.674
325.795
325.907
326.011
326.108
326.198
326.283
326.362
326.437
326.508
326.574
326.639
326.704
326.768
326.832
326.893
326.951
327.011
327.075
327.141
327.197
327.23
327.243
327.266
327.308
327.296
327.293
327.22
327.104
326.987
326.864
326.769
326.685
326.667
326.642
326.603
326.56
326.526
326.507
326.494
326.483
326.476
326.473
326.478
326.487
326.5
326.515
326.532
326.551
326.57
326.592
326.614
326.638
326.663
326.688
326.715
326.742
326.769
326.797
326.825
326.854
326.883
326.912
326.942
326.972
327.002
327.033
327.064
327.096
327.129
327.164
327.199
327.236
327.274
327.317
327.374
327.476
327.706
322.324
322.77
323.204
323.576
323.897
324.176
324.421
324.638
324.831
325.004
325.161
325.304
325.435
325.555
325.666
325.769
325.865
325.955
326.039
326.118
326.193
326.264
326.33
326.394
326.458
326.524
326.592
326.661
326.728
326.793
326.859
326.925
326.983
327.018
327.03
327.048
327.083
327.031
326.623
326.316
325.943
325.621
325.621
325.446
325.311
325.269
325.242
325.216
325.2
325.201
325.214
325.236
325.265
325.303
325.35
325.405
325.463
325.522
325.58
325.636
325.691
325.745
325.798
325.849
325.9
325.949
325.997
326.045
326.091
326.136
326.181
326.224
326.267
326.31
326.351
326.392
326.433
326.473
326.513
326.553
326.594
326.634
326.675
326.717
326.759
326.803
326.852
326.914
327.015
327.225
322.138
322.577
323.005
323.373
323.689
323.965
324.206
324.421
324.611
324.783
324.938
325.08
325.209
325.328
325.438
325.54
325.636
325.725
325.81
325.889
325.964
326.035
326.101
326.165
326.227
326.292
326.361
326.434
326.509
326.582
326.653
326.724
326.788
326.832
326.849
326.863
326.89
326.799
326.921
326.072
325.27
324.718
323.851
323.714
323.692
323.781
323.882
323.982
324.083
324.186
324.286
324.381
324.475
324.57
324.668
324.765
324.857
324.944
325.024
325.1
325.172
325.241
325.306
325.368
325.428
325.486
325.543
325.598
325.651
325.703
325.753
325.802
325.85
325.897
325.943
325.989
326.033
326.077
326.12
326.164
326.207
326.251
326.294
326.338
326.382
326.429
326.482
326.549
326.648
326.845
321.971
322.403
322.827
323.19
323.503
323.775
324.014
324.226
324.414
324.584
324.738
324.878
325.006
325.124
325.234
325.335
325.43
325.52
325.604
325.684
325.759
325.831
325.898
325.962
326.023
326.085
326.151
326.223
326.3
326.379
326.456
326.532
326.607
326.667
326.703
326.722
326.72
326.325
323.872
322.448
321.652
321.402
322.219
322.445
322.646
322.915
323.161
323.381
323.578
323.752
323.902
324.034
324.154
324.269
324.379
324.481
324.575
324.659
324.737
324.811
324.881
324.948
325.013
325.076
325.136
325.196
325.253
325.309
325.363
325.416
325.467
325.517
325.565
325.613
325.659
325.705
325.749
325.793
325.837
325.881
325.924
325.968
326.011
326.055
326.099
326.147
326.2
326.267
326.364
326.552
321.832
322.259
322.679
323.038
323.348
323.618
323.854
324.064
324.251
324.419
324.572
324.71
324.838
324.955
325.064
325.165
325.26
325.349
325.434
325.514
325.59
325.663
325.732
325.797
325.859
325.918
325.98
326.047
326.12
326.199
326.279
326.359
326.442
326.523
326.585
326.615
326.575
325.756
318.561
317.122
316.556
316.712
321.456
322.023
322.281
322.574
322.837
323.08
323.303
323.499
323.67
323.821
323.96
324.086
324.201
324.304
324.398
324.483
324.563
324.638
324.709
324.777
324.843
324.906
324.967
325.026
325.082
325.137
325.19
325.242
325.292
325.341
325.388
325.435
325.48
325.524
325.568
325.611
325.653
325.696
325.738
325.78
325.822
325.864
325.908
325.956
326.01
326.075
326.169
326.351
321.729
322.151
322.568
322.925
323.233
323.501
323.737
323.945
324.131
324.299
324.451
324.589
324.716
324.832
324.94
325.041
325.136
325.225
325.309
325.39
325.467
325.541
325.612
325.679
325.742
325.802
325.861
325.924
325.992
326.068
326.148
326.23
326.318
326.413
326.498
326.536
326.468
325.315
314.194
312.822
312.485
312.986
321.06
321.898
322.166
322.436
322.669
322.894
323.107
323.299
323.474
323.636
323.785
323.924
324.051
324.167
324.273
324.371
324.462
324.547
324.625
324.699
324.768
324.834
324.896
324.956
325.012
325.066
325.119
325.169
325.219
325.267
325.314
325.36
325.404
325.448
325.491
325.532
325.574
325.615
325.656
325.697
325.737
325.779
325.823
325.871
325.925
325.991
326.083
326.261
321.663
322.083
322.498
322.854
323.16
323.428
323.663
323.872
324.058
324.227
324.379
324.518
324.645
324.763
324.871
324.972
325.067
325.156
325.241
325.321
325.399
325.473
325.545
325.613
325.678
325.739
325.799
325.861
325.928
326.003
326.083
326.164
326.244
326.341
326.433
326.453
326.36
325.082
312.367
311.038
310.828
311.53
321.17
322.129
322.357
322.557
322.715
322.879
323.043
323.202
323.357
323.51
323.66
323.806
323.946
324.077
324.199
324.315
324.431
324.531
324.621
324.702
324.778
324.848
324.914
324.976
325.034
325.09
325.144
325.197
325.248
325.298
325.346
325.393
325.439
325.483
325.527
325.569
325.61
325.651
325.691
325.731
325.772
325.813
325.858
325.907
325.963
326.032
326.126
326.305
321.633
322.051
322.465
322.82
323.126
323.393
323.629
323.838
324.025
324.194
324.348
324.489
324.618
324.738
324.848
324.952
325.048
325.139
325.225
325.307
325.385
325.461
325.534
325.604
325.67
325.732
325.792
325.853
325.92
325.994
326.073
326.141
324.501
324.613
324.707
324.792
324.871
324.945
325.015
325.081
325.145
325.207
325.267
325.326
325.383
325.439
325.493
325.546
325.597
325.646
325.693
325.739
325.784
325.827
325.87
325.913
325.955
325.999
326.046
326.098
326.158
326.232
326.334
326.518
321.628
322.046
322.46
322.814
323.12
323.387
323.622
323.83
324.018
324.187
324.341
324.483
324.614
324.735
324.848
324.954
325.054
325.148
325.237
325.323
325.405
325.485
325.563
325.637
325.707
325.772
325.836
325.893
325.953
326.016
326.076
326.118
324.719
324.811
324.89
324.967
325.044
325.119
325.195
325.269
325.343
325.415
325.485
325.554
325.621
325.686
325.75
325.812
325.872
325.93
325.986
326.041
326.094
326.146
326.197
326.247
326.296
326.347
326.4
326.457
326.523
326.604
326.718
326.926
321.638
322.057
322.471
322.825
323.13
323.397
323.631
323.839
324.025
324.193
324.346
324.487
324.617
324.738
324.851
324.958
325.06
325.156
325.249
325.338
325.425
325.511
325.595
325.677
325.755
325.825
325.872
325.921
325.96
325.991
326.021
325.999
324.965
325.04
325.107
325.178
325.254
325.334
325.418
325.505
325.595
325.685
325.776
325.866
325.955
326.043
326.128
326.211
326.292
326.373
326.453
326.53
326.605
326.676
326.745
326.81
326.874
326.937
327.001
327.069
327.146
327.241
327.38
327.637
321.652
322.071
322.485
322.839
323.145
323.412
323.646
323.853
324.039
324.206
324.358
324.498
324.626
324.746
324.858
324.964
325.065
325.162
325.255
325.345
325.434
325.523
325.611
325.699
325.783
325.859
325.97
325.99
325.972
325.922
325.785
325.655
325.173
325.268
325.359
325.455
325.558
325.667
325.787
325.914
326.048
326.185
326.321
326.453
326.58
326.699
326.807
326.904
326.987
327.057
327.114
327.164
327.207
327.246
327.284
327.32
327.357
327.396
327.44
327.491
327.556
327.644
327.783
328.051
321.661
322.08
322.495
322.85
323.156
323.423
323.657
323.865
324.051
324.219
324.372
324.511
324.64
324.759
324.871
324.977
325.078
325.174
325.268
325.359
325.449
325.54
325.631
325.721
325.805
325.855
325.618
325.502
325.321
325.123
325.138
324.93
325.628
325.788
325.94
326.088
326.227
326.352
326.452
326.53
326.592
326.642
326.685
326.721
326.752
326.779
326.802
326.823
326.842
326.86
326.877
326.894
326.912
326.932
326.953
326.977
327.003
327.034
327.07
327.114
327.17
327.247
327.363
327.581
321.663
322.082
322.497
322.852
323.159
323.426
323.66
323.869
324.055
324.223
324.376
324.516
324.646
324.766
324.879
324.985
325.087
325.185
325.28
325.373
325.466
325.56
325.654
325.747
325.827
325.866
326.343
325.9
325.387
324.973
324.074
323.915
325.996
326.077
326.133
326.178
326.214
326.242
326.263
326.281
326.296
326.31
326.324
326.338
326.352
326.366
326.381
326.396
326.412
326.429
326.447
326.466
326.487
326.509
326.532
326.558
326.587
326.619
326.655
326.698
326.752
326.822
326.92
327.104
321.66
322.079
322.493
322.848
323.155
323.421
323.656
323.864
324.051
324.219
324.372
324.512
324.641
324.762
324.875
324.982
325.084
325.183
325.279
325.374
325.469
325.566
325.663
325.754
325.795
325.553
323.701
322.64
322.029
321.891
322.773
323.03
325.738
325.78
325.802
325.818
325.832
325.845
325.859
325.872
325.886
325.901
325.917
325.933
325.951
325.969
325.988
326.008
326.028
326.05
326.072
326.096
326.12
326.146
326.173
326.202
326.233
326.267
326.305
326.35
326.404
326.469
326.555
326.722
321.654
322.073
322.487
322.842
323.148
323.414
323.649
323.857
324.043
324.211
324.364
324.504
324.633
324.754
324.867
324.974
325.076
325.175
325.272
325.368
325.465
325.562
325.658
325.737
325.712
325.023
318.262
317.032
316.591
316.874
322.035
322.702
325.397
325.435
325.455
325.471
325.485
325.5
325.515
325.531
325.548
325.566
325.586
325.606
325.627
325.648
325.671
325.694
325.718
325.743
325.769
325.795
325.822
325.851
325.88
325.91
325.942
325.976
326.015
326.06
326.112
326.171
326.252
326.413
321.647
322.066
322.481
322.835
323.141
323.408
323.642
323.85
324.036
324.204
324.356
324.496
324.625
324.746
324.859
324.966
325.068
325.167
325.264
325.359
325.455
325.552
325.645
325.71
325.622
324.541
313.578
312.276
312.019
312.67
321.523
322.52
325.226
325.261
325.28
325.295
325.307
325.319
325.332
325.345
325.36
325.376
325.393
325.411
325.43
325.45
325.472
325.494
325.517
325.542
325.567
325.593
325.62
325.648
325.676
325.706
325.738
325.772
325.81
325.854
325.902
325.956
326.031
326.186
321.643
322.062
322.476
322.831
323.137
323.403
323.638
323.845
324.031
324.199
324.352
324.491
324.62
324.74
324.853
324.959
325.061
325.159
325.255
325.349
325.444
325.538
325.627
325.681
325.553
324.28
311.461
310.119
309.965
310.83
321.429
322.568
325.245
325.278
325.292
325.3
325.303
325.306
325.308
325.311
325.315
325.321
325.329
325.338
325.35
325.363
325.378
325.396
325.414
325.434
325.456
325.479
325.503
325.528
325.555
325.583
325.613
325.646
325.683
325.724
325.768
325.818
325.891
326.045
321.642
322.061
322.475
322.83
323.136
323.402
323.637
323.844
324.03
324.198
324.351
324.49
324.619
324.739
324.851
324.956
325.057
325.153
325.247
325.34
325.432
325.522
325.605
325.648
325.504
324.221
311.026
309.639
309.533
310.568
322.236
323.264
325.407
325.437
325.445
325.441
325.43
325.416
325.4
325.385
325.372
325.361
325.354
325.351
325.35
325.353
325.359
325.368
325.38
325.394
325.411
325.429
325.45
325.472
325.495
325.521
325.55
325.582
325.617
325.656
325.697
325.744
325.818
325.974
321.643
322.062
322.476
322.831
323.137
323.403
323.638
323.845
324.031
324.199
324.352
324.491
324.62
324.739
324.85
324.955
325.055
325.15
325.242
325.332
325.421
325.508
325.584
325.618
325.466
324.19
310.966
309.57
309.486
310.646
323.17
324.2
325.634
325.662
325.655
325.629
325.588
325.546
325.504
325.465
325.43
325.402
325.379
325.363
325.351
325.345
325.343
325.346
325.353
325.363
325.377
325.393
325.412
325.433
325.456
325.482
325.512
325.544
325.579
325.617
325.657
325.706
325.783
325.946
321.646
322.064
322.479
322.833
323.139
323.406
323.64
323.848
324.034
324.201
324.353
324.492
324.621
324.739
324.85
324.954
325.053
325.147
325.237
325.326
325.412
325.494
325.565
325.594
325.44
324.185
311.033
309.665
309.598
310.811
323.776
324.911
325.822
325.824
325.771
325.692
325.615
325.529
325.451
325.385
325.332
325.291
325.26
325.24
325.227
325.222