/*--------------------------------*- C++ -*----------------------------------*\
| =========                 |                                                 |
| \\      /  F ield         | OpenFOAM: The Open Source CFD Toolbox           |
|  \\    /   O peration     | Version:  v2012                                 |
|   \\  /    A nd           | Website:  www.openfoam.com                      |
|    \\/     M anipulation  |                                                 |
\*---------------------------------------------------------------------------*/
FoamFile
{
    version     2.0;
    format      ascii;
    class       volScalarField;
    location    "550/soil2";
    object      T;
}
// * * * * * * * * * * * * * * * * * * * * * * * * * * * * * * * * * * * * * //

dimensions      [0 0 0 1 0 0 0];


internalField   nonuniform List<scalar> 
10496
(
328.374
329.044
329.662
330.194
330.652
331.051
331.4
331.709
331.984
332.231
332.454
332.656
332.841
333.011
333.167
333.312
333.446
333.571
333.689
333.799
333.903
334.001
334.094
334.182
334.266
334.347
334.424
334.497
334.568
334.636
334.702
334.766
334.827
334.886
334.944
335
335.055
335.108
335.161
335.211
335.261
335.309
335.357
335.404
335.45
335.496
335.54
335.584
335.628
335.67
335.712
335.754
335.795
335.835
335.875
335.914
335.953
335.991
336.029
336.067
336.103
336.14
336.176
336.211
336.246
336.28
336.314
336.348
336.381
336.414
336.447
336.479
336.511
336.543
336.574
336.605
336.637
336.669
336.7
336.732
336.763
336.795
336.827
336.86
336.896
336.936
336.98
337.043
337.179
337.583
328.118
328.771
329.372
329.889
330.333
330.719
331.056
331.353
331.618
331.855
332.068
332.262
332.438
332.599
332.747
332.884
333.011
333.129
333.239
333.343
333.44
333.531
333.618
333.7
333.778
333.852
333.923
333.991
334.056
334.119
334.179
334.237
334.293
334.347
334.399
334.449
334.499
334.547
334.595
334.64
334.685
334.728
334.771
334.813
334.855
334.895
334.935
334.974
335.013
335.051
335.088
335.125
335.161
335.197
335.233
335.268
335.302
335.336
335.37
335.403
335.436
335.468
335.5
335.531
335.562
335.593
335.623
335.653
335.682
335.711
335.74
335.768
335.797
335.825
335.853
335.88
335.908
335.936
335.964
335.992
336.02
336.048
336.076
336.107
336.139
336.175
336.216
336.278
336.427
336.875
327.85
328.493
329.085
329.594
330.031
330.41
330.742
331.034
331.294
331.527
331.736
331.926
332.098
332.256
332.401
332.535
332.659
332.774
332.881
332.982
333.076
333.165
333.249
333.329
333.405
333.477
333.545
333.611
333.674
333.734
333.792
333.847
333.901
333.953
334.003
334.051
334.098
334.145
334.19
334.234
334.276
334.317
334.357
334.398
334.437
334.476
334.513
334.55
334.587
334.623
334.658
334.693
334.728
334.761
334.795
334.828
334.86
334.892
334.924
334.955
334.986
335.016
335.046
335.076
335.105
335.133
335.161
335.189
335.217
335.244
335.271
335.297
335.324
335.35
335.376
335.402
335.427
335.453
335.479
335.506
335.532
335.558
335.584
335.613
335.644
335.679
335.72
335.782
335.936
336.386
327.582
328.217
328.801
329.303
329.735
330.109
330.436
330.724
330.981
331.21
331.417
331.604
331.774
331.929
332.072
332.204
332.326
332.44
332.545
332.644
332.737
332.825
332.908
332.986
333.06
333.131
333.198
333.263
333.324
333.383
333.44
333.494
333.547
333.598
333.646
333.693
333.739
333.784
333.829
333.871
333.912
333.952
333.99
334.03
334.069
334.106
334.143
334.178
334.214
334.249
334.283
334.317
334.35
334.383
334.415
334.447
334.479
334.51
334.541
334.571
334.601
334.63
334.659
334.688
334.716
334.743
334.771
334.798
334.824
334.851
334.877
334.902
334.928
334.953
334.979
335.004
335.029
335.054
335.08
335.105
335.131
335.157
335.184
335.212
335.244
335.279
335.32
335.383
335.538
335.986
327.318
327.943
328.52
329.016
329.442
329.811
330.134
330.419
330.672
330.899
331.103
331.287
331.455
331.608
331.749
331.879
332
332.112
332.216
332.314
332.405
332.492
332.573
332.651
332.724
332.793
332.86
332.923
332.984
333.042
333.097
333.151
333.202
333.252
333.3
333.346
333.39
333.435
333.478
333.519
333.559
333.598
333.635
333.674
333.712
333.748
333.783
333.818
333.852
333.886
333.92
333.952
333.984
334.016
334.048
334.078
334.109
334.139
334.168
334.198
334.226
334.255
334.282
334.31
334.337
334.364
334.39
334.416
334.441
334.466
334.491
334.516
334.541
334.565
334.589
334.613
334.637
334.661
334.685
334.71
334.734
334.759
334.785
334.813
334.844
334.878
334.918
334.979
335.128
335.564
327.056
327.674
328.243
328.732
329.153
329.518
329.837
330.118
330.368
330.592
330.793
330.975
331.141
331.292
331.431
331.56
331.679
331.789
331.892
331.989
332.079
332.165
332.245
332.321
332.394
332.462
332.528
332.59
332.65
332.707
332.762
332.814
332.865
332.914
332.96
333.005
333.049
333.092
333.134
333.174
333.213
333.25
333.287
333.324
333.36
333.394
333.428
333.462
333.495
333.527
333.558
333.589
333.62
333.65
333.679
333.709
333.737
333.765
333.793
333.82
333.847
333.873
333.899
333.924
333.949
333.973
333.997
334.021
334.044
334.066
334.088
334.11
334.132
334.153
334.174
334.194
334.215
334.235
334.256
334.276
334.297
334.317
334.339
334.362
334.387
334.416
334.45
334.502
334.634
335.036
326.799
327.408
327.97
328.453
328.868
329.229
329.544
329.822
330.069
330.289
330.486
330.665
330.829
330.978
331.116
331.243
331.36
331.47
331.572
331.668
331.757
331.842
331.922
331.997
332.068
332.136
332.201
332.262
332.321
332.377
332.431
332.483
332.532
332.579
332.625
332.669
332.711
332.751
332.791
332.829
332.866
332.902
332.937
332.971
333.003
333.035
333.066
333.097
333.126
333.155
333.183
333.211
333.237
333.264
333.289
333.314
333.339
333.363
333.386
333.409
333.432
333.453
333.474
333.495
333.515
333.534
333.553
333.571
333.589
333.605
333.622
333.637
333.653
333.667
333.681
333.695
333.708
333.72
333.733
333.745
333.757
333.769
333.782
333.796
333.813
333.833
333.859
333.899
334.004
334.344
326.545
327.145
327.7
328.177
328.588
328.944
329.255
329.529
329.772
329.987
330.177
330.35
330.509
330.656
330.792
330.919
331.036
331.145
331.248
331.344
331.434
331.518
331.598
331.673
331.744
331.812
331.876
331.936
331.994
332.049
332.102
332.152
332.199
332.244
332.288
332.33
332.369
332.405
332.439
332.473
332.506
332.54
332.571
332.598
332.625
332.652
332.678
332.703
332.727
332.751
332.773
332.795
332.816
332.836
332.855
332.874
332.891
332.908
332.924
332.939
332.954
332.967
332.98
332.992
333.003
333.014
333.024
333.033
333.041
333.048
333.055
333.061
333.067
333.072
333.076
333.08
333.083
333.086
333.089
333.093
333.098
333.103
333.108
333.116
333.126
333.141
333.162
333.193
333.271
333.524
326.294
326.886
327.434
327.905
328.311
328.662
328.97
329.24
329.476
329.677
329.834
329.984
330.132
330.275
330.411
330.54
330.662
330.778
330.886
330.988
331.084
331.174
331.258
331.338
331.412
331.481
331.545
331.605
331.662
331.715
331.765
331.812
331.856
331.897
331.937
331.976
332.012
332.04
332.067
332.095
332.124
332.154
332.181
332.2
332.219
332.241
332.261
332.28
332.297
332.314
332.33
332.344
332.359
332.372
332.385
332.397
332.408
332.418
332.427
332.436
332.444
332.451
332.457
332.463
332.468
332.472
332.476
332.479
332.482
332.484
332.485
332.486
332.487
332.487
332.487
332.486
332.485
332.485
332.486
332.49
332.503
332.516
332.528
332.539
332.553
332.572
332.597
332.632
332.699
332.898
326.047
326.631
327.172
327.637
328.037
328.385
328.688
328.952
329.176
329.325
329.216
329.223
329.309
329.437
329.587
329.746
329.906
330.064
330.215
330.358
330.492
330.617
330.732
330.837
330.932
331.018
331.096
331.166
331.23
331.29
331.345
331.396
331.443
331.486
331.528
331.57
331.608
331.634
331.658
331.687
331.717
331.751
331.781
331.798
331.816
331.838
331.858
331.877
331.894
331.91
331.924
331.938
331.951
331.963
331.973
331.982
331.99
331.996
332.002
332.006
332.009
332.01
332.011
332.011
332.009
332.007
332.003
331.999
331.993
331.987
331.98
331.972
331.964
331.955
331.946
331.936
331.926
331.916
331.91
331.92
332.005
332.083
332.141
332.183
332.217
332.25
332.289
332.337
332.418
332.62
325.803
326.379
326.913
327.372
327.768
328.111
328.41
328.668
328.865
328.811
326.019
325.464
325.563
325.875
326.251
326.633
326.996
327.33
327.632
327.901
328.136
328.34
328.513
328.658
328.778
328.875
328.953
329.015
329.065
329.106
329.142
329.172
329.2
329.225
329.25
329.28
329.306
329.319
329.332
329.354
329.379
329.411
329.442
329.456
329.472
329.497
329.52
329.543
329.563
329.582
329.6
329.616
329.631
329.643
329.652
329.659
329.663
329.664
329.663
329.659
329.651
329.641
329.628
329.612
329.593
329.57
329.545
329.517
329.486
329.452
329.416
329.378
329.337
329.295
329.25
329.204
329.156
329.108
329.062
329.076
330.052
330.797
331.313
331.662
331.898
332.062
332.189
332.305
332.453
332.734
325.563
326.131
326.658
327.111
327.502
327.84
328.135
328.388
328.574
328.477
325.539
324.931
325.021
325.343
325.735
326.136
326.518
326.87
327.189
327.473
327.722
327.936
328.118
328.27
328.394
328.493
328.571
328.63
328.676
328.711
328.74
328.764
328.786
328.807
328.833
328.868
328.903
328.92
328.938
328.973
329.013
329.066
329.121
329.154
329.19
329.241
329.291
329.342
329.395
329.448
329.502
329.557
329.612
329.666
329.72
329.773
329.825
329.876
329.925
329.972
330.017
330.06
330.099
330.134
330.166
330.193
330.215
330.231
330.242
330.246
330.244
330.236
330.221
330.199
330.172
330.138
330.098
330.053
330.01
330.033
330.825
331.433
331.855
332.141
332.334
332.47
332.58
332.701
332.893
333.269
325.327
325.886
326.406
326.854
327.24
327.574
327.865
328.114
328.294
328.189
325.272
324.66
324.746
325.063
325.452
325.85
326.231
326.582
326.9
327.183
327.43
327.644
327.823
327.972
328.093
328.188
328.261
328.315
328.353
328.381
328.4
328.415
328.428
328.441
328.46
328.49
328.52
328.526
328.533
328.559
328.592
328.64
328.691
328.711
328.735
328.777
328.819
328.862
328.906
328.952
328.998
329.044
329.091
329.136
329.182
329.227
329.272
329.317
329.362
329.408
329.453
329.499
329.545
329.591
329.637
329.684
329.731
329.778
329.825
329.871
329.918
329.964
330.01
330.054
330.098
330.139
330.179
330.217
330.26
330.363
331.127
331.694
332.08
332.344
332.53
332.672
332.797
332.95
333.203
333.695
325.093
325.644
326.158
326.6
326.981
327.311
327.598
327.844
328.021
327.916
325.034
324.428
324.511
324.824
325.209
325.602
325.978
326.326
326.64
326.92
327.165
327.376
327.554
327.7
327.819
327.912
327.984
328.037
328.074
328.098
328.113
328.124
328.133
328.142
328.159
328.19
328.22
328.22
328.218
328.242
328.271
328.319
328.372
328.386
328.401
328.44
328.478
328.518
328.559
328.6
328.64
328.679
328.716
328.75
328.783
328.814
328.844
328.873
328.9
328.926
328.951
328.974
328.996
329.017
329.036
329.054
329.071
329.086
329.1
329.113
329.125
329.135
329.145
329.154
329.162
329.169
329.175
329.181
329.188
329.239
330.002
330.554
330.925
331.179
331.365
331.515
331.659
331.833
332.092
332.532
324.863
325.406
325.913
326.35
326.725
327.051
327.335
327.578
327.753
327.649
324.806
324.208
324.289
324.598
324.977
325.365
325.736
326.079
326.39
326.667
326.909
327.117
327.292
327.437
327.553
327.646
327.717
327.771
327.808
327.831
327.844
327.852
327.857
327.864
327.88
327.913
327.945
327.942
327.936
327.958
327.987
328.037
328.096
328.107
328.119
328.159
328.199
328.241
328.285
328.329
328.371
328.41
328.448
328.485
328.521
328.557
328.592
328.626
328.658
328.688
328.717
328.744
328.77
328.794
328.818
328.84
328.862
328.882
328.901
328.919
328.935
328.95
328.963
328.975
328.985
328.992
328.998
329
329.003
329.047
329.777
330.3
330.643
330.871
331.03
331.155
331.275
331.426
331.667
332.109
324.636
325.171
325.672
326.102
326.473
326.795
327.076
327.315
327.488
327.386
324.581
323.991
324.072
324.376
324.75
325.134
325.5
325.839
326.146
326.419
326.658
326.863
327.036
327.178
327.292
327.383
327.455
327.51
327.549
327.573
327.585
327.59
327.593
327.597
327.612
327.647
327.683
327.679
327.668
327.69
327.72
327.774
327.839
327.85
327.86
327.904
327.949
327.998
328.049
328.097
328.142
328.183
328.222
328.263
328.304
328.345
328.386
328.425
328.464
328.502
328.539
328.576
328.613
328.649
328.686
328.722
328.758
328.795
328.832
328.87
328.907
328.946
328.985
329.025
329.065
329.106
329.148
329.192
329.243
329.355
330.091
330.624
330.977
331.215
331.384
331.521
331.654
331.821
332.091
332.613
324.413
324.939
325.433
325.858
326.225
326.543
326.82
327.056
327.227
327.126
324.361
323.78
323.859
324.16
324.529
324.908
325.269
325.604
325.907
326.176
326.412
326.614
326.783
326.922
327.034
327.123
327.194
327.25
327.292
327.32
327.333
327.337
327.336
327.337
327.35
327.386
327.426
327.421
327.407
327.429
327.46
327.516
327.588
327.6
327.611
327.66
327.713
327.771
327.828
327.881
327.926
327.968
328.01
328.054
328.099
328.145
328.19
328.234
328.278
328.321
328.363
328.406
328.448
328.491
328.534
328.577
328.62
328.664
328.708
328.752
328.797
328.841
328.885
328.929
328.972
329.014
329.055
329.094
329.139
329.241
329.96
330.482
330.826
331.051
331.203
331.317
331.419
331.548
331.774
332.23
324.192
324.71
325.198
325.618
325.98
326.293
326.567
326.801
326.971
326.873
324.149
323.578
323.658
323.955
324.32
324.692
325.049
325.378
325.675
325.939
326.169
326.367
326.531
326.666
326.772
326.857
326.924
326.979
327.023
327.053
327.068
327.07
327.065
327.06
327.067
327.1
327.14
327.132
327.113
327.132
327.162
327.218
327.293
327.307
327.319
327.375
327.437
327.503
327.565
327.617
327.66
327.698
327.737
327.779
327.822
327.865
327.905
327.944
327.981
328.016
328.051
328.084
328.116
328.148
328.178
328.208
328.236
328.263
328.289
328.313
328.335
328.355
328.372
328.387
328.398
328.405
328.409
328.408
328.407
328.459
329.173
329.693
330.034
330.256
330.404
330.511
330.601
330.703
330.878
331.238
323.975
324.485
324.967
325.381
325.738
326.048
326.318
326.55
326.72
326.633
323.962
323.41
323.494
323.787
324.145
324.51
324.857
325.175
325.461
325.712
325.928
326.11
326.259
326.376
326.467
326.535
326.587
326.63
326.666
326.692
326.704
326.7
326.685
326.667
326.662
326.683
326.716
326.7
326.672
326.686
326.711
326.766
326.846
326.866
326.885
326.955
327.033
327.112
327.181
327.235
327.276
327.312
327.349
327.388
327.425
327.459
327.487
327.51
327.529
327.545
327.558
327.568
327.577
327.584
327.589
327.593
327.594
327.595
327.593
327.589
327.583
327.575
327.564
327.551
327.535
327.515
327.492
327.463
327.427
327.429
328.171
328.728
329.11
329.371
329.553
329.686
329.791
329.894
330.041
330.34
323.761
324.264
324.739
325.148
325.5
325.806
326.073
326.304
326.481
326.434
323.963
323.476
323.568
323.847
324.179
324.511
324.819
325.093
325.33
325.529
325.692
325.821
325.92
325.992
326.043
326.078
326.103
326.126
326.149
326.17
326.182
326.178
326.16
326.137
326.122
326.136
326.165
326.146
326.113
326.123
326.146
326.199
326.281
326.308
326.339
326.427
326.525
326.623
326.706
326.77
326.822
326.869
326.917
326.963
327.002
327.032
327.048
327.053
327.05
327.042
327.029
327.014
326.997
326.979
326.96
326.941
326.921
326.9
326.879
326.857
326.834
326.81
326.785
326.759
326.731
326.702
326.671
326.636
326.601
326.608
327.441
328.072
328.511
328.813
329.022
329.17
329.28
329.374
329.491
329.738
323.551
324.045
324.515
324.918
325.266
325.568
325.832
326.063
326.258
326.39
326.332
326.386
326.501
326.636
326.774
326.908
327.035
327.154
327.263
327.363
327.455
327.538
327.614
327.681
327.741
327.795
327.847
327.902
327.963
328.029
328.088
328.129
328.15
328.156
328.165
328.206
328.264
328.264
328.24
328.258
328.28
328.323
328.394
328.387
328.378
328.431
328.489
328.538
328.564
328.571
328.573
328.581
328.601
328.627
328.652
328.674
328.692
328.707
328.719
328.729
328.737
328.744
328.749
328.753
328.756
328.758
328.758
328.759
328.758
328.757
328.755
328.752
328.749
328.746
328.742
328.737
328.733
328.728
328.725
328.736
328.812
328.883
328.937
328.979
329.011
329.038
329.064
329.095
329.161
329.364
323.342
323.829
324.292
324.69
325.033
325.331
325.593
325.823
326.024
326.197
326.334
326.468
326.599
326.726
326.845
326.957
327.062
327.159
327.249
327.334
327.413
327.487
327.556
327.621
327.679
327.733
327.784
327.838
327.901
327.971
328.04
328.096
328.129
328.142
328.153
328.191
328.251
328.254
328.23
328.249
328.268
328.306
328.374
328.367
328.356
328.409
328.462
328.498
328.509
328.504
328.5
328.509
328.53
328.556
328.582
328.605
328.625
328.644
328.66
328.676
328.69
328.702
328.713
328.723
328.732
328.74
328.747
328.752
328.757
328.761
328.764
328.767
328.768
328.769
328.77
328.77
328.77
328.77
328.77
328.773
328.784
328.797
328.809
328.82
328.831
328.844
328.859
328.882
328.945
329.16
323.135
323.613
324.071
324.464
324.802
325.097
325.354
325.582
325.784
325.964
326.123
326.269
326.403
326.528
326.644
326.751
326.851
326.944
327.031
327.113
327.19
327.262
327.331
327.395
327.455
327.51
327.561
327.613
327.672
327.74
327.813
327.877
327.92
327.941
327.952
327.986
328.043
328.044
328.019
328.035
328.049
328.08
328.148
328.143
328.136
328.191
328.242
328.271
328.275
328.271
328.275
328.294
328.324
328.358
328.39
328.419
328.445
328.469
328.493
328.515
328.535
328.553
328.57
328.586
328.6
328.613
328.624
328.635
328.644
328.653
328.66
328.667
328.673
328.678
328.682
328.687
328.69
328.694
328.698
328.702
328.708
328.715
328.724
328.734
328.745
328.759
328.775
328.801
328.878
329.139
322.929
323.399
323.851
324.238
324.572
324.863
325.117
325.342
325.543
325.722
325.884
326.031
326.165
326.289
326.403
326.509
326.607
326.699
326.785
326.865
326.941
327.012
327.08
327.145
327.207
327.265
327.317
327.368
327.422
327.486
327.557
327.625
327.676
327.703
327.716
327.746
327.797
327.797
327.772
327.781
327.784
327.801
327.855
327.848
327.839
327.888
327.929
327.945
327.943
327.938
327.946
327.969
328.001
328.032
328.061
328.087
328.113
328.137
328.159
328.18
328.198
328.215
328.229
328.243
328.254
328.264
328.273
328.28
328.287
328.293
328.298
328.303
328.307
328.311
328.316
328.32
328.325
328.33
328.336
328.343
328.351
328.361
328.373
328.388
328.405
328.424
328.447
328.481
328.572
328.845
322.724
323.186
323.632
324.014
324.343
324.63
324.881
325.103
325.301
325.479
325.64
325.786
325.919
326.041
326.154
326.259
326.356
326.447
326.532
326.612
326.687
326.758
326.826
326.891
326.954
327.015
327.073
327.126
327.18
327.24
327.307
327.374
327.429
327.461
327.475
327.502
327.548
327.543
327.494
327.483
327.457
327.441
327.48
327.454
327.425
327.455
327.474
327.471
327.455
327.443
327.446
327.458
327.474
327.487
327.498
327.509
327.519
327.528
327.536
327.542
327.546
327.55
327.553
327.557
327.56
327.564
327.568
327.573
327.579
327.586
327.594
327.603
327.613
327.624
327.636
327.649
327.663
327.678
327.694
327.711
327.73
327.75
327.773
327.798
327.825
327.854
327.887
327.935
328.034
328.289
322.521
322.975
323.415
323.792
324.117
324.4
324.648
324.867
325.063
325.238
325.397
325.542
325.673
325.795
325.907
326.01
326.107
326.197
326.282
326.362
326.436
326.507
326.574
326.638
326.703
326.767
326.83
326.891
326.949
327.009
327.073
327.139
327.195
327.228
327.242
327.265
327.307
327.295
327.292
327.219
327.104
326.986
326.864
326.769
326.685
326.667
326.643
326.603
326.559
326.526
326.506
326.493
326.483
326.476
326.473
326.477
326.487
326.5
326.515
326.532
326.55
326.57
326.592
326.615
326.64
326.665
326.691
326.718
326.745
326.773
326.802
326.831
326.86
326.889
326.919
326.948
326.978
327.008
327.038
327.069
327.1
327.132
327.165
327.2
327.236
327.274
327.316
327.373
327.474
327.704
322.324
322.77
323.204
323.576
323.897
324.176
324.421
324.637
324.83
325.004
325.161
325.304
325.434
325.554
325.665
325.768
325.864
325.954
326.038
326.118
326.193
326.263
326.329
326.393
326.457
326.523
326.591
326.659
326.726
326.791
326.856
326.922
326.981
327.016
327.029
327.047
327.082
327.03
326.622
326.315
325.943
325.621
325.622
325.446
325.311
325.27
325.242
325.216
325.199
325.199
325.213
325.235
325.265
325.302
325.349
325.404
325.462
325.521
325.579
325.635
325.69
325.745
325.798
325.85
325.901
325.95
325.999
326.047
326.094
326.139
326.184
326.228
326.271
326.314
326.355
326.396
326.436
326.475
326.514
326.552
326.591
326.63
326.67
326.711
326.752
326.795
326.843
326.904
327.004
327.212
322.138
322.577
323.005
323.372
323.689
323.964
324.206
324.42
324.611
324.783
324.938
325.079
325.209
325.328
325.438
325.54
325.635
325.725
325.809
325.888
325.963
326.034
326.1
326.164
326.226
326.29
326.359
326.433
326.507
326.58
326.651
326.721
326.786
326.83
326.847
326.862
326.889
326.799
326.92
326.072
325.27
324.718
323.852
323.714
323.692
323.78
323.881
323.981
324.081
324.184
324.284
324.379
324.473
324.569
324.667
324.763
324.856
324.942
325.023
325.099
325.172
325.241
325.306
325.37
325.43
325.489
325.545
325.6
325.654
325.705
325.756
325.804
325.852
325.898
325.944
325.988
326.031
326.073
326.115
326.157
326.198
326.239
326.281
326.323
326.366
326.411
326.462
326.527
326.625
326.819
321.971
322.403
322.827
323.19
323.503
323.775
324.014
324.225
324.414
324.584
324.737
324.877
325.006
325.124
325.233
325.335
325.43
325.519
325.603
325.683
325.759
325.83
325.898
325.961
326.022
326.084
326.149
326.221
326.298
326.377
326.454
326.53
326.605
326.666
326.701
326.72
326.719
326.324
323.871
322.448
321.652
321.402
322.218
322.444
322.645
322.914
323.16
323.379
323.576
323.75
323.9
324.031
324.152
324.268
324.378
324.481
324.575
324.66
324.738
324.811
324.882
324.949
325.014
325.077
325.138
325.198
325.255
325.311
325.364
325.417
325.467
325.516
325.564
325.611
325.656
325.7
325.743
325.785
325.827
325.868
325.909
325.95
325.991
326.032
326.074
326.12
326.172
326.236
326.332
326.518
321.832
322.259
322.678
323.038
323.348
323.617
323.854
324.064
324.251
324.419
324.571
324.71
324.837
324.954
325.063
325.164
325.259
325.348
325.433
325.513
325.589
325.662
325.731
325.796
325.858
325.917
325.978
326.045
326.118
326.197
326.277
326.357
326.441
326.521
326.583
326.613
326.573
325.755
318.56
317.121
316.555
316.711
321.454
322.021
322.279
322.573
322.835
323.079
323.301
323.497
323.668
323.82
323.959
324.086
324.201
324.305
324.399
324.485
324.564
324.64
324.711
324.78
324.845
324.909
324.97
325.028
325.085
325.139
325.192
325.243
325.292
325.34
325.386
325.431
325.474
325.517
325.558
325.599
325.639
325.678
325.718
325.757
325.797
325.837
325.878
325.924
325.977
326.042
326.135
326.314
321.729
322.151
322.568
322.925
323.233
323.501
323.736
323.945
324.131
324.299
324.45
324.588
324.715
324.832
324.94
325.041
325.135
325.224
325.309
325.389
325.466
325.54
325.611
325.678
325.741
325.8
325.86
325.922
325.99
326.066
326.146
326.228
326.316
326.411
326.496
326.534
326.466
325.314
314.192
312.821
312.484
312.985
321.058
321.896
322.164
322.434
322.667
322.892
323.104
323.297
323.473
323.635
323.785
323.925
324.053
324.17
324.276
324.374
324.466
324.55
324.63
324.704
324.773
324.839
324.902
324.961
325.017
325.071
325.122
325.172
325.22
325.266
325.311
325.355
325.397
325.438
325.478
325.517
325.556
325.594
325.631
325.669
325.708
325.747
325.79
325.837
325.892
325.959
326.053
326.23
321.663
322.083
322.498
322.853
323.16
323.428
323.663
323.871
324.058
324.226
324.378
324.517
324.645
324.762
324.871
324.972
325.066
325.156
325.24
325.32
325.398
325.472
325.544
325.612
325.677
325.737
325.797
325.859
325.926
326.001
326.081
326.163
326.242
326.339
326.431
326.451
326.358
325.08
312.365
311.036
310.826
311.528
321.168
322.126
322.354
322.554
322.712
322.876
323.04
323.2
323.356
323.51
323.661
323.809
323.95
324.081
324.204
324.321
324.438
324.538
324.628
324.711
324.787
324.858
324.924
324.986
325.044
325.099
325.152
325.203
325.252
325.299
325.345
325.388
325.431
325.471
325.51
325.549
325.586
325.623
325.661
325.698
325.736
325.777
325.821
325.871
325.93
326.003
326.103
326.284
321.633
322.051
322.465
322.82
323.126
323.393
323.628
323.837
324.024
324.193
324.347
324.488
324.617
324.737
324.847
324.951
325.047
325.138
325.224
325.306
325.384
325.46
325.533
325.603
325.669
325.73
325.79
325.851
325.917
325.992
326.071
326.139
324.513
324.626
324.721
324.808
324.888
324.962
325.033
325.099
325.163
325.223
325.282
325.338
325.392
325.444
325.493
325.54
325.585
325.627
325.669
325.708
325.748
325.786
325.825
325.864
325.904
325.946
325.994
326.049
326.115
326.198
326.31
326.498
321.628
322.046
322.46
322.814
323.12
323.386
323.621
323.829
324.017
324.186
324.34
324.482
324.612
324.734
324.847
324.953
325.053
325.147
325.236
325.322
325.404
325.484
325.562
325.636
325.706
325.771
325.834
325.891
325.95
326.014
326.073
326.116
324.739
324.833
324.915
324.994
325.072
325.148
325.223
325.295
325.367
325.437
325.505
325.57
325.634
325.694
325.753
325.808
325.861
325.911
325.958
326.004
326.048
326.093
326.137
326.181
326.226
326.273
326.323
326.381
326.45
326.54
326.668
326.883
321.638
322.056
322.47
322.824
323.13
323.396
323.63
323.838
324.024
324.192
324.345
324.485
324.615
324.736
324.85
324.957
325.058
325.155
325.248
325.337
325.424
325.51
325.594
325.676
325.754
325.824
325.871
325.919
325.957
325.988
326.019
325.997
324.978
325.055
325.125
325.2
325.281
325.365
325.453
325.543
325.632
325.722
325.81
325.895
325.978
326.057
326.131
326.202
326.27
326.334
326.396
326.454
326.51
326.563
326.614
326.666
326.72
326.777
326.837
326.905
326.984
327.086
327.235
327.496
321.651
322.07
322.485
322.839
323.145
323.411
323.645
323.853
324.038
324.205
324.357
324.497
324.625
324.745
324.857
324.963
325.064
325.16
325.253
325.344
325.433
325.522
325.61
325.698
325.782
325.858
325.969
325.989
325.97
325.92
325.783
325.653
325.194
325.295
325.393
325.501
325.623
325.753
325.888
326.023
326.154
326.278
326.394
326.499
326.594
326.68
326.757
326.826
326.888
326.945
326.999
327.051
327.102
327.152
327.202
327.251
327.301
327.355
327.415
327.483
327.562
327.662
327.813
328.099
321.66
322.08
322.494
322.849
323.156
323.422
323.657
323.865
324.051
324.219
324.371
324.51
324.639
324.758
324.87
324.976
325.077
325.173
325.267
325.358
325.448
325.539
325.629
325.72
325.804
325.854
325.617
325.501
325.32
325.121
325.135
324.928
325.763
325.937
326.084
326.199
326.284
326.35
326.404
326.452
326.497
326.54
326.58
326.619
326.657
326.693
326.729
326.763
326.797
326.831
326.864
326.898
326.931
326.965
326.999
327.034
327.069
327.107
327.147
327.192
327.247
327.32
327.43
327.647
321.663
322.082
322.497
322.852
323.158
323.425
323.66
323.868
324.055
324.223
324.376
324.516
324.645
324.765
324.878
324.985
325.086
325.184
325.279
325.372
325.465
325.559
325.653
325.746
325.826
325.865
326.342
325.9
325.386
324.971
324.072
323.913
325.994
326.06
326.098
326.123
326.143
326.16
326.177
326.196
326.217
326.239
326.263
326.288
326.314
326.34
326.366
326.393
326.42
326.447
326.475
326.502
326.529
326.557
326.585
326.613
326.642
326.672
326.706
326.745
326.792
326.854
326.943
327.122
321.659
322.079
322.493
322.848
323.154
323.421
323.656
323.864
324.05
324.218
324.371
324.511
324.641
324.761
324.874
324.981
325.083
325.182
325.278
325.373
325.468
325.565
325.662
325.753
325.795
325.552
323.701
322.639
322.028
321.889
322.771
323.028
325.707
325.743
325.76
325.773
325.786
325.8
325.815
325.833
325.853
325.876
325.899
325.924
325.949
325.975
326.001
326.028
326.054
326.081
326.108
326.135
326.161
326.188
326.216
326.243
326.271
326.301
326.335
326.373
326.42
326.476
326.555
326.717
321.653
322.072
322.487
322.841
323.147
323.414
323.648
323.856
324.042
324.21
324.363
324.503
324.632
324.753
324.866
324.973
325.076
325.175
325.272
325.368
325.464
325.561
325.657
325.736
325.711
325.022
318.262
317.031
316.589
316.873
322.034
322.7
325.39
325.427
325.447
325.463
325.478
325.495
325.512
325.531
325.552
325.574
325.598
325.622
325.646
325.671
325.697
325.723
325.749
325.775
325.801
325.827
325.854
325.881
325.908
325.935
325.964
325.994
326.029
326.068
326.114
326.167
326.243
326.4
321.647
322.066
322.48
322.835
323.141
323.407
323.641
323.849
324.035
324.203
324.355
324.495
324.624
324.745
324.858
324.965
325.067
325.166
325.263
325.359
325.455
325.551
325.644
325.71
325.621
324.54
313.578
312.275
312.017
312.668
321.521
322.518
325.248
325.284
325.303
325.318
325.331
325.344
325.358
325.372
325.388
325.405
325.423
325.442
325.462
325.483
325.504
325.526
325.549
325.573
325.597
325.621
325.646
325.671
325.697
325.724
325.752
325.783
325.817
325.857
325.9
325.95
326.024
326.176
321.643
322.062
322.476
322.831
323.137
323.403
323.637
323.845
324.031
324.198
324.351
324.49
324.619
324.739
324.852
324.958
325.06
325.158
325.254
325.349
325.443
325.537
325.626
325.68
325.553
324.279
311.46
310.118
309.964
310.829
321.427
322.566
325.28
325.314
325.329
325.338
325.341
325.345
325.347
325.35
325.354
325.36
325.368
325.377
325.388
325.401
325.416
325.432
325.449
325.467
325.487
325.508
325.53
325.552
325.576
325.601
325.628
325.658
325.692
325.729
325.771
325.818
325.891
326.045
321.642
322.061
322.475
322.829
323.135
323.402
323.636
323.844
324.03
324.198
324.35
324.489
324.618
324.738
324.85
324.955
325.056
325.153
325.247
325.339
325.431
325.522
325.604
325.647
325.503
324.219
311.025
309.637
309.532
310.566
322.235
323.261
325.437
325.47
325.479
325.476
325.466
325.452
325.437
325.422
325.41
325.4
325.393
325.39
325.39
325.393
325.399
325.407
325.418
325.431
325.446
325.462
325.481
325.5
325.522
325.545
325.571
325.6
325.632
325.668
325.707
325.754
325.829
325.986
321.643
322.062
322.476
322.83
323.136
323.403
323.637
323.845
324.031
324.199
324.351
324.491
324.619
324.738
324.85
324.954
325.054
325.149
325.241
325.332
325.421
325.507
325.583
325.617
325.465
324.188
310.964
309.568
309.484
310.644
323.169
324.198
325.651
325.681
325.675
325.651
325.61
325.57
325.529
325.491
325.458
325.432
325.411
325.396
325.387
325.382
325.381
325.385
325.392
325.402
325.415
325.43
325.447
325.467
325.488
325.512
325.539
325.568
325.601
325.637
325.676
325.725
325.803
325.968
321.645
322.064
322.478
322.833
323.139
323.405
323.64
323.847
324.033
324.201
324.353
324.492
324.62
324.739
324.85
324.954
325.052
325.146
325.237
325.325
325.411
325.493
325.564
325.593
325.438
324.183
311.031
309.663
309.596
310.809
323.774
324.908
325.827
325.83
325.778
325.698
325.623
325.538
325.462
325.398
325.347
325.309
325.282
325.265
325.255
325.253
325.256
325.265
325.277
325.294
325.313