/*--------------------------------*- C++ -*----------------------------------*\
| =========                 |                                                 |
| \\      /  F ield         | OpenFOAM: The Open Source CFD Toolbox           |
|  \\    /   O peration     | Version:  v2012                                 |
|   \\  /    A nd           | Website:  www.openfoam.com                      |
|    \\/     M anipulation  |                                                 |
\*---------------------------------------------------------------------------*/
FoamFile
{
    version     2.0;
    format      ascii;
    class       volScalarField;
    location    "150/concrete";
    object      T;
}
// * * * * * * * * * * * * * * * * * * * * * * * * * * * * * * * * * * * * * //

dimensions      [0 0 0 1 0 0 0];


internalField   nonuniform List<scalar> 
1924
(
320.859
321.246
321.707
321.967
322.344
321.596
309.121
308.006
307.93
308.756
320.006
320.449
319.927
319.55
319.039
318.72
318.6
318.591
318.617
318.641
318.638
318.595
318.519
318.431
318.36
318.325
320.947
321.366
321.883
322.139
322.753
322.244
310.17
309.078
309.002
309.897
321.807
322.22
321.404
320.856
320.11
319.623
319.392
319.297
319.244
319.197
319.136
319.043
318.918
318.781
318.662
318.588
320.935
321.274
321.742
322.025
323.088
322.703
310.37
309.181
309.138
310.238
322.825
323.259
321.919
321.223
320.32
319.734
319.497
319.432
319.414
319.395
319.353
319.274
319.157
319.021
318.895
318.812
320.704
320.88
321.201
321.463
322.432
321.917
311.31
310.22
310.211
311.405
323.517
324.594
322.816
321.693
320.277
319.383
319.054
319.052
319.121
319.188
319.223
319.212
319.157
319.073
318.987
318.933
320.176
320.272
320.461
319.602
302.322
299.94
298.412
298.037
298.039
298.444
300.13
302.55
320.272
320.679
319.739
319.068
318.784
318.728
318.754
318.82
318.901
318.97
318.988
318.966
318.929
318.91
319.565
319.846
320.32
319.411
299.829
297.06
296.408
296.249
296.248
296.406
297.056
299.767
319.591
320.4
319.615
319.016
318.748
318.665
318.66
318.693
318.747
318.802
318.864
318.9
318.901
318.9
319.052
319.581
320.309
319.55
299.441
296.57
296.021
295.91
295.907
296.01
296.528
299.297
319.39
320.242
319.509
318.937
318.68
318.607
318.6
318.628
318.681
318.749
318.833
318.892
318.912
318.927
318.742
319.393
320.256
319.653
299.383
296.48
295.944
295.841
295.838
295.93
296.428
299.207
319.327
320.17
319.475
318.951
318.741
318.686
318.678
318.698
318.748
318.819
318.911
318.977
319.01
319.048
318.457
319.113
319.984
319.483
299.342
296.456
295.926
295.825
295.822
295.911
296.406
299.189
319.345
320.186
319.56
319.138
318.98
318.935
318.917
318.92
318.952
319.01
319.092
319.155
319.205
319.28
318.321
318.821
319.531
319.047
299.27
296.443
295.922
295.82
295.815
295.902
296.395
299.181
319.407
320.321
319.851
319.579
319.44
319.365
319.307
319.273
319.27
319.304
319.354
319.416
319.502
319.629
318.56
318.686
318.998
318.428
299.222
296.492
295.977
295.861
295.845
295.927
296.415
299.186
319.407
320.525
320.296
320.072
319.94
319.85
319.748
319.671
319.633
319.627
319.657
319.747
319.896
320.083
319.073
318.862
318.618
317.698
299.628
297.106
296.572
296.38
296.298
296.343
296.807
299.461
319.201
320.578
320.374
320.182
320.066
320.007
319.966
319.92
319.884
319.877
319.943
320.112
320.366
320.618
319.602
319.319
318.766
317.377
304.812
303.131
302.447
301.875
301.389
300.934
301.096
302.994
318.19
319.602
319.765
319.783
319.807
319.852
319.903
319.942
319.968
320.02
320.171
320.469
320.874
321.2
319.914
319.709
319.217
317.755
305.375
303.92
303.439
303.144
302.94
302.867
303.087
304.467
317.529
318.95
319.286
319.46
319.61
319.752
319.878
319.974
320.046
320.144
320.374
320.805
321.378
321.784
320.082
319.952
319.568
318.123
305.337
303.961
303.589
303.39
303.264
303.225
303.401
304.666
317.717
319.113
319.439
319.603
319.74
319.873
319.994
320.091
320.167
320.276
320.539
321.055
321.76
322.205
320.196
320.109
319.819
318.452
305.349
303.996
303.679
303.524
303.437
303.425
303.599
304.83
317.921
319.277
319.577
319.729
319.859
319.984
320.098
320.193
320.267
320.368
320.62
321.142
321.899
322.383
320.301
320.229
320
318.789
306.596
305.344
305.069
304.945
304.881
304.881
305.041
306.169
318.297
319.533
319.798
319.933
320.05
320.16
320.259
320.342
320.408
320.486
320.679
321.11
321.784
322.029
320.398
320.338
320.169
319.241
309.819
308.837
308.627
308.539
308.496
308.496
308.619
309.502
318.889
319.858
320.066
320.173
320.268
320.357
320.438
320.51
320.569
320.627
320.744
321.023
321.498
321.354
320.471
320.428
320.324
319.763
314.27
313.671
313.547
313.501
313.48
313.481
313.559
314.102
319.596
320.201
320.341
320.416
320.484
320.549
320.611
320.669
320.723
320.771
320.829
320.946
321.133
320.506
320.516
320.491
320.446
320.218
318.269
318.023
317.977
317.968
317.967
317.971
318.012
318.245
320.213
320.484
320.561
320.609
320.654
320.699
320.743
320.787
320.833
320.878
320.914
320.924
320.829
319.719
320.543
320.531
320.525
320.505
320.634
320.61
320.614
320.629
320.64
320.649
320.665
320.703
320.601
320.663
320.7
320.731
320.762
320.795
320.828
320.862
320.898
320.937
320.97
320.96
320.746
319.368
320.564
320.559
320.572
320.63
321.358
321.418
321.445
321.47
321.488
321.498
321.503
321.469
320.769
320.755
320.774
320.797
320.822
320.85
320.879
320.907
320.936
320.965
320.989
320.98
320.796
319.464
320.59
320.588
320.606
320.664
321.185
321.244
321.276
321.303
321.322
321.333
321.336
321.303
320.814
320.801
320.817
320.837
320.861
320.887
320.914
320.941
320.968
320.992
321.01
320.99
320.792
319.46
320.627
320.626
320.643
320.679
320.849
320.884
320.913
320.939
320.957
320.97
320.976
320.966
320.831
320.842
320.86
320.879
320.902
320.926
320.953
320.979
321.004
321.026
321.041
321.023
320.842
319.614
320.675
320.675
320.692
320.714
320.691
320.709
320.734
320.756
320.775
320.789
320.8
320.808
320.869
320.897
320.915
320.933
320.955
320.978
321.003
321.028
321.052
321.073
321.087
321.073
320.926
319.934
320.735
320.737
320.755
320.776
320.718
320.73
320.752
320.772
320.79
320.807
320.822
320.838
320.937
320.969
320.986
321.003
321.022
321.043
321.066
321.09
321.114
321.134
321.148
321.142
321.047
320.395
320.808
320.812
320.834
320.858
320.828
320.84
320.861
320.88
320.898
320.916
320.934
320.952
321.025
321.056
321.071
321.086
321.104
321.123
321.144
321.166
321.188
321.208
321.223
321.226
321.182
320.871
320.896
320.903
320.927
320.956
320.952
320.965
320.985
321.003
321.021
321.041
321.061
321.08
321.129
321.159
321.172
321.184
321.2
321.218
321.237
321.257
321.278
321.297
321.313
321.323
321.318
321.249
321.002
321.011
321.038
321.069
321.075
321.087
321.106
321.124
321.143
321.164
321.185
321.205
321.246
321.276
321.289
321.3
321.313
321.329
321.347
321.366
321.385
321.403
321.419
321.434
321.449
321.497
321.128
321.139
321.168
321.199
321.204
321.216
321.234
321.254
321.273
321.294
321.316
321.337
321.38
321.411
321.425
321.435
321.447
321.461
321.477
321.494
321.512
321.528
321.544
321.561
321.582
321.655
321.275
321.289
321.318
321.349
321.352
321.363
321.382
321.403
321.423
321.444
321.466
321.488
321.534
321.566
321.581
321.591
321.602
321.615
321.629
321.645
321.661
321.677
321.692
321.708
321.729
321.787
321.446
321.461
321.49
321.519
321.524
321.535
321.555
321.576
321.598
321.619
321.641
321.664
321.709
321.742
321.759
321.77
321.781
321.793
321.806
321.82
321.835
321.849
321.864
321.879
321.898
321.938
321.64
321.656
321.685
321.713
321.719
321.732
321.753
321.775
321.798
321.82
321.842
321.865
321.907
321.94
321.96
321.973
321.984
321.995
322.007
322.02
322.034
322.047
322.061
322.076
322.093
322.124
321.858
321.874
321.902
321.929
321.939
321.954
321.976
322
322.023
322.046
322.068
322.091
322.13
322.162
322.183
322.199
322.212
322.223
322.234
322.246
322.259
322.272
322.285
322.298
322.314
322.343
322.102
322.116
322.143
322.17
322.184
322.202
322.225
322.249
322.273
322.296
322.32
322.343
322.378
322.408
322.43
322.449
322.464
322.476
322.488
322.499
322.511
322.523
322.535
322.548
322.562
322.591
322.372
322.386
322.413
322.439
322.457
322.478
322.502
322.527
322.552
322.576
322.6
322.623
322.654
322.683
322.706
322.726
322.743
322.758
322.77
322.782
322.793
322.805
322.817
322.828
322.841
322.87
322.685
322.701
322.727
322.754
322.776
322.8
322.825
322.85
322.876
322.9
322.925
322.949
322.977
323.004
323.028
323.049
323.068
323.085
323.098
323.111
323.123
323.134
323.145
323.156
323.167
323.192
322.568
323.002
323.515
323.789
324.272
323.884
309.389
308.596
308.53
309.061
322.184
322.27
321.635
321.236
320.677
320.341
320.225
320.228
320.268
320.303
320.31
320.272
320.195
320.101
320.019
319.969
322.662
323.132
323.707
323.961
324.71
324.592
310.609
309.844
309.77
310.34
324.182
324.226
323.277
322.713
321.901
321.392
321.16
321.068
321.013
320.962
320.896
320.797
320.662
320.512
320.376
320.281
322.636
323.017
323.531
323.809
325.121
325.135
310.744
309.845
309.804
310.6
325.277
325.331
323.76
323.064
322.095
321.477
321.239
321.181
321.167
321.15
321.109
321.028
320.906
320.761
320.625
320.525
322.369
322.567
322.917
323.274
325.051
324.93
312.395
311.51
311.495
312.459
326.766
327.56
324.946
323.675
322.047
321.049
320.655
320.686
320.774
320.863
320.915
320.917
320.868
320.786
320.699
320.636
321.765
321.88
322.139
321.736
301.14
299.023
297.666
297.345
297.347
297.694
299.193
301.351
322.632
322.551
321.447
320.712
320.403
320.336
320.35
320.408
320.493
320.58
320.619
320.607
320.577
320.558
321.072
321.403
322.024
321.723
298.912
296.456
295.897
295.762
295.761
295.895
296.452
298.863
322.085
322.315
321.35
320.685
320.394
320.297
320.279
320.302
320.351
320.406
320.474
320.524
320.536
320.534
320.504
321.111
322.022
321.933
298.582
296.035
295.566
295.472
295.47
295.557
295.999
298.46
321.914
322.156
321.24
320.599
320.314
320.229
320.21
320.228
320.276
320.342
320.43
320.503
320.531
320.546
320.185
320.914
321.969
322.062
298.533
295.959
295.501
295.414
295.411
295.489
295.915
298.384
321.858
322.083
321.207
320.613
320.377
320.308
320.287
320.296
320.338
320.406
320.505
320.581
320.621
320.658
319.892
320.616
321.675
321.879
298.498
295.939
295.486
295.4
295.397
295.473
295.896
298.369
321.885
322.105
321.305
320.826
320.646
320.584
320.548
320.535
320.557
320.609
320.696
320.765
320.819
320.894
319.762
320.31
321.188
321.402
298.435
295.928
295.482
295.396
295.391
295.465
295.887
298.363
321.967
322.268
321.643
321.337
321.175
321.077
320.994
320.937
320.916
320.941
320.988
321.05
321.138
321.267
320.055
320.181
320.611
320.719
298.391
295.97
295.529
295.431
295.417
295.487
295.905
298.367
321.977
322.515
322.166
321.895
321.739
321.631
321.502
321.398
321.34
321.318
321.337
321.424
321.577
321.765
320.652
320.407
320.202
319.869
298.763
296.526
296.068
295.904
295.832
295.866
296.261
298.621
321.753
322.592
322.231
321.99
321.853
321.783
321.734
321.676
321.626
321.605
321.663
321.836
322.103
322.355
321.257
320.946
320.397
319.343
305.066
303.73
303.099
302.522
302.02
301.466
301.405
302.946
320.423
321.416
321.501
321.506
321.531
321.582
321.639
321.681
321.706
321.754
321.908
322.224
322.659
322.985
321.601
321.387
320.924
319.774
305.553
304.435
304.013
303.731
303.523
303.419
303.56
304.576
319.586
320.667
320.953
321.133
321.3
321.461
321.601
321.707
321.783
321.882
322.121
322.582
323.199
323.6
321.779
321.654
321.319
320.198
305.462
304.43
304.119
303.927
303.795
303.737
303.841
304.744
319.798
320.858
321.13
321.294
321.443
321.59
321.724
321.831
321.91
322.018
322.292
322.841
323.602
324.035
321.896
321.821
321.592
320.564
305.41
304.401
304.143
303.993
303.902
303.876
303.983
304.86
320.003
321.023
321.266
321.418
321.56
321.698
321.825
321.93
322.009
322.109
322.368
322.921
323.739
324.2
322.003
321.945
321.776
320.883
306.749
305.809
305.589
305.469
305.401
305.389
305.489
306.295
320.359
321.288
321.501
321.636
321.763
321.884
321.995
322.088
322.159
322.238
322.433
322.885
323.624
323.895
322.103
322.056
321.935
321.258
310.352
309.612
309.446
309.363
309.317
309.308
309.383
310.015
320.888
321.618
321.786
321.893
321.996
322.095
322.186
322.267
322.333
322.394
322.511
322.801
323.346
323.353
322.177
322.146
322.075
321.67
315.367
314.919
314.824
314.784
314.762
314.757
314.805
315.195
321.504
321.964
322.078
322.154
322.229
322.303
322.372
322.439
322.5
322.553
322.613
322.736
322.988
322.619
322.223
322.208
322.18
322.02
319.858
319.68
319.65
319.646
319.647
319.65
319.677
319.846
322.033
322.244
322.311
322.361
322.411
322.463
322.513
322.564
322.618
322.67
322.712
322.732
322.691
321.884
322.249
322.247
322.247
322.24
322.475
322.464
322.476
322.495
322.51
322.52
322.534
322.565
322.362
322.419
322.457
322.49
322.527
322.565
322.604
322.644
322.687
322.733
322.775
322.783
322.63
321.588
322.272
322.276
322.29
322.339
323.229
323.28
323.31
323.339
323.361
323.374
323.382
323.362
322.507
322.508
322.533
322.56
322.59
322.623
322.658
322.692
322.727
322.762
322.794
322.806
322.698
321.735
322.302
322.308
322.326
322.375
322.986
323.036
323.071
323.101
323.124
323.138
323.145
323.126
322.552
322.557
322.578
322.603
322.632
322.664
322.697
322.73
322.762
322.792
322.818
322.817
322.69
321.721
322.344
322.351
322.37
322.404
322.59
322.622
322.654
322.682
322.705
322.72
322.73
322.728
322.582
322.604
322.626
322.651
322.678
322.709
322.741
322.773
322.804
322.832
322.854
322.853
322.74
321.848
322.4
322.409
322.429
322.453
322.415
322.434
322.463
322.489
322.51
322.528
322.542
322.553
322.635
322.669
322.691
322.714
322.74
322.769
322.8
322.831
322.861
322.888
322.908
322.909
322.818
322.099
322.471
322.481
322.504
322.529
322.456
322.472
322.497
322.521
322.542
322.562
322.581
322.598
322.717
322.754
322.774
322.795
322.82
322.847
322.876
322.905
322.934
322.96
322.98
322.986
322.93
322.462
322.557
322.57
322.596
322.625
322.59
322.605
322.629
322.651
322.672
322.694
322.717
322.736
322.821
322.857
322.875
322.894
322.916
322.941
322.968
322.995
323.023
323.048
323.069
323.081
323.06
322.843
322.661
322.677
322.706
322.74
322.736
322.751
322.774
322.795
322.817
322.84
322.865
322.886
322.942
322.976
322.993
323.01
323.03
323.053
323.078
323.103
323.129
323.153
323.175
323.192
323.198
323.158
322.786
322.805
322.836
322.872
322.879
322.893
322.915
322.936
322.958
322.983
323.008
323.031
323.079
323.114
323.13
323.145
323.163
323.184
323.207
323.231
323.255
323.278
323.3
323.32
323.34
323.385
322.932
322.954
322.988
323.024
323.03
323.043
323.064
323.086
323.109
323.134
323.16
323.184
323.235
323.271
323.289
323.302
323.318
323.337
323.359
323.381
323.403
323.426
323.447
323.469
323.493
323.555
323.103
323.127
323.161
323.196
323.201
323.213
323.235
323.258
323.282
323.307
323.333
323.358
323.412
323.45
323.469
323.483
323.498
323.515
323.534
323.555
323.576
323.597
323.618
323.64
323.664
323.714
323.297
323.323
323.358
323.392
323.396
323.41
323.432
323.457
323.482
323.507
323.533
323.559
323.612
323.651
323.672
323.688
323.703
323.718
323.736
323.755
323.775
323.795
323.816
323.837
323.859
323.895
323.517
323.543
323.577
323.609
323.617
323.632
323.656
323.682
323.708
323.733
323.76
323.786
323.836
323.875
323.898
323.916
323.932
323.947
323.963
323.981
324
324.019
324.039
324.059
324.08
324.11
323.759
323.785
323.818
323.849
323.861
323.879
323.904
323.931
323.958
323.984
324.011
324.037
324.083
324.121
324.147
324.167
324.184
324.2
324.216
324.233
324.251
324.269
324.288
324.307
324.327
324.355
324.024
324.05
324.082
324.112
324.128
324.149
324.176
324.203
324.231
324.258
324.286
324.312
324.354
324.39
324.417
324.44
324.459
324.476
324.493
324.509
324.527
324.545
324.563
324.581
324.599
324.627
324.314
324.339
324.37
324.4
324.421
324.444
324.472
324.501
324.529
324.557
324.585
324.613
324.65
324.684
324.712
324.737
324.759
324.778
324.796
324.813
324.83
324.848
324.865
324.882
324.899
324.926
324.638
324.664
324.694
324.725
324.75
324.777
324.806
324.835
324.864
324.893
324.922
324.95
324.984
325.016
325.045
325.071
325.096
325.117
325.136
325.154
325.172
325.19
325.207
325.222
325.238
325.262
)
;

boundaryField
{
    concrete_to_air
    {
        type            compressible::turbulentTemperatureRadCoupledMixed;
        refValue        nonuniform List<scalar> 
898
(
312.359
312.398
312.428
312.446
312.478
312.515
312.318
312.088
311.84
311.616
311.611
311.613
311.617
311.621
311.612
311.592
311.566
311.533
311.495
311.449
311.397
311.34
311.281
311.222
311.167
311.118
312.364
312.371
312.355
312.324
312.345
312.389
312.242
312.108
311.984
311.874
311.968
312.047
312.101
312.139
312.153
312.143
312.102
312.035
311.951
311.859
311.764
311.669
311.576
311.487
311.404
311.33
312.304
312.255
312.183
312.121
312.167
312.242
312.083
311.934
311.804
311.697
311.854
312.004
312.128
312.205
312.221
312.219
312.217
312.184
312.126
312.05
311.965
311.875
311.785
311.697
311.615
311.54
312.138
312.044
311.949
311.921
312.051
312.224
312.029
311.848
311.705
311.627
312.184
312.729
312.499
312.243
311.859
311.677
311.663
311.804
311.882
311.913
311.897
311.857
311.806
311.752
311.696
311.642
311.877
311.797
311.75
311.816
311.752
311.515
311.352
311.276
311.253
311.261
311.282
311.305
311.323
311.324
311.314
311.305
311.299
311.295
311.603
311.587
311.632
311.816
311.541
311.288
311.127
311.036
310.985
310.955
310.942
310.939
310.939
310.937
310.939
310.955
310.968
310.98
311.354
311.408
311.536
311.841
311.444
311.178
311.013
310.903
310.836
310.8
310.781
310.773
310.771
310.771
310.778
310.798
310.814
310.828
311.124
311.222
311.409
311.808
311.402
311.147
310.988
310.873
310.807
310.769
310.747
310.735
310.73
310.728
310.737
310.757
310.773
310.789
310.875
310.992
311.198
311.639
311.439
311.207
311.066
310.966
310.896
310.848
310.815
310.793
310.78
310.772
310.779
310.796
310.811
310.827
310.804
310.917
311.103
311.485
311.559
311.4
311.294
311.211
311.119
311.046
310.99
310.949
310.919
310.903
310.905
310.913
310.925
310.941
310.92
310.971
311.076
311.349
311.711
311.611
311.502
311.365
311.292
311.244
311.189
311.144
311.113
311.101
311.096
311.099
311.109
311.125
311.128
311.12
311.131
311.279
311.876
311.741
311.389
311.245
311.208
311.216
311.233
311.242
311.251
311.259
311.27
311.287
311.31
311.337
311.328
311.303
311.263
311.291
311.055
310.763
310.441
310.089
309.702
309.256
308.93
309.038
310.389
310.623
310.765
310.878
310.978
311.069
311.151
311.222
311.282
311.334
311.382
311.43
311.482
311.533
311.493
311.487
311.449
311.414
311.196
310.986
310.785
310.596
310.419
310.259
310.129
310.031
310.253
310.453
310.63
310.787
310.928
311.054
311.168
311.269
311.359
311.44
311.516
311.591
311.668
311.739
311.648
311.661
311.645
311.606
311.389
311.191
311.009
310.843
310.69
310.55
310.426
310.327
310.488
310.646
310.794
310.934
311.066
311.191
311.308
311.418
311.52
311.615
311.706
311.797
311.886
311.95
311.83
311.847
311.847
311.826
311.611
311.413
311.234
311.071
310.922
310.788
310.667
310.567
310.703
310.842
310.978
311.112
311.242
311.369
311.491
311.608
311.719
311.823
311.923
312.021
312.104
312.116
312.033
312.048
312.055
312.049
311.855
311.673
311.506
311.354
311.216
311.092
310.981
310.89
311.011
311.139
311.269
311.397
311.524
311.648
311.768
311.883
311.99
312.091
312.186
312.267
312.312
312.202
312.21
312.227
312.242
312.247
312.104
311.965
311.837
311.721
311.616
311.524
311.445
311.384
311.486
311.595
311.707
311.818
311.929
312.036
312.139
312.237
312.328
312.412
312.489
312.546
312.556
312.386
312.318
312.344
312.368
312.387
312.316
312.244
312.177
312.118
312.067
312.025
311.993
311.976
312.053
312.136
312.219
312.303
312.384
312.463
312.539
312.609
312.675
312.734
312.786
312.817
312.796
312.583
312.358
312.392
312.424
312.455
312.451
312.445
312.439
312.436
312.438
312.444
312.457
312.478
312.531
312.586
312.641
312.696
312.749
312.8
312.848
312.892
312.934
312.971
313.004
313.018
312.981
312.753
312.358
312.396
312.434
312.471
312.508
312.543
312.577
312.611
312.645
312.682
312.72
312.761
312.799
312.836
312.872
312.908
312.943
312.976
313.007
313.036
313.063
313.088
313.11
313.129
313.125
313.052
312.348
312.388
312.427
312.467
312.516
312.565
312.612
312.659
312.705
312.751
312.797
312.842
312.873
312.903
312.933
312.962
312.989
313.016
313.041
313.064
313.086
313.107
313.126
313.142
313.151
313.131
312.344
312.383
312.422
312.461
312.508
312.555
312.6
312.645
312.69
312.733
312.776
312.817
312.848
312.879
312.909
312.937
312.965
312.991
313.016
313.04
313.062
313.083
313.102
313.119
313.133
313.131
312.346
312.385
312.423
312.462
312.502
312.543
312.583
312.623
312.662
312.701
312.738
312.775
312.808
312.841
312.872
312.903
312.932
312.96
312.987
313.012
313.036
313.058
313.078
313.097
313.112
313.116
312.352
312.391
312.429
312.467
312.504
312.541
312.577
312.614
312.65
312.685
312.72
312.755
312.789
312.823
312.855
312.887
312.918
312.947
312.974
313.001
313.025
313.048
313.07
313.089
313.105
313.112
312.361
312.399
312.437
312.475
312.511
312.547
312.583
312.618
312.654
312.688
312.723
312.757
312.791
312.825
312.858
312.89
312.921
312.95
312.978
313.005
313.03
313.053
313.075
313.094
313.112
313.122
312.372
312.41
312.448
312.486
312.523
312.559
312.595
312.631
312.666
312.701
312.736
312.77
312.804
312.838
312.871
312.902
312.933
312.962
312.99
313.017
313.042
313.066
313.087
313.107
313.125
313.139
312.385
312.424
312.462
312.5
312.537
312.574
312.61
312.646
312.682
312.717
312.752
312.787
312.821
312.855
312.887
312.919
312.949
312.979
313.007
313.033
313.059
313.082
313.104
313.124
313.143
313.159
312.402
312.441
312.479
312.517
312.555
312.592
312.629
312.665
312.701
312.736
312.771
312.806
312.84
312.874
312.907
312.938
312.969
312.998
313.026
313.053
313.078
313.102
313.124
313.144
313.163
313.18
312.423
312.462
312.501
312.539
312.577
312.614
312.65
312.687
312.723
312.758
312.794
312.828
312.863
312.897
312.93
312.962
312.993
313.022
313.05
313.077
313.103
313.126
313.149
313.169
313.188
313.205
312.448
312.487
312.526
312.565
312.603
312.64
312.677
312.714
312.75
312.786
312.821
312.856
312.891
312.925
312.958
312.99
313.021
313.051
313.08
313.107
313.132
313.156
313.179
313.199
313.218
313.236
312.477
312.517
312.556
312.595
312.634
312.672
312.709
312.746
312.782
312.818
312.854
312.889
312.924
312.959
312.992
313.025
313.056
313.086
313.115
313.142
313.168
313.192
313.215
313.236
313.255
313.272
312.511
312.552
312.592
312.631
312.67
312.708
312.746
312.783
312.82
312.857
312.893
312.928
312.964
312.998
313.032
313.065
313.097
313.127
313.157
313.184
313.21
313.235
313.258
313.279
313.298
313.315
312.55
312.591
312.632
312.672
312.711
312.75
312.789
312.826
312.864
312.901
312.938
312.974
313.009
313.044
313.079
313.112
313.144
313.175
313.205
313.233
313.259
313.284
313.307
313.329
313.348
313.365
312.594
312.636
312.677
312.718
312.758
312.798
312.837
312.875
312.914
312.951
312.988
313.025
313.061
313.097
313.132
313.166
313.198
313.23
313.26
313.288
313.315
313.34
313.364
313.386
313.405
313.422
312.643
312.686
312.728
312.77
312.811
312.851
312.891
312.931
312.969
313.008
313.046
313.083
313.12
313.156
313.192
313.226
313.259
313.291
313.322
313.351
313.379
313.404
313.428
313.45
313.47
313.488
312.698
312.742
312.786
312.828
312.87
312.912
312.952
312.993
313.033
313.072
313.111
313.149
313.187
313.223
313.26
313.295
313.329
313.361
313.392
313.422
313.45
313.477
313.501
313.524
313.544
313.561
)
;
        refGradient     nonuniform List<scalar> 
898
(
49.3771
51.0575
53.3251
54.8541
58.0428
62.7869
-7.34203
-4.36683
-4.41113
-7.30115
68.7014
65.0661
62.0588
60.6193
57.9314
56.4969
56.153
56.3424
56.6772
57.0315
57.3531
57.596
57.7572
57.8904
58.0542
58.2367
49.6822
51.9621
55.3658
57.8721
62.7864
68.6965
-1.34153
1.82629
1.98432
-1.12558
68.6196
62.755
58.1628
56.3663
53.2153
51.7275
51.7625
52.5606
53.5266
54.4522
55.2532
55.8644
56.282
56.5793
56.8512
57.1238
50.2611
53.0574
57.6673
61.2482
69.4233
75.1124
-1.93014
0.380259
0.783921
-1.15765
74.061
67.1685
58.3861
56.0789
52.6794
51.1876
51.1877
51.8994
52.7621
53.615
54.3815
54.9795
55.3868
55.6648
55.9126
56.1654
51.7102
54.8192
59.9321
64.0657
83.2562
86.7763
14.7263
15.7288
15.9824
14.9289
79.0082
71.4313
52.9079
52.8845
52.6799
53.0388
53.3332
53.8207
54.2354
54.6463
55.0271
55.3247
55.5072
55.6032
55.676
55.7587
53.8366
56.4751
60.4818
65.486
57.2164
54.0935
53.6677
53.5963
54.4807
55.6088
56.3544
56.6652
56.6281
56.545
56.4983
56.4089
56.2954
56.1744
56.688
58.343
60.8463
64.9601
59.2224
55.1651
54.1879
54.0159
54.9062
56.1129
56.9803
57.4413
57.6164
57.6471
57.34
57.0019
56.7397
56.4898
58.0744
58.7792
60.1546
63.5551
59.6362
55.2268
54.1681
54.2162
55.2531
56.4001
57.1687
57.5424
57.6682
57.6391
57.3153
56.9654
56.6719
56.3841
57.9858
58.4999
59.4771
62.479
59.5478
54.7834
53.6508
53.9107
55.0224
56.1273
56.7766
57.0182
57.0414
56.9422
56.6206
56.3346
56.1083
55.9052
57.9108
58.3058
59.3056
62.5347
58.8597
53.4175
52.2506
52.6944
53.9768
55.1232
55.7403
55.9193
55.8814
55.7311
55.4734
55.3408
55.2975
55.3164
57.7083
57.7567
58.9607
63.3265
57.3713
50.6772
49.6144
50.283
51.8983
53.2325
54.0007
54.281
54.3055
54.181
54.144
54.2764
54.5415
54.8803
56.3811
56.439
57.8695
63.7568
55.0003
46.8872
46.2998
47.8683
49.5678
50.8764
51.8738
52.3913
52.5446
52.6317
52.8691
53.3296
54.0107
54.673
54.1069
54.6961
56.375
62.636
52.0097
44.4141
46.0566
47.9791
49.3325
50.2032
50.7759
51.1403
51.3038
51.4476
51.8097
52.5689
53.6785
54.5335
52.2041
53.2498
54.8307
57.3276
-21.8445
-19.5608
-18.2689
-16.7121
-14.8159
-12.4369
-12.7064
-15.568
51.5477
49.9317
50.4685
50.8652
51.0763
51.1602
51.1343
50.9987
50.7946
50.6863
51.0042
51.9775
53.4636
54.3248
50.6012
51.3662
53.0048
56.6071
-20.2764
-18.1084
-17.6444
-17.1888
-16.6621
-16.2671
-16.0452
-17.8829
56.6417
53.6969
52.8894
52.3626
51.9397
51.5737
51.2031
50.7743
50.2959
49.96
50.2135
51.3685
53.233
54.0222
49.8666
50.2045
51.2952
55.0369
-20.3763
-18.0321
-17.6725
-17.445
-17.1076
-16.6941
-16.4786
-18.5288
55.9787
52.8523
52.0441
51.6072
51.2742
50.9761
50.6479
50.2279
49.7049
49.2713
49.455
50.6999
52.909
53.771
49.5532
49.6832
50.3928
53.8466
-20.7233
-18.2372
-17.9068
-17.822
-17.6096
-17.2762
-17.1883
-19.4269
55.6612
52.5644
51.771
51.3796
51.0827
50.7948
50.4655
50.0454
49.5034
48.9773
48.9667
50.0334
52.33
53.3423
49.4123
49.4513
49.9299
52.8809
-15.2881
-12.8751
-12.4993
-12.4192
-12.2548
-12.0027
-12.0184
-14.1986
54.7208
51.8902
51.18
50.853
50.6056
50.3482
50.0488
49.6816
49.2094
48.6857
48.4704
49.1732
51.3293
53.5865
49.3689
49.3713
49.684
51.8797
0.284341
2.28501
2.69533
2.83715
2.97921
3.12241
3.01355
1.1885
53.2143
51.0006
50.4189
50.1386
49.9198
49.6864
49.4196
49.1166
48.7525
48.3134
47.9653
48.2253
49.998
53.7578
49.4148
49.3959
49.5581
50.8491
22.0884
23.3677
23.6949
23.8369
23.9241
23.9522
23.7926
22.566
51.4059
50.0206
49.5911
49.3479
49.1465
48.9363
48.7063
48.4656
48.2113
47.9094
47.5632
47.4619
48.5708
53.0946
49.5291
49.4929
49.5284
50.0216
41.1592
41.679
41.8442
41.9157
41.9213
41.8548
41.6832
41.0714
49.83
49.2146
48.9375
48.7401
48.5647
48.3858
48.196
48.0039
47.8223
47.6415
47.4148
47.1948
47.5506
51.5308
49.6777
49.6271
49.578
49.577
51.6432
51.646
51.672
51.669
51.6103
51.4887
51.3233
51.1223
48.8904
48.7598
48.5884
48.4289
48.2786
48.1294
47.9755
47.819
47.6702
47.5425
47.4406
47.3743
47.5348
50.3896
49.8396
49.7781
49.6871
49.5022
54.0192
53.8207
53.7781
53.7349
53.6474
53.5078
53.3509
53.2983
48.5954
48.6431
48.5214
48.3862
48.2562
48.1308
48.0058
47.8772
47.7469
47.6232
47.5279
47.5436
48.0256
51.3391
50.0201
49.9517
49.8479
49.6666
52.3896
52.1931
52.1363
52.0816
51.9912
51.8578
51.7096
51.6423
48.7206
48.758
48.6447
48.5189
48.3986
48.2855
48.1767
48.0665
47.954
47.8477
47.7673
47.7747
48.1773
51.3432
50.2377
50.1657
50.0629
49.941
50.4751
50.3379
50.2833
50.2229
50.1352
50.0155
49.8772
49.7535
49.0101
48.9824
48.8605
48.736
48.6197
48.5122
48.4127
48.3151
48.2153
48.119
48.0479
48.0665
48.4628
51.4215
50.5089
50.4357
50.3382
50.2621
49.7622
49.6626
49.6038
49.5321
49.4427
49.3352
49.2088
49.0514
49.337
49.262
49.1292
49.003
48.8882
48.7828
48.687
48.5973
48.509
48.4242
48.3594
48.3683
48.6864
51.0843
50.843
50.7705
50.6793
50.6229
50.0405
49.9442
49.8717
49.7835
49.6874
49.5866
49.4716
49.3103
49.6795
49.5876
49.4464
49.3166
49.202
49.0973
49.0025
48.9165
48.836
48.7611
48.7029
48.7002
48.9142
50.5023
51.2455
51.1757
51.0911
51.0396
50.6762
50.5641
50.4745
50.3708
50.2665
50.1674
50.0611
49.9111
50.0662
49.9756
49.8285
49.6932
49.5765
49.4714
49.3762
49.2911
49.2154
49.1487
49.0971
49.0831
49.1913
49.9664
51.7206
51.6555
51.5773
51.5254
51.3131
51.1814
51.0767
50.9618
50.8506
50.7495
50.6477
50.5104
50.5196
50.4364
50.2857
50.1436
50.0221
49.9149
49.8186
49.7332
49.6595
49.598
49.5515
49.5296
49.5595
49.7559
52.2711
52.2119
52.1385
52.0841
51.9038
51.756
51.6406
51.5195
51.4032
51.298
51.1967
51.0679
51.0478
50.9727
50.8217
50.6735
50.5453
50.4338
50.3353
50.2488
50.1752
50.116
50.0731
50.0482
50.0379
49.9601
52.897
52.8435
52.7719
52.7119
52.5123
52.3531
52.2312
52.1075
51.9879
51.8776
51.7736
51.6486
51.6471
51.5788
51.4313
51.2797
51.1445
51.0266
50.9243
50.8356
50.761
50.7022
50.6613
50.637
50.6157
50.4842
53.5939
53.5443
53.4704
53.4013
53.1838
53.0181
52.8927
52.7686
52.6467
52.5314
52.4228
52.2983
52.3101
52.2465
52.1058
51.9547
51.8141
51.6891
51.5812
51.4892
51.4129
51.3539
51.3142
51.2916
51.273
51.1795
54.3525
54.3033
54.2232
54.1421
53.9227
53.7547
53.6276
53.5036
53.3801
53.2605
53.1467
53.021
53.0272
52.9645
52.8322
52.6854
52.5426
52.4113
52.297
52.2009
52.1227
52.0632
52.0236
52.0016
51.9869
51.9356
55.1579
55.1055
55.0159
54.9214
54.7111
54.5446
54.4166
54.2925
54.1677
54.0447
53.9262
53.7985
53.7857
53.7196
53.5952
53.4554
53.314
53.1792
53.0593
52.9588
52.8786
52.8182
52.7777
52.7543
52.7398
52.7065
55.9925
55.933
55.8322
55.7244
55.5278
55.3655
55.2366
55.1116
54.9854
54.8598
54.7374
54.6079
54.5706
54.4966
54.3781
54.246
54.1091
53.9742
53.8512
53.7473
53.665
53.6035
53.561
53.5341
53.5161
53.4819
56.8392
56.7697
56.657
56.5373
56.3552
56.1983
56.0681
55.9413
55.8134
55.6857
55.5601
55.4293
55.3669
55.2817
55.1659