/*--------------------------------*- C++ -*----------------------------------*\
| =========                 |                                                 |
| \\      /  F ield         | OpenFOAM: The Open Source CFD Toolbox           |
|  \\    /   O peration     | Version:  v2012                                 |
|   \\  /    A nd           | Website:  www.openfoam.com                      |
|    \\/     M anipulation  |                                                 |
\*---------------------------------------------------------------------------*/
FoamFile
{
    version     2.0;
    format      ascii;
    class       volScalarField;
    location    "200/asphalt";
    object      T;
}
// * * * * * * * * * * * * * * * * * * * * * * * * * * * * * * * * * * * * * //

dimensions      [0 0 0 1 0 0 0];


internalField   nonuniform List<scalar> 
1980
(
321.376
321.779
322.175
322.505
322.775
322.994
323.179
323.345
323.503
323.654
323.795
323.924
324.041
324.148
324.245
324.335
324.418
324.495
324.566
324.631
324.691
324.747
324.799
324.848
324.895
324.941
324.986
325.03
325.075
325.119
325.162
325.201
325.226
325.258
325.29
325.322
325.351
325.381
325.411
325.441
325.47
325.499
325.527
325.555
325.585
325.614
325.643
325.67
325.696
325.721
325.745
325.769
325.793
325.818
325.843
325.869
325.896
325.926
325.968
325.997
326.024
326.048
326.071
326.094
326.114
326.132
326.15
326.167
326.182
326.196
326.208
326.218
326.227
326.233
326.237
326.238
326.237
326.236
326.239
326.25
326.272
326.305
326.346
326.388
326.429
326.463
326.491
326.524
326.598
326.843
321.438
321.843
322.241
322.574
322.85
323.078
323.275
323.454
323.621
323.777
323.92
324.05
324.167
324.274
324.372
324.463
324.547
324.624
324.696
324.761
324.822
324.879
324.932
324.982
325.031
325.079
325.125
325.171
325.216
325.261
325.305
325.346
325.382
325.417
325.45
325.483
325.515
325.546
325.577
325.607
325.637
325.666
325.695
325.724
325.753
325.781
325.809
325.837
325.865
325.891
325.917
325.942
325.968
325.993
326.018
326.044
326.069
326.096
326.123
326.149
326.173
326.197
326.221
326.244
326.264
326.283
326.301
326.318
326.333
326.347
326.359
326.369
326.378
326.384
326.389
326.392
326.392
326.39
326.39
326.393
326.403
326.421
326.447
326.477
326.509
326.538
326.565
326.597
326.671
326.919
321.487
321.894
322.294
322.629
322.91
323.147
323.355
323.543
323.716
323.875
324.018
324.148
324.265
324.373
324.472
324.563
324.648
324.726
324.798
324.864
324.926
324.983
325.038
325.09
325.14
325.189
325.236
325.283
325.33
325.375
325.418
325.459
325.497
325.532
325.566
325.599
325.633
325.665
325.697
325.728
325.758
325.788
325.818
325.847
325.875
325.903
325.931
325.96
325.988
326.015
326.043
326.069
326.096
326.122
326.147
326.173
326.199
326.224
326.249
326.273
326.297
326.32
326.344
326.367
326.387
326.406
326.424
326.442
326.457
326.471
326.484
326.494
326.502
326.509
326.514
326.518
326.519
326.519
326.518
326.517
326.519
326.527
326.541
326.56
326.583
326.607
326.632
326.663
326.738
326.989
321.522
321.93
322.332
322.67
322.955
323.2
323.417
323.611
323.788
323.947
324.09
324.22
324.338
324.447
324.547
324.639
324.724
324.802
324.875
324.942
325.004
325.063
325.119
325.172
325.224
325.273
325.322
325.369
325.416
325.461
325.504
325.544
325.582
325.618
325.653
325.687
325.721
325.754
325.786
325.818
325.849
325.879
325.91
325.939
325.968
325.996
326.024
326.053
326.081
326.11
326.138
326.166
326.193
326.22
326.246
326.272
326.298
326.323
326.348
326.372
326.395
326.419
326.442
326.464
326.485
326.504
326.523
326.54
326.556
326.57
326.583
326.593
326.602
326.608
326.614
326.617
326.62
326.62
326.619
326.617
326.617
326.618
326.624
326.635
326.651
326.67
326.692
326.722
326.798
327.052
321.546
321.956
322.358
322.699
322.99
323.241
323.463
323.662
323.84
323.999
324.143
324.274
324.393
324.502
324.602
324.695
324.78
324.859
324.932
325
325.063
325.123
325.18
325.235
325.287
325.338
325.387
325.435
325.482
325.526
325.569
325.608
325.646
325.683
325.718
325.753
325.788
325.822
325.854
325.886
325.918
325.949
325.98
326.01
326.039
326.067
326.096
326.125
326.154
326.183
326.212
326.241
326.269
326.297
326.324
326.35
326.376
326.402
326.427
326.451
326.475
326.498
326.521
326.543
326.563
326.583
326.602
326.62
326.636
326.651
326.663
326.674
326.683
326.69
326.695
326.699
326.701
326.702
326.702
326.701
326.699
326.698
326.7
326.705
326.716
326.73
326.749
326.778
326.854
327.111
321.563
321.975
322.379
322.723
323.018
323.274
323.5
323.7
323.879
324.04
324.184
324.315
324.435
324.545
324.645
324.738
324.824
324.904
324.977
325.046
325.11
325.171
325.229
325.285
325.338
325.389
325.439
325.487
325.533
325.577
325.619
325.659
325.697
325.734
325.771
325.806
325.841
325.875
325.909
325.941
325.973
326.005
326.036
326.067
326.096
326.125
326.155
326.184
326.214
326.243
326.273
326.302
326.331
326.359
326.387
326.414
326.441
326.468
326.493
326.518
326.542
326.565
326.588
326.61
326.631
326.651
326.671
326.689
326.706
326.721
326.735
326.746
326.756
326.763
326.769
326.773
326.775
326.777
326.777
326.776
326.774
326.773
326.772
326.774
326.78
326.79
326.805
326.832
326.909
327.169
321.578
321.991
322.397
322.744
323.041
323.301
323.529
323.73
323.91
324.071
324.216
324.348
324.468
324.578
324.68
324.773
324.859
324.939
325.013
325.083
325.148
325.21
325.269
325.325
325.379
325.431
325.481
325.529
325.575
325.618
325.66
325.7
325.739
325.776
325.813
325.849
325.884
325.919
325.953
325.986
326.018
326.05
326.082
326.113
326.143
326.173
326.203
326.233
326.263
326.293
326.323
326.353
326.382
326.411
326.44
326.468
326.496
326.523
326.55
326.576
326.6
326.624
326.648
326.671
326.692
326.713
326.733
326.752
326.769
326.786
326.801
326.813
326.824
326.833
326.84
326.846
326.849
326.851
326.852
326.852
326.851
326.849
326.847
326.847
326.849
326.856
326.867
326.891
326.968
327.231
321.59
322.004
322.412
322.76
323.06
323.321
323.55
323.753
323.933
324.095
324.241
324.373
324.494
324.604
324.706
324.799
324.886
324.967
325.042
325.112
325.178
325.241
325.301
325.357
325.411
325.463
325.513
325.561
325.607
325.65
325.692
325.732
325.772
325.81
325.847
325.883
325.919
325.954
325.988
326.021
326.054
326.087
326.119
326.151
326.181
326.212
326.243
326.273
326.304
326.335
326.365
326.395
326.425
326.455
326.484
326.513
326.542
326.57
326.598
326.625
326.651
326.677
326.701
326.725
326.748
326.77
326.791
326.811
326.829
326.847
326.863
326.877
326.89
326.901
326.91
326.918
326.924
326.929
326.932
326.934
326.935
326.935
326.934
326.933
326.934
326.938
326.946
326.967
327.044
327.313
321.598
322.013
322.423
322.772
323.074
323.336
323.566
323.769
323.95
324.112
324.258
324.391
324.512
324.623
324.725
324.819
324.907
324.988
325.064
325.135
325.202
325.265
325.325
325.383
325.437
325.489
325.539
325.587
325.633
325.677
325.719
325.76
325.8
325.838
325.876
325.913
325.949
325.984
326.019
326.053
326.086
326.119
326.152
326.184
326.216
326.247
326.278
326.31
326.341
326.372
326.403
326.434
326.464
326.494
326.524
326.554
326.584
326.613
326.641
326.669
326.697
326.724
326.75
326.775
326.799
326.823
326.845
326.867
326.887
326.906
326.924
326.94
326.955
326.968
326.979
326.989
326.998
327.005
327.011
327.017
327.02
327.023
327.026
327.028
327.03
327.035
327.043
327.064
327.143
327.421
321.604
322.02
322.432
322.783
323.086
323.35
323.582
323.786
323.969
324.132
324.28
324.414
324.537
324.649
324.752
324.848
324.937
325.019
325.097
325.169
325.238
325.303
325.364
325.422
325.478
325.531
325.582
325.631
325.678
325.723
325.766
325.808
325.849
325.889
325.928
325.966
326.003
326.039
326.075
326.11
326.145
326.179
326.212
326.246
326.279
326.311
326.344
326.376
326.408
326.44
326.472
326.504
326.536
326.567
326.599
326.629
326.66
326.69
326.72
326.75
326.779
326.807
326.834
326.861
326.887
326.912
326.937
326.96
326.982
327.003
327.023
327.041
327.058
327.073
327.087
327.099
327.11
327.12
327.129
327.137
327.143
327.149
327.155
327.16
327.166
327.173
327.183
327.206
327.286
327.564
321.613
322.037
322.456
322.815
323.125
323.395
323.633
323.843
324.032
324.201
324.354
324.494
324.621
324.738
324.847
324.947
325.04
325.128
325.21
325.287
325.36
325.428
325.494
325.556
325.616
325.673
325.727
325.779
325.83
325.878
325.926
325.971
326.016
326.059
326.102
326.143
326.184
326.223
326.262
326.301
326.339
326.376
326.413
326.45
326.486
326.522
326.557
326.593
326.628
326.663
326.698
326.733
326.768
326.802
326.837
326.871
326.904
326.938
326.97
327.003
327.034
327.066
327.096
327.125
327.154
327.182
327.209
327.234
327.259
327.282
327.304
327.324
327.343
327.36
327.376
327.39
327.403
327.414
327.425
327.434
327.442
327.449
327.456
327.462
327.469
327.476
327.487
327.509
327.58
327.819
322.657
323.112
323.544
323.905
324.204
324.447
324.65
324.832
325.003
325.166
325.318
325.457
325.582
325.696
325.8
325.897
325.986
326.069
326.145
326.215
326.279
326.339
326.395
326.448
326.499
326.549
326.597
326.644
326.692
326.74
326.787
326.829
326.862
326.898
326.933
326.967
326.998
327.03
327.062
327.094
327.125
327.156
327.186
327.216
327.248
327.279
327.309
327.338
327.366
327.392
327.418
327.444
327.47
327.497
327.525
327.553
327.582
327.613
327.653
327.684
327.714
327.741
327.769
327.795
327.819
327.842
327.864
327.885
327.905
327.923
327.94
327.954
327.967
327.978
327.985
327.989
327.991
327.991
327.993
327.999
328.007
328.019
328.033
328.049
328.069
328.092
328.114
328.142
328.217
328.498
322.701
323.157
323.591
323.953
324.255
324.506
324.72
324.913
325.093
325.261
325.414
325.552
325.677
325.792
325.897
325.994
326.084
326.167
326.244
326.314
326.379
326.44
326.497
326.551
326.604
326.655
326.704
326.753
326.802
326.851
326.898
326.941
326.981
327.019
327.054
327.089
327.123
327.157
327.189
327.222
327.254
327.285
327.316
327.346
327.377
327.407
327.437
327.466
327.495
327.524
327.551
327.579
327.606
327.633
327.661
327.689
327.717
327.746
327.775
327.804
327.832
327.859
327.887
327.913
327.937
327.961
327.983
328.005
328.025
328.043
328.06
328.074
328.087
328.098
328.106
328.111
328.114
328.115
328.115
328.115
328.115
328.116
328.119
328.126
328.139
328.158
328.179
328.207
328.282
328.567
322.726
323.183
323.618
323.981
324.286
324.543
324.768
324.969
325.155
325.324
325.477
325.615
325.74
325.855
325.961
326.059
326.149
326.233
326.309
326.38
326.446
326.508
326.566
326.622
326.676
326.728
326.779
326.829
326.878
326.927
326.973
327.017
327.057
327.095
327.131
327.167
327.202
327.237
327.271
327.303
327.336
327.368
327.399
327.43
327.46
327.49
327.52
327.55
327.579
327.609
327.638
327.667
327.695
327.723
327.752
327.78
327.808
327.836
327.863
327.891
327.918
327.945
327.973
327.999
328.023
328.047
328.069
328.091
328.112
328.131
328.147
328.162
328.175
328.185
328.194
328.201
328.205
328.207
328.208
328.206
328.203
328.199
328.196
328.197
328.205
328.22
328.24
328.268
328.343
328.633
322.736
323.193
323.628
323.992
324.3
324.564
324.796
325.004
325.191
325.361
325.514
325.652
325.778
325.894
326
326.098
326.189
326.273
326.35
326.421
326.488
326.551
326.61
326.667
326.722
326.775
326.827
326.878
326.928
326.976
327.021
327.064
327.104
327.143
327.18
327.216
327.252
327.288
327.322
327.356
327.388
327.421
327.453
327.484
327.514
327.544
327.574
327.604
327.635
327.665
327.696
327.726
327.755
327.784
327.813
327.841
327.87
327.898
327.925
327.952
327.979
328.006
328.033
328.059
328.084
328.107
328.13
328.152
328.173
328.192
328.209
328.224
328.237
328.247
328.256
328.263
328.268
328.271
328.272
328.272
328.269
328.265
328.262
328.261
328.266
328.278
328.296
328.323
328.4
328.693
322.739
323.196
323.631
323.996
324.308
324.577
324.814
325.025
325.215
325.384
325.537
325.676
325.803
325.919
326.025
326.124
326.215
326.299
326.377
326.449
326.517
326.58
326.641
326.699
326.755
326.809
326.861
326.913
326.962
327.01
327.054
327.097
327.137
327.176
327.213
327.25
327.287
327.323
327.358
327.392
327.426
327.459
327.491
327.523
327.553
327.584
327.614
327.645
327.676
327.707
327.738
327.769
327.799
327.829
327.858
327.887
327.916
327.945
327.973
328
328.027
328.053
328.08
328.106
328.131
328.155
328.178
328.2
328.222
328.241
328.259
328.274
328.287
328.298
328.306
328.313
328.318
328.322
328.324
328.324
328.323
328.321
328.319
328.319
328.323
328.333
328.348
328.375
328.452
328.749
322.743
323.201
323.636
324.003
324.318
324.591
324.831
325.044
325.234
325.404
325.558
325.697
325.824
325.94
326.047
326.146
326.237
326.322
326.4
326.473
326.542
326.607
326.668
326.727
326.784
326.838
326.891
326.942
326.991
327.038
327.083
327.125
327.165
327.205
327.243
327.28
327.318
327.354
327.389
327.424
327.458
327.491
327.524
327.556
327.587
327.618
327.649
327.681
327.712
327.744
327.775
327.806
327.837
327.868
327.898
327.928
327.958
327.987
328.016
328.044
328.071
328.098
328.124
328.151
328.176
328.2
328.224
328.247
328.268
328.289
328.307
328.323
328.337
328.349
328.358
328.365
328.371
328.374
328.376
328.377
328.377
328.376
328.376
328.376
328.379
328.387
328.4
328.425
328.503
328.803
322.75
323.209
323.646
324.014
324.331
324.606
324.848
325.062
325.253
325.423
325.577
325.717
325.844
325.961
326.069
326.168
326.259
326.344
326.423
326.497
326.566
326.632
326.694
326.754
326.811
326.866
326.919
326.97
327.018
327.065
327.109
327.151
327.192
327.232
327.271
327.309
327.346
327.383
327.418
327.453
327.488
327.521
327.555
327.587
327.619
327.651
327.683
327.714
327.746
327.778
327.81
327.842
327.873
327.904
327.935
327.966
327.997
328.027
328.057
328.086
328.114
328.142
328.169
328.195
328.221
328.246
328.271
328.294
328.316
328.338
328.357
328.375
328.391
328.404
328.415
328.424
328.431
328.436
328.439
328.44
328.44
328.44
328.439
328.439
328.441
328.446
328.456
328.479
328.557
328.861
322.759
323.219
323.657
324.026
324.344
324.621
324.863
325.078
325.269
325.44
325.594
325.734
325.862
325.979
326.086
326.186
326.278
326.363
326.443
326.517
326.587
326.654
326.717
326.777
326.835
326.89
326.942
326.993
327.041
327.087
327.132
327.174
327.216
327.256
327.295
327.333
327.371
327.408
327.444
327.479
327.514
327.548
327.582
327.615
327.647
327.68
327.712
327.744
327.777
327.809
327.841
327.873
327.905
327.937
327.968
328
328.031
328.062
328.093
328.123
328.153
328.182
328.211
328.239
328.266
328.292
328.317
328.342
328.365
328.387
328.408
328.427
328.444
328.459
328.473
328.485
328.495
328.503
328.509
328.514
328.517
328.518
328.519
328.519
328.52
328.524
328.531
328.551
328.63
328.941
322.765
323.225
323.664
324.034
324.353
324.63
324.873
325.088
325.279
325.451
325.606
325.746
325.874
325.992
326.1
326.199
326.292
326.378
326.458
326.533
326.604
326.672
326.735
326.796
326.854
326.909
326.962
327.012
327.06
327.107
327.151
327.194
327.236
327.277
327.317
327.356
327.393
327.43
327.467
327.503
327.538
327.572
327.606
327.64
327.673
327.706
327.739
327.772
327.805
327.838
327.87
327.903
327.935
327.967
328
328.032
328.063
328.095
328.127
328.158
328.189
328.219
328.248
328.278
328.306
328.334
328.361
328.387
328.412
328.436
328.458
328.479
328.498
328.516
328.532
328.546
328.558
328.569
328.578
328.586
328.592
328.598
328.602
328.605
328.61
328.615
328.623
328.644
328.726
329.047
322.768
323.23
323.67
324.042
324.362
324.641
324.885
325.101
325.294
325.467
325.623
325.765
325.894
326.013
326.122
326.223
326.317
326.404
326.486
326.563
326.635
326.704
326.769
326.83
326.889
326.945
326.999
327.05
327.1
327.147
327.193
327.237
327.28
327.322
327.363
327.403
327.442
327.48
327.517
327.554
327.59
327.626
327.661
327.696
327.73
327.765
327.799
327.832
327.866
327.9
327.934
327.967
328.001
328.034
328.067
328.101
328.134
328.166
328.199
328.232
328.264
328.295
328.326
328.357
328.387
328.416
328.445
328.473
328.499
328.525
328.55
328.572
328.594
328.613
328.632
328.648
328.663
328.676
328.689
328.699
328.709
328.718
328.725
328.733
328.74
328.749
328.76
328.784
328.867
329.189
322.778
323.248
323.696
324.076
324.404
324.69
324.941
325.164
325.363
325.543
325.705
325.853
325.988
326.112
326.227
326.333
326.432
326.525
326.612
326.694
326.771
326.844
326.914
326.98
327.043
327.103
327.161
327.217
327.27
327.322
327.372
327.42
327.467
327.513
327.558
327.602
327.645
327.686
327.728
327.768
327.808
327.848
327.886
327.925
327.963
328.001
328.039
328.076
328.113
328.15
328.187
328.224
328.261
328.298
328.335
328.371
328.408
328.444
328.48
328.516
328.551
328.586
328.62
328.654
328.687
328.72
328.751
328.782
328.811
328.839
328.866
328.891
328.915
328.937
328.957
328.976
328.992
329.008
329.021
329.034
329.045
329.055
329.064
329.072
329.081
329.09
329.103
329.125
329.198
329.471
)
;

boundaryField
{
    inlet
    {
        type            zeroGradient;
    }
    outlet
    {
        type            zeroGradient;
    }
    side
    {
        type            zeroGradient;
    }
    asphalt_to_soil1
    {
        type            compressible::turbulentTemperatureRadCoupledMixed;
        refValue        nonuniform List<scalar> 
990
(
320.113
320.47
320.831
321.133
321.377
321.574
321.741
321.892
322.037
322.176
322.307
322.427
322.536
322.635
322.726
322.809
322.887
322.958
323.024
323.084
323.14
323.191
323.239
323.285
323.329
323.371
323.413
323.454
323.495
323.537
323.576
323.611
323.629
323.658
323.687
323.717
323.744
323.772
323.8
323.827
323.855
323.882
323.908
323.935
323.963
323.99
324.016
324.042
324.066
324.09
324.112
324.134
324.156
324.179
324.202
324.225
324.25
324.279
324.321
324.35
324.373
324.394
324.414
324.433
324.45
324.465
324.479
324.492
324.503
324.513
324.521
324.528
324.533
324.537
324.538
324.537
324.534
324.532
324.536
324.55
324.58
324.628
324.688
324.751
324.807
324.85
324.883
324.918
324.992
325.206
320.186
320.547
320.911
321.216
321.467
321.675
321.855
322.019
322.174
322.319
322.452
322.573
322.682
322.782
322.873
322.958
323.036
323.108
323.175
323.236
323.292
323.344
323.394
323.441
323.486
323.53
323.573
323.616
323.659
323.701
323.741
323.779
323.812
323.844
323.875
323.906
323.935
323.964
323.993
324.021
324.049
324.077
324.104
324.131
324.158
324.185
324.211
324.237
324.262
324.287
324.311
324.335
324.358
324.381
324.404
324.427
324.45
324.475
324.5
324.523
324.545
324.565
324.586
324.605
324.621
324.637
324.651
324.664
324.676
324.686
324.694
324.7
324.706
324.709
324.712
324.712
324.71
324.707
324.706
324.712
324.729
324.759
324.802
324.85
324.896
324.934
324.965
324.998
325.072
325.288
320.252
320.615
320.982
321.29
321.548
321.766
321.958
322.133
322.294
322.442
322.576
322.697
322.807
322.907
323
323.085
323.164
323.237
323.304
323.365
323.423
323.476
323.527
323.576
323.622
323.668
323.712
323.756
323.799
323.841
323.882
323.92
323.955
323.988
324.02
324.051
324.082
324.112
324.142
324.171
324.199
324.227
324.255
324.283
324.309
324.335
324.362
324.388
324.414
324.44
324.466
324.49
324.514
324.538
324.561
324.585
324.608
324.631
324.653
324.675
324.696
324.716
324.737
324.755
324.772
324.788
324.802
324.815
324.827
324.837
324.845
324.852
324.857
324.861
324.864
324.865
324.864
324.862
324.86
324.86
324.867
324.883
324.909
324.943
324.978
325.01
325.038
325.07
325.144
325.363
320.305
320.67
321.04
321.353
321.617
321.844
322.045
322.226
322.391
322.541
322.675
322.797
322.907
323.009
323.102
323.188
323.268
323.341
323.409
323.471
323.53
323.584
323.637
323.686
323.734
323.781
323.826
323.871
323.914
323.957
323.997
324.034
324.069
324.103
324.136
324.168
324.2
324.231
324.261
324.29
324.32
324.348
324.376
324.404
324.431
324.457
324.484
324.511
324.537
324.564
324.59
324.616
324.641
324.665
324.689
324.713
324.736
324.759
324.781
324.802
324.823
324.843
324.863
324.882
324.899
324.914
324.929
324.942
324.954
324.964
324.973
324.98
324.985
324.989
324.992
324.993
324.993
324.992
324.99
324.987
324.988
324.994
325.008
325.028
325.053
325.078
325.102
325.134
325.208
325.429
320.346
320.713
321.085
321.402
321.672
321.907
322.114
322.3
322.467
322.617
322.752
322.874
322.986
323.088
323.182
323.269
323.349
323.422
323.491
323.554
323.614
323.67
323.723
323.774
323.823
323.871
323.917
323.962
324.005
324.047
324.087
324.124
324.159
324.194
324.227
324.26
324.292
324.324
324.355
324.385
324.415
324.444
324.472
324.501
324.528
324.555
324.582
324.609
324.636
324.663
324.69
324.717
324.742
324.768
324.792
324.816
324.84
324.863
324.885
324.907
324.927
324.947
324.967
324.986
325.003
325.019
325.033
325.047
325.059
325.07
325.079
325.086
325.091
325.095
325.098
325.099
325.1
325.099
325.097
325.095
325.093
325.093
325.098
325.108
325.124
325.142
325.162
325.192
325.266
325.49
320.376
320.745
321.119
321.44
321.715
321.955
322.167
322.355
322.523
322.674
322.809
322.933
323.045
323.148
323.242
323.33
323.41
323.485
323.554
323.618
323.678
323.736
323.79
323.842
323.892
323.94
323.987
324.032
324.075
324.117
324.156
324.193
324.229
324.264
324.298
324.331
324.364
324.396
324.428
324.458
324.489
324.518
324.548
324.576
324.604
324.632
324.659
324.687
324.714
324.742
324.77
324.797
324.823
324.849
324.874
324.899
324.924
324.947
324.97
324.992
325.013
325.033
325.053
325.072
325.089
325.105
325.121
325.135
325.148
325.159
325.168
325.176
325.182
325.186
325.189
325.191
325.191
325.191
325.19
325.188
325.185
325.183
325.183
325.187
325.195
325.207
325.223
325.25
325.325
325.55
320.396
320.767
321.144
321.468
321.748
321.991
322.205
322.395
322.564
322.715
322.852
322.976
323.089
323.192
323.287
323.375
323.456
323.531
323.601
323.666
323.727
323.786
323.841
323.894
323.944
323.993
324.04
324.085
324.128
324.169
324.208
324.246
324.282
324.318
324.352
324.386
324.419
324.452
324.484
324.515
324.546
324.576
324.606
324.635
324.663
324.692
324.72
324.748
324.776
324.804
324.832
324.86
324.887
324.914
324.94
324.966
324.991
325.015
325.039
325.062
325.084
325.105
325.125
325.144
325.162
325.179
325.195
325.21
325.224
325.236
325.246
325.255
325.263
325.268
325.272
325.274
325.276
325.276
325.275
325.274
325.271
325.269
325.267
325.267
325.27
325.277
325.289
325.313
325.388
325.616
320.411
320.783
321.162
321.489
321.771
322.017
322.232
322.423
322.593
322.745
322.882
323.007
323.12
323.224
323.32
323.408
323.489
323.565
323.636
323.702
323.764
323.823
323.879
323.932
323.983
324.032
324.079
324.124
324.167
324.208
324.248
324.286
324.322
324.358
324.394
324.428
324.461
324.494
324.527
324.558
324.589
324.62
324.65
324.68
324.71
324.738
324.767
324.796
324.825
324.854
324.882
324.91
324.938
324.965
324.993
325.019
325.045
325.071
325.096
325.12
325.143
325.165
325.186
325.207
325.226
325.244
325.261
325.277
325.292
325.305
325.317
325.328
325.337
325.344
325.35
325.355
325.358
325.36
325.362
325.362
325.361
325.359
325.358
325.357
325.357
325.361
325.369
325.391
325.465
325.699
320.421
320.794
321.175
321.504
321.788
322.035
322.251
322.443
322.613
322.766
322.904
323.029
323.143
323.248
323.344
323.432
323.515
323.591
323.662
323.729
323.793
323.852
323.909
323.963
324.014
324.063
324.111
324.156
324.199
324.24
324.28
324.319
324.356
324.393
324.429
324.463
324.497
324.531
324.563
324.596
324.627
324.659
324.69
324.72
324.75
324.78
324.809
324.839
324.868
324.897
324.926
324.955
324.984
325.012
325.04
325.067
325.094
325.121
325.147
325.172
325.196
325.22
325.242
325.264
325.285
325.305
325.323
325.341
325.357
325.372
325.386
325.399
325.41
325.419
325.427
325.434
325.439
325.444
325.448
325.451
325.453
325.454
325.455
325.456
325.458
325.461
325.469
325.49
325.566
325.807
320.428
320.803
321.186
321.517
321.803
322.052
322.271
322.464
322.636
322.79
322.929
323.056
323.171
323.277
323.375
323.465
323.548
323.626
323.699
323.768
323.832
323.893
323.951
324.006
324.059
324.109
324.157
324.203
324.247
324.29
324.331
324.371
324.409
324.447
324.484
324.52
324.555
324.589
324.623
324.657
324.689
324.722
324.754
324.785
324.817
324.847
324.878
324.909
324.939
324.969
325
325.03
325.059
325.089
325.118
325.146
325.175
325.202
325.23
325.256
325.282
325.307
325.331
325.355
325.377
325.399
325.419
325.438
325.457
325.474
325.489
325.504
325.517
325.528
325.539
325.548
325.556
325.563
325.569
325.574
325.579
325.583
325.586
325.59
325.594
325.6
325.609
325.632
325.708
325.949
320.438
320.819
321.209
321.547
321.839
322.094
322.318
322.516
322.693
322.853
322.997
323.128
323.248
323.358
323.46
323.554
323.642
323.724
323.801
323.873
323.941
324.006
324.068
324.126
324.182
324.235
324.287
324.336
324.383
324.429
324.473
324.516
324.558
324.599
324.639
324.678
324.716
324.754
324.79
324.827
324.862
324.898
324.933
324.967
325.001
325.035
325.069
325.102
325.135
325.168
325.201
325.234
325.266
325.298
325.33
325.361
325.392
325.423
325.452
325.482
325.51
325.538
325.564
325.59
325.615
325.639
325.661
325.683
325.703
325.722
325.739
325.756
325.77
325.784
325.796
325.806
325.816
325.824
325.832
325.838
325.844
325.849
325.854
325.859
325.864
325.871
325.88
325.902
325.97
326.18
)
;
        refGradient     uniform 0;
        valueFraction   nonuniform List<scalar> 
990
(
0.495766
0.495766
0.495766
0.495766
0.495766
0.495766
0.495766
0.495766
0.495766
0.495766
0.495766
0.495766
0.495766
0.495766
0.495766
0.495766
0.495766
0.495766
0.495766
0.495766
0.495766
0.495766
0.495766
0.495766
0.495766
0.495766
0.495766
0.495766
0.495766
0.495766
0.495766
0.495766
0.495766
0.495766
0.495766
0.495766
0.495766
0.495766
0.495766
0.495766
0.495766
0.495766
0.495766
0.495766
0.495766
0.495766
0.495766
0.495766
0.495766
0.495766
0.495766
0.495766
0.495766
0.495766
0.495766
0.495766
0.495766
0.495766
0.495766
0.495766
0.495766
0.495766
0.495766
0.495766
0.495766
0.495766
0.495766
0.495766
0.495766
0.495766
0.495766
0.495766
0.495766
0.495766
0.495766
0.495766
0.495766
0.495766
0.495766
0.495766
0.495766
0.495766
0.495766
0.495766
0.495766
0.495766
0.495766
0.495766
0.495766
0.495766
0.495766
0.495766
0.495766
0.495766
0.495766
0.495766
0.495766
0.495766
0.495766
0.495766
0.495766
0.495766
0.495766
0.495766
0.495766
0.495766
0.495766
0.495766
0.495766
0.495766
0.495766
0.495766
0.495766
0.495766
0.495766
0.495766
0.495766
0.495766
0.495766
0.495766
0.495766
0.495766
0.495766
0.495766
0.495766
0.495766
0.495766
0.495766
0.495766
0.495766
0.495766
0.495766
0.495766
0.495766
0.495766
0.495766
0.495766
0.495766
0.495766
0.495766
0.495766
0.495766
0.495766
0.495766
0.495766
0.495766
0.495766
0.495766
0.495766
0.495766
0.495766
0.495766
0.495766
0.495766
0.495766
0.495766
0.495766
0.495766
0.495766
0.495766
0.495766
0.495766
0.495766
0.495766
0.495766
0.495766
0.495766
0.495766
0.495766
0.495766
0.495766
0.495766
0.495766
0.495766
0.495766
0.495766
0.495766
0.495766
0.495766
0.495766
0.495766
0.495766
0.495766
0.495766
0.495766
0.495766
0.495766
0.495766
0.495766
0.495766
0.495766
0.495766
0.495766
0.495766
0.495766
0.495766
0.495766
0.495766
0.495766
0.495766
0.495766
0.495766
0.495766
0.495766
0.495766
0.495766
0.495766
0.495766
0.495766
0.495766
0.495766
0.495766
0.495766
0.495766
0.495766
0.495766
0.495766
0.495766
0.495766
0.495766
0.495766
0.495766
0.495766
0.495766
0.495766
0.495766
0.495766
0.495766
0.495766
0.495766
0.495766
0.495766
0.495766
0.495766
0.495766
0.495766
0.495766
0.495766
0.495766
0.495766
0.495766
0.495766
0.495766
0.495766
0.495766
0.495766
0.495766
0.495766
0.495766
0.495766
0.495766
0.495766
0.495766
0.495766
0.495766
0.495766
0.495766
0.495766
0.495766
0.495766
0.495766
0.495766
0.495766
0.495766
0.495766
0.495766
0.495766
0.495766
0.495766
0.495766
0.495766
0.495766
0.495766
0.495766
0.495766
0.495766
0.495766
0.495766
0.495766
0.495766
0.495766
0.495766
0.495766
0.495766
0.495766
0.495766
0.495766
0.495766
0.495766
0.495766
0.495766
0.495766
0.495766
0.495766
0.495766
0.495766
0.495766
0.495766
0.495766
0.495766
0.495766
0.495766
0.495766
0.495766
0.495766
0.495766
0.495766
0.495766
0.495766
0.495766
0.495766
0.495766
0.495766
0.495766
0.495766
0.495766
0.495766
0.495766
0.495766
0.495766
0.495766
0.495766
0.495766
0.495766
0.495766
0.495766
0.495766
0.495766
0.495766
0.495766
0.495766
0.495766
0.495766
0.495766
0.495766
0.495766
0.495766
0.495766
0.495766
0.495766
0.495766
0.495766
0.495766
0.495766
0.495766
0.495766
0.495766
0.495766
0.495766
0.495766
0.495766
0.495766
0.495766
0.495766
0.495766
0.495766
0.495766
0.495766
0.495766
0.495766
0.495766
0.495766
0.495766
0.495766
0.495766
0.495766
0.495766
0.495766
0.495766
0.495766
0.495766
0.495766
0.495766
0.495766
0.495766
0.495766
0.495766
0.495766
0.495766
0.495766
0.495766
0.495766
0.495766
0.495766
0.495766
0.495766
0.495766
0.495766
0.495766
0.495766
0.495766
0.495766
0.495766
0.495766
0.495766
0.495766
0.495766
0.495766
0.495766
0.495766
0.495766
0.495766
0.495766
0.495766
0.495766
0.495766
0.495766
0.495766
0.495766
0.495766
0.495766
0.495766
0.495766
0.495766
0.495766
0.495766
0.495766
0.495766
0.495766
0.495766
0.495766
0.495766
0.495766
0.495766
0.495766
0.495766
0.495766
0.495766
0.495766
0.495766
0.495766
0.495766
0.495766
0.495766
0.495766
0.495766
0.495766
0.495766
0.495766
0.495766
0.495766
0.495766
0.495766
0.495766
0.495766
0.495766
0.495766
0.495766
0.495766
0.495766
0.495766
0.495766
0.495766
0.495766
0.495766
0.495766
0.495766
0.495766
0.495766
0.495766
0.495766
0.495766
0.495766
0.495766
0.495766
0.495766
0.495766
0.495766
0.495766
0.495766
0.495766
0.495766
0.495766
0.495766
0.495766
0.495766
0.495766
0.495766
0.495766
0.495766
0.495766
0.495766
0.495766
0.495766
0.495766
0.495766
0.495766
0.495766
0.495766
0.495766
0.495766
0.495766
0.495766
0.495766
0.495766
0.495766
0.495766
0.495766
0.495766
0.495766
0.495766
0.495766
0.495766
0.495766
0.495766
0.495766
0.495766
0.495766
0.495766
0.495766
0.495766
0.495766
0.495766
0.495766
0.495766
0.495766
0.495766
0.495766
0.495766
0.495766
0.495766
0.495766
0.495766
0.495766
0.495766
0.495766
0.495766
0.495766
0.495766
0.495766
0.495766
0.495766
0.495766
0.495766
0.495766
0.495766
0.495766
0.495766
0.495766
0.495766
0.495766
0.495766
0.495766
0.495766
0.495766
0.495766
0.495766
0.495766
0.495766
0.495766
0.495766
0.495766
0.495766
0.495766
0.495766
0.495766
0.495766
0.495766
0.495766
0.495766
0.495766
0.495766
0.495766
0.495766
0.495766
0.495766
0.495766
0.495766
0.495766
0.495766
0.495766
0.495766
0.495766
0.495766
0.495766
0.495766
0.495766
0.495766
0.495766
0.495766
0.495766
0.495766
0.495766