/*--------------------------------*- C++ -*----------------------------------*\
| =========                 |                                                 |
| \\      /  F ield         | OpenFOAM: The Open Source CFD Toolbox           |
|  \\    /   O peration     | Version:  v2012                                 |
|   \\  /    A nd           | Website:  www.openfoam.com                      |
|    \\/     M anipulation  |                                                 |
\*---------------------------------------------------------------------------*/
FoamFile
{
    version     2.0;
    format      ascii;
    class       volScalarField;
    location    "450/soil2";
    object      T;
}
// * * * * * * * * * * * * * * * * * * * * * * * * * * * * * * * * * * * * * //

dimensions      [0 0 0 1 0 0 0];


internalField   nonuniform List<scalar> 
10496
(
328.372
329.042
329.659
330.191
330.649
331.048
331.398
331.706
331.981
332.227
332.45
332.652
332.836
333.005
333.161
333.306
333.44
333.566
333.683
333.793
333.897
333.995
334.088
334.176
334.26
334.341
334.417
334.491
334.562
334.63
334.696
334.759
334.821
334.88
334.938
334.994
335.048
335.102
335.154
335.205
335.254
335.303
335.351
335.398
335.444
335.489
335.534
335.578
335.621
335.664
335.706
335.748
335.789
335.829
335.869
335.909
335.948
335.987
336.025
336.063
336.1
336.137
336.173
336.209
336.245
336.28
336.314
336.348
336.382
336.415
336.448
336.48
336.513
336.545
336.577
336.608
336.638
336.668
336.698
336.729
336.761
336.796
336.832
336.869
336.907
336.947
336.993
337.057
337.196
337.602
328.116
328.769
329.369
329.886
330.33
330.716
331.053
331.351
331.615
331.852
332.064
332.257
332.433
332.594
332.742
332.879
333.006
333.124
333.234
333.337
333.434
333.526
333.612
333.694
333.772
333.846
333.917
333.985
334.05
334.113
334.173
334.231
334.287
334.341
334.393
334.443
334.493
334.541
334.588
334.634
334.679
334.722
334.764
334.807
334.848
334.889
334.929
334.968
335.006
335.045
335.082
335.119
335.156
335.192
335.227
335.263
335.297
335.332
335.366
335.399
335.432
335.465
335.498
335.529
335.561
335.592
335.622
335.653
335.682
335.712
335.741
335.769
335.798
335.827
335.855
335.882
335.909
335.935
335.962
335.989
336.018
336.048
336.081
336.114
336.148
336.185
336.227
336.291
336.442
336.893
327.848
328.491
329.082
329.591
330.028
330.408
330.739
331.032
331.291
331.523
331.732
331.921
332.093
332.251
332.395
332.529
332.653
332.768
332.875
332.976
333.07
333.159
333.243
333.323
333.399
333.471
333.539
333.605
333.667
333.728
333.785
333.841
333.895
333.947
333.997
334.045
334.092
334.138
334.184
334.227
334.27
334.31
334.351
334.391
334.431
334.469
334.507
334.544
334.581
334.617
334.652
334.687
334.722
334.756
334.789
334.822
334.855
334.887
334.919
334.951
334.982
335.013
335.043
335.073
335.103
335.132
335.16
335.188
335.216
335.243
335.27
335.297
335.324
335.35
335.376
335.402
335.427
335.451
335.475
335.501
335.528
335.556
335.586
335.618
335.651
335.686
335.727
335.791
335.947
336.399
327.58
328.214
328.798
329.3
329.732
330.106
330.433
330.722
330.978
331.207
331.413
331.599
331.769
331.924
332.067
332.199
332.32
332.434
332.54
332.639
332.731
332.819
332.902
332.98
333.054
333.125
333.192
333.256
333.318
333.377
333.434
333.488
333.541
333.591
333.64
333.687
333.732
333.778
333.822
333.865
333.906
333.945
333.984
334.024
334.062
334.1
334.136
334.172
334.207
334.242
334.277
334.311
334.344
334.377
334.41
334.442
334.473
334.505
334.536
334.566
334.597
334.626
334.656
334.685
334.713
334.741
334.769
334.796
334.823
334.85
334.876
334.902
334.928
334.954
334.979
335.004
335.028
335.052
335.076
335.101
335.127
335.156
335.186
335.217
335.25
335.286
335.328
335.393
335.55
335.999
327.315
327.941
328.517
329.013
329.439
329.808
330.132
330.417
330.669
330.895
331.098
331.282
331.45
331.603
331.744
331.874
331.994
332.106
332.21
332.308
332.4
332.486
332.567
332.645
332.718
332.787
332.854
332.917
332.978
333.036
333.091
333.145
333.196
333.246
333.294
333.339
333.384
333.428
333.472
333.513
333.553
333.591
333.629
333.668
333.705
333.741
333.777
333.812
333.846
333.88
333.913
333.946
333.978
334.01
334.042
334.073
334.103
334.134
334.164
334.193
334.222
334.251
334.279
334.307
334.335
334.362
334.389
334.415
334.441
334.466
334.492
334.517
334.541
334.566
334.591
334.615
334.638
334.661
334.684
334.708
334.734
334.762
334.791
334.822
334.855
334.89
334.932
334.995
335.149
335.589
327.054
327.671
328.24
328.729
329.15
329.515
329.834
330.116
330.365
330.588
330.789
330.97
331.136
331.287
331.426
331.554
331.673
331.784
331.887
331.983
332.074
332.159
332.239
332.315
332.388
332.456
332.522
332.584
332.644
332.701
332.756
332.808
332.859
332.907
332.954
332.999
333.043
333.085
333.127
333.167
333.206
333.244
333.28
333.317
333.353
333.388
333.422
333.455
333.488
333.521
333.552
333.583
333.614
333.644
333.674
333.703
333.732
333.761
333.789
333.816
333.843
333.87
333.897
333.922
333.948
333.973
333.997
334.021
334.045
334.068
334.091
334.113
334.135
334.157
334.179
334.2
334.22
334.24
334.26
334.281
334.303
334.327
334.353
334.379
334.408
334.439
334.475
334.531
334.669
335.08
326.797
327.405
327.967
328.45
328.866
329.226
329.541
329.819
330.066
330.285
330.482
330.661
330.824
330.973
331.11
331.237
331.355
331.464
331.566
331.662
331.752
331.836
331.916
331.991
332.062
332.13
332.195
332.256
332.315
332.371
332.425
332.476
332.526
332.573
332.619
332.663
332.705
332.745
332.784
332.823
332.86
332.896
332.931
332.964
332.997
333.029
333.06
333.091
333.12
333.149
333.177
333.205
333.232
333.258
333.284
333.31
333.335
333.359
333.383
333.406
333.429
333.452
333.473
333.495
333.515
333.535
333.555
333.574
333.592
333.61
333.627
333.644
333.66
333.675
333.69
333.705
333.718
333.731
333.743
333.756
333.771
333.787
333.804
333.822
333.841
333.864
333.892
333.936
334.048
334.399
326.542
327.143
327.697
328.174
328.585
328.941
329.252
329.527
329.769
329.983
330.173
330.345
330.504
330.651
330.787
330.913
331.031
331.14
331.242
331.338
331.428
331.513
331.592
331.668
331.739
331.806
331.87
331.93
331.988
332.043
332.096
332.146
332.193
332.238
332.281
332.324
332.363
332.399
332.433
332.467
332.5
332.533
332.564
332.591
332.618
332.645
332.672
332.697
332.721
332.745
332.767
332.789
332.81
332.83
332.85
332.868
332.886
332.904
332.92
332.936
332.951
332.965
332.978
332.991
333.003
333.014
333.024
333.034
333.043
333.051
333.059
333.066
333.072
333.078
333.083
333.087
333.091
333.094
333.097
333.101
333.108
333.117
333.127
333.138
333.151
333.168
333.191
333.226
333.31
333.575
326.292
326.884
327.432
327.903
328.308
328.659
328.967
329.237
329.473
329.674
329.83
329.98
330.127
330.27
330.406
330.535
330.657
330.772
330.88
330.982
331.078
331.168
331.253
331.332
331.406
331.475
331.539
331.599
331.656
331.709
331.759
331.806
331.849
331.89
331.93
331.969
332.005
332.033
332.06
332.088
332.117
332.146
332.174
332.193
332.212
332.234
332.254
332.272
332.29
332.307
332.322
332.337
332.351
332.365
332.378
332.39
332.401
332.412
332.421
332.43
332.439
332.446
332.453
332.459
332.465
332.47
332.474
332.478
332.481
332.483
332.485
332.487
332.488
332.489
332.49
332.49
332.489
332.488
332.488
332.493
332.507
332.524
332.539
332.554
332.57
332.589
332.615
332.652
332.723
332.931
326.045
326.629
327.169
327.634
328.035
328.382
328.685
328.95
329.173
329.321
329.212
329.219
329.305
329.433
329.582
329.741
329.902
330.059
330.21
330.353
330.487
330.612
330.727
330.831
330.927
331.012
331.09
331.16
331.225
331.284
331.339
331.391
331.437
331.48
331.521
331.563
331.6
331.626
331.65
331.68
331.709
331.742
331.773
331.79
331.807
331.829
331.849
331.868
331.884
331.9
331.914
331.928
331.941
331.952
331.962
331.971
331.979
331.985
331.991
331.995
331.998
332
332.001
332
331.999
331.997
331.994
331.989
331.984
331.978
331.972
331.964
331.956
331.948
331.939
331.929
331.919
331.909
331.902
331.912
331.998
332.079
332.14
332.185
332.22
332.254
332.292
332.34
332.422
332.628
325.801
326.377
326.911
327.37
327.765
328.108
328.407
328.665
328.863
328.808
326.016
325.461
325.56
325.872
326.248
326.63
326.993
327.327
327.629
327.897
328.133
328.336
328.509
328.654
328.774
328.871
328.949
329.011
329.061
329.103
329.138
329.169
329.196
329.22
329.245
329.274
329.3
329.313
329.326
329.348
329.372
329.404
329.435
329.449
329.465
329.489
329.512
329.534
329.554
329.572
329.589
329.605
329.619
329.63
329.638
329.644
329.648
329.648
329.646
329.641
329.633
329.622
329.608
329.591
329.571
329.548
329.522
329.494
329.463
329.429
329.393
329.355
329.314
329.272
329.228
329.183
329.136
329.087
329.042
329.052
330.028
330.773
331.29
331.64
331.876
332.04
332.165
332.279
332.424
332.701
325.561
326.128
326.655
327.109
327.499
327.838
328.133
328.385
328.571
328.473
325.536
324.928
325.018
325.34
325.732
326.133
326.515
326.867
327.186
327.47
327.719
327.933
328.115
328.266
328.39
328.489
328.567
328.626
328.672
328.707
328.736
328.76
328.782
328.803
328.829
328.864
328.898
328.916
328.935
328.969
329.01
329.062
329.117
329.15
329.186
329.237
329.287
329.339
329.391
329.444
329.498
329.553
329.608
329.662
329.716
329.768
329.82
329.87
329.918
329.965
330.008
330.049
330.087
330.121
330.15
330.175
330.194
330.208
330.216
330.218
330.214
330.203
330.185
330.162
330.132
330.096
330.054
330.008
329.963
329.982
330.777
331.386
331.81
332.097
332.291
332.426
332.533
332.65
332.837
333.205
325.325
325.883
326.404
326.851
327.237
327.571
327.862
328.111
328.291
328.186
325.269
324.658
324.743
325.06
325.45
325.847
326.227
326.579
326.897
327.179
327.427
327.64
327.82
327.969
328.089
328.184
328.257
328.311
328.35
328.377
328.396
328.411
328.424
328.437
328.456
328.486
328.515
328.522
328.529
328.555
328.588
328.635
328.686
328.707
328.731
328.773
328.815
328.859
328.903
328.949
328.995
329.042
329.088
329.134
329.18
329.226
329.272
329.318
329.364
329.411
329.458
329.505
329.553
329.601
329.65
329.699
329.749
329.799
329.849
329.899
329.95
330
330.049
330.098
330.146
330.191
330.235
330.277
330.322
330.427
331.186
331.752
332.139
332.403
332.589
332.727
332.847
332.992
333.24
333.727
325.091
325.642
326.155
326.597
326.978
327.308
327.596
327.841
328.019
327.913
325.032
324.426
324.508
324.821
325.206
325.599
325.975
326.322
326.637
326.917
327.162
327.373
327.55
327.697
327.815
327.909
327.98
328.033
328.07
328.094
328.109
328.12
328.129
328.138
328.154
328.185
328.214
328.215
328.214
328.238
328.267
328.314
328.367
328.381
328.397
328.436
328.474
328.514
328.555
328.596
328.637
328.676
328.712
328.746
328.779
328.81
328.84
328.869
328.897
328.924
328.949
328.973
328.995
329.016
329.036
329.055
329.073
329.09
329.105
329.12
329.134
329.147
329.16
329.173
329.185
329.197
329.209
329.221
329.234
329.292
330.051
330.603
330.976
331.237
331.43
331.589
331.739
331.912
332.163
332.605
324.861
325.403
325.911
326.347
326.722
327.049
327.333
327.575
327.75
327.646
324.803
324.205
324.286
324.595
324.974
325.362
325.733
326.076
326.387
326.664
326.906
327.114
327.289
327.433
327.55
327.642
327.713
327.766
327.803
327.827
327.84
327.847
327.853
327.86
327.875
327.908
327.94
327.937
327.931
327.954
327.983
328.032
328.09
328.102
328.114
328.154
328.194
328.237
328.281
328.324
328.366
328.406
328.443
328.48
328.516
328.552
328.587
328.621
328.653
328.682
328.71
328.737
328.762
328.786
328.809
328.83
328.851
328.87
328.887
328.903
328.917
328.929
328.939
328.948
328.954
328.957
328.957
328.954
328.95
328.987
329.715
330.233
330.571
330.792
330.943
331.057
331.164
331.298
331.513
331.911
324.634
325.168
325.669
326.1
326.47
326.793
327.073
327.313
327.485
327.382
324.579
323.989
324.069
324.374
324.748
325.131
325.497
325.836
326.143
326.416
326.654
326.86
327.032
327.174
327.288
327.379
327.451
327.505
327.544
327.569
327.581
327.586
327.589
327.593
327.608
327.642
327.678
327.674
327.664
327.686
327.716
327.768
327.833
327.844
327.855
327.899
327.944
327.993
328.043
328.092
328.136
328.177
328.217
328.257
328.299
328.34
328.38
328.42
328.458
328.495
328.532
328.569
328.605
328.64
328.676
328.711
328.746
328.782
328.817
328.853
328.888
328.924
328.96
328.996
329.032
329.068
329.104
329.141
329.185
329.287
330.012
330.536
330.882
331.111
331.271
331.395
331.516
331.668
331.915
332.401
324.41
324.936
325.431
325.856
326.222
326.54
326.817
327.053
327.224
327.123
324.358
323.777
323.856
324.157
324.527
324.905
325.266
325.601
325.903
326.173
326.408
326.61
326.78
326.919
327.03
327.119
327.19
327.246
327.287
327.315
327.328
327.332
327.331
327.333
327.345
327.381
327.42
327.415
327.403
327.425
327.456
327.511
327.582
327.594
327.606
327.655
327.708
327.766
327.823
327.875
327.921
327.963
328.005
328.05
328.096
328.142
328.187
328.232
328.275
328.318
328.361
328.404
328.447
328.49
328.533
328.577
328.621
328.665
328.71
328.755
328.801
328.847
328.893
328.94
328.986
329.032
329.078
329.124
329.176
329.287
330.006
330.532
330.884
331.119
331.282
331.407
331.524
331.67
331.922
332.423
324.19
324.708
325.196
325.615
325.977
326.291
326.564
326.798
326.968
326.87
324.146
323.575
323.655
323.953
324.317
324.689
325.045
325.374
325.672
325.936
326.166
326.363
326.528
326.662
326.769
326.853
326.92
326.974
327.018
327.048
327.063
327.065
327.06
327.056
327.063
327.095
327.134
327.127
327.109
327.128
327.158
327.213
327.288
327.302
327.315
327.371
327.433
327.499
327.561
327.613
327.656
327.695
327.735
327.778
327.822
327.866
327.907
327.947
327.985
328.022
328.058
328.093
328.127
328.16
328.193
328.224
328.255
328.285
328.314
328.341
328.367
328.391
328.414
328.434
328.452
328.467
328.479
328.489
328.501
328.567
329.283
329.804
330.15
330.378
330.533
330.647
330.747
330.866
331.069
331.469
323.973
324.483
324.965
325.378
325.735
326.045
326.315
326.547
326.717
326.629
323.959
323.408
323.491
323.784
324.142
324.507
324.853
325.172
325.457
325.708
325.925
326.106
326.255
326.373
326.463
326.531
326.583
326.626
326.661
326.687
326.699
326.695
326.68
326.663
326.657
326.679
326.711
326.696
326.669
326.682
326.708
326.762
326.841
326.861
326.882
326.951
327.029
327.108
327.178
327.232
327.274
327.311
327.35
327.39
327.428
327.463
327.492
327.517
327.538
327.556
327.57
327.583
327.594
327.602
327.61
327.615
327.619
327.622
327.623
327.622
327.619
327.614
327.608
327.599
327.588
327.575
327.558
327.54
327.518
327.534
328.275
328.83
329.211
329.472
329.656
329.792
329.903
330.017
330.186
330.512
323.759
324.261
324.737
325.145
325.497
325.803
326.07
326.301
326.478
326.431
323.96
323.473
323.564
323.844
324.176
324.507
324.815
325.09
325.327
325.526
325.688
325.817
325.917
325.989
326.04
326.075
326.1
326.122
326.145
326.165
326.176
326.173
326.156
326.133
326.118
326.132
326.16
326.142
326.11
326.12
326.143
326.195
326.277
326.304
326.336
326.423
326.522
326.619
326.702
326.767
326.82
326.87
326.919
326.967
327.008
327.039
327.057
327.064
327.062
327.055
327.043
327.029
327.012
326.995
326.977
326.958
326.939
326.92
326.899
326.879
326.857
326.835
326.813
326.789
326.764
326.738
326.71
326.68
326.648
326.66
327.489
328.116
328.551
328.851
329.06
329.209
329.322
329.423
329.551
329.807
323.549
324.043
324.512
324.915
325.263
325.565
325.829
326.06
326.255
326.387
326.328
326.381
326.496
326.631
326.769
326.903
327.03
327.149
327.258
327.358
327.449
327.533
327.608
327.676
327.736
327.789
327.84
327.894
327.955
328.02
328.079
328.121
328.142
328.148
328.158
328.198
328.257
328.257
328.234
328.252
328.273
328.316
328.385
328.379
328.37
328.423
328.48
328.528
328.554
328.561
328.563
328.573
328.594
328.62
328.646
328.668
328.687
328.701
328.714
328.724
328.733
328.739
328.745
328.749
328.752
328.754
328.755
328.755
328.755
328.754
328.752
328.75
328.747
328.744
328.74
328.736
328.73
328.725
328.722
328.732
328.808
328.878
328.933
328.974
329.008
329.036
329.064
329.101
329.172
329.373
323.34
323.826
324.29
324.687
325.03
325.328
325.59
325.82
326.021
326.193
326.33
326.463
326.595
326.721
326.841
326.952
327.056
327.153
327.244
327.328
327.407
327.481
327.551
327.615
327.674
327.727
327.778
327.831
327.893
327.962
328.031
328.087
328.121
328.134
328.145
328.184
328.244
328.248
328.226
328.243
328.261
328.298
328.365
328.359
328.348
328.4
328.452
328.487
328.498
328.492
328.489
328.498
328.521
328.548
328.574
328.597
328.617
328.636
328.653
328.668
328.682
328.695
328.706
328.716
328.725
328.733
328.739
328.745
328.75
328.753
328.756
328.758
328.76
328.761
328.761
328.76
328.759
328.757
328.756
328.758
328.768
328.781
328.793
328.805
328.817
328.83
328.848
328.874
328.939
329.151
323.133
323.611
324.068
324.461
324.799
325.094
325.352
325.579
325.781
325.96
326.119
326.264
326.399
326.523
326.639
326.746
326.846
326.939
327.026
327.107
327.184
327.256
327.325
327.389
327.449
327.504
327.555
327.605
327.663
327.731
327.804
327.868
327.912
327.932
327.944
327.978
328.036
328.039
328.015
328.03
328.043
328.072
328.138
328.135
328.128
328.182
328.231
328.259
328.263
328.259
328.263
328.284
328.316
328.35
328.382
328.411
328.437
328.462
328.485
328.507
328.528
328.546
328.563
328.579
328.593
328.606
328.618
328.629
328.638
328.646
328.653
328.66
328.665
328.67
328.674
328.677
328.679
328.681
328.683
328.686
328.692
328.699
328.707
328.717
328.729
328.742
328.76
328.788
328.866
329.124
322.927
323.397
323.848
324.235
324.569
324.86
325.114
325.339
325.54
325.719
325.88
326.026
326.16
326.284
326.398
326.503
326.602
326.693
326.779
326.859
326.935
327.006
327.074
327.139
327.201
327.258
327.311
327.36
327.414
327.477
327.548
327.616
327.667
327.694
327.707
327.738
327.79
327.791
327.768
327.776
327.778
327.794
327.846
327.84
327.83
327.879
327.918
327.934
327.93
327.926
327.935
327.959
327.992
328.025
328.054
328.08
328.106
328.13
328.153
328.175
328.194
328.211
328.227
328.241
328.253
328.264
328.273
328.281
328.288
328.294
328.3
328.305
328.309
328.314
328.318
328.322
328.326
328.331
328.336
328.342
328.351
328.362
328.376
328.391
328.41
328.431
328.457
328.495
328.588
328.865
322.722
323.184
323.629
324.011
324.34
324.627
324.878
325.1
325.298
325.475
325.635
325.781
325.914
326.036
326.149
326.253
326.351
326.442
326.527
326.606
326.681
326.752
326.82
326.885
326.948
327.009
327.066
327.118
327.171
327.23
327.297
327.365
327.42
327.452
327.467
327.493
327.54
327.537
327.489
327.477
327.452
327.435
327.473
327.447
327.417
327.445
327.463
327.459
327.442
327.43
327.434
327.448
327.466
327.48
327.492
327.504
327.515
327.525
327.535
327.542
327.549
327.554
327.559
327.563
327.568
327.573
327.578
327.583
327.589
327.596
327.604
327.613
327.622
327.633
327.645
327.657
327.67
327.685
327.7
327.718
327.737
327.759
327.784
327.812
327.842
327.875
327.913
327.966
328.072
328.34
322.519
322.973
323.412
323.789
324.114
324.397
324.645
324.864
325.059
325.235
325.393
325.537
325.669
325.79
325.901
326.005
326.102
326.192
326.276
326.356
326.43
326.501
326.567
326.632
326.696
326.76
326.823
326.882
326.939
326.998
327.062
327.129
327.185
327.22
327.233
327.256
327.298
327.289
327.286
327.214
327.099
326.981
326.857
326.761
326.677
326.657
326.631
326.59
326.545
326.511
326.493
326.483
326.475
326.47
326.47
326.475
326.487
326.501
326.518
326.536
326.556
326.578
326.6
326.624
326.648
326.673
326.699
326.725
326.752
326.778
326.806
326.833
326.86
326.888
326.916
326.945
326.973
327.002
327.031
327.061
327.093
327.126
327.162
327.199
327.239
327.281
327.328
327.39
327.5
327.743
322.322
322.768
323.202
323.573
323.894
324.173
324.418
324.634
324.827
325
325.157
325.299
325.429
325.549
325.66
325.763
325.859
325.948
326.033
326.112
326.187
326.257
326.323
326.387
326.45
326.515
326.583
326.65
326.716
326.78
326.845
326.912
326.971
327.007
327.02
327.038
327.074
327.023
326.616
326.31
325.938
325.616
325.615
325.438
325.302
325.259
325.23
325.202
325.185
325.185
325.2
325.225
325.257
325.296
325.345
325.401
325.461
325.52
325.579
325.636
325.692
325.746
325.799
325.851
325.901
325.949
325.996
326.042
326.087
326.131
326.173
326.215
326.255
326.295
326.334
326.372
326.409
326.447
326.484
326.522
326.56
326.6
326.642
326.684
326.728
326.774
326.825
326.891
326.998
327.217
322.136
322.574
323.003
323.37
323.686
323.961
324.203
324.417
324.608
324.779
324.934
325.075
325.204
325.322
325.432
325.535
325.63
325.719
325.803
325.883
325.958
326.028
326.095
326.157
326.219
326.283
326.351
326.423
326.496
326.568
326.639
326.71
326.775
326.82
326.838
326.853
326.881
326.792
326.916
326.068
325.266
324.713
323.845
323.707
323.684
323.771
323.87
323.968
324.068
324.17
324.271
324.368
324.464
324.562
324.661
324.758
324.851
324.938
325.018
325.094
325.166
325.233
325.298
325.358
325.417
325.472
325.526
325.578
325.628
325.677
325.724
325.77
325.814
325.858
325.9
325.942
325.982
326.022
326.062
326.102
326.142
326.184
326.226
326.27
326.315
326.362
326.415
326.483
326.585
326.785
321.969
322.401
322.824
323.187
323.5
323.772
324.011
324.222
324.411
324.58
324.733
324.873
325.001
325.119
325.228
325.329
325.424
325.514
325.598
325.677
325.753
325.824
325.892
325.955
326.015
326.076
326.141
326.212
326.288
326.365
326.442
326.519
326.594
326.656
326.692
326.712
326.711
326.316
323.867
322.444
321.648
321.398
322.212
322.437
322.637
322.905
323.15
323.367
323.563
323.736
323.886
324.019
324.142
324.259
324.37
324.473
324.567
324.65
324.727
324.799
324.867
324.932
324.995
325.055
325.113
325.169
325.223
325.275
325.325
325.373
325.42
325.466
325.51
325.553
325.595
325.636
325.676
325.716
325.755
325.794
325.833
325.873
325.914
325.956
325.999
326.044
326.096
326.161
326.259
326.446
321.83
322.256
322.676
323.035
323.345
323.614
323.851
324.061
324.247
324.415
324.567
324.706
324.832
324.949
325.058
325.159
325.254
325.343
325.427
325.507
325.584
325.656
325.725
325.79
325.851
325.91
325.97
326.035
326.108
326.186
326.265
326.346
326.43
326.511
326.574
326.605
326.565
325.746
318.555
317.116
316.55
316.706
321.448
322.014
322.272
322.565
322.826
323.068
323.289
323.484
323.655
323.807
323.948
324.076
324.192
324.296
324.388
324.472
324.549
324.622
324.691
324.757
324.819
324.879
324.936
324.991
325.043
325.093
325.142
325.188
325.234
325.278
325.32
325.362
325.403
325.444
325.483
325.522
325.561
325.599
325.638
325.677
325.717
325.757
325.798
325.842
325.892
325.955
326.049
326.227
321.726
322.149
322.565
322.922
323.23
323.498
323.733
323.942
324.128
324.295
324.446
324.584
324.71
324.827
324.935
325.036
325.13
325.219
325.303
325.383
325.46
325.534
325.605
325.672
325.734
325.793
325.852
325.913
325.98
326.055
326.135
326.217
326.305
326.401
326.487
326.525
326.457
325.304
314.184
312.813
312.476
312.977
321.051
321.89
322.158
322.428
322.661
322.886
323.096
323.288
323.462
323.624
323.775
323.916
324.044
324.16
324.264
324.36
324.449
324.531
324.607
324.678
324.744
324.806
324.863
324.918
324.969
325.018
325.066
325.111
325.156
325.2
325.244
325.286
325.329
325.371
325.412
325.453
325.494
325.535
325.576
325.617
325.659
325.701
325.744
325.789
325.841
325.906
326.001
326.178
321.661
322.08
322.495
322.85
323.157
323.424
323.659
323.868
324.054
324.222
324.374
324.512
324.639
324.757
324.865
324.966
325.061
325.15
325.234
325.315
325.392
325.466
325.538
325.606
325.671
325.731
325.79
325.85
325.916
325.99
326.069
326.151
326.231
326.328
326.42
326.441
326.348
325.069
312.354
311.025
310.816
311.518
321.162
322.122
322.351
322.552
322.711
322.874
323.038
323.196
323.35
323.503
323.655
323.803
323.943
324.073
324.194
324.307
324.422
324.519
324.605
324.684
324.755
324.821
324.881
324.937
324.99
325.041
325.09
325.138
325.186
325.234
325.281
325.329
325.376
325.424
325.473
325.521
325.569
325.618
325.667
325.716
325.767
325.818
325.869
325.922
325.98
326.049
326.152
326.344
321.63
322.048
322.462
322.816
323.122
323.389
323.624
323.833
324.02
324.188
324.342
324.482
324.611
324.73
324.841
324.944
325.041
325.132
325.217
325.299
325.378
325.453
325.527
325.597
325.663
325.725
325.783
325.842
325.906
325.979
326.058
326.127
324.498
324.606
324.695
324.776
324.849
324.917
324.981
325.04
325.098
325.153
325.208
325.263
325.319
325.375
325.432
325.489
325.547
325.606
325.667
325.729
325.791
325.853
325.915
325.979
326.045
326.113
326.182
326.253
326.33
326.425
326.567
326.829
321.626
322.044
322.457
322.811
323.116
323.382
323.617
323.825
324.011
324.18
324.334
324.475
324.605
324.726
324.839
324.945
325.045
325.139
325.229
325.315
325.397
325.477
325.554
325.629
325.7
325.765
325.827
325.882
325.939
326.001
326.06
326.103
324.73
324.815
324.887
324.956
325.024
325.09
325.155
325.22
325.285
325.35
325.415
325.482
325.552
325.622
325.691
325.759
325.827
325.897
325.973
326.055
326.141
326.229
326.317
326.404
326.495
326.596
326.713
326.847
327
327.177
327.399
327.743
321.636
322.054
322.467
322.821
323.126
323.392
323.626
323.833
324.018
324.186
324.338
324.478
324.608
324.728
324.842
324.949
325.05
325.147
325.239
325.329
325.416
325.502
325.586
325.668
325.747
325.818
325.864
325.909
325.946
325.976
326.005
325.985
324.977
325.046
325.108
325.173
325.241
325.311
325.383
325.457
325.534
325.613
325.693
325.772
325.851
325.933
326.022
326.116
326.214
326.311
326.406
326.504
326.611
326.731
326.866
327.009
327.15
327.277
327.38
327.46
327.524
327.588
327.684
327.896
321.649
322.068
322.482
322.836
323.141
323.408
323.641
323.848
324.033
324.2
324.351
324.49
324.618
324.737
324.849
324.955
325.056
325.152
325.245
325.336
325.425
325.514
325.602
325.689
325.774
325.851
325.962
325.98
325.961
325.909
325.771
325.641
325.18
325.273
325.356
325.438
325.523
325.614
325.709
325.804
325.899
325.994
326.092
326.197
326.308
326.421
326.534
326.647
326.76
326.878
326.993
327.097
327.179
327.237
327.273
327.289
327.29
327.281
327.266
327.251
327.243
327.254
327.307
327.468
321.658
322.077
322.492
322.846
323.153
323.419
323.654
323.861
324.047
324.214
324.366
324.505
324.633
324.752
324.864
324.969
325.07
325.166
325.259
325.35
325.44
325.531
325.622
325.712
325.796
325.847
325.611
325.495
325.312
325.111
325.123
324.914
325.57
325.691
325.804
325.918
326.029
326.136
326.242
326.35
326.454
326.551
326.642
326.722
326.79
326.846
326.89
326.921
326.942
326.951
326.951
326.941
326.924
326.903
326.88
326.858
326.836
326.818
326.803
326.796
326.8
326.823
326.882
327.035
321.661
322.08
322.494
322.849
323.155
323.422
323.657
323.865
324.051
324.219
324.371
324.511
324.64
324.76
324.872
324.979
325.08
325.178
325.273
325.366
325.459
325.552
325.646
325.739
325.818
325.859
326.337
325.895
325.379
324.962
324.06
323.9
325.822
325.914
325.988
326.055
326.116
326.173
326.227
326.277
326.323
326.363
326.397
326.424
326.444
326.458
326.466
326.469
326.468
326.462
326.453
326.442
326.43
326.419
326.411
326.405
326.402
326.402
326.406
326.415
326.435
326.47
326.538
326.691
321.657
322.076
322.491
322.845
323.151
323.418
323.653
323.861
324.047
324.214
324.367
324.507
324.636
324.756
324.869
324.976
325.078
325.177
325.273
325.368
325.463
325.559
325.656
325.747
325.788
325.546
323.696
322.634
322.021
321.88
322.759
323.015
325.65
325.709
325.749
325.782
325.812
325.84
325.868
325.895
325.92
325.944
325.964
325.981
325.996
326.009
326.018
326.025
326.029
326.031
326.032
326.033
326.034
326.037
326.041
326.048
326.058
326.072
326.089
326.112
326.144
326.188
326.259
326.413
321.651
322.07
322.484
322.838
323.144
323.411
323.645
323.853
324.039
324.206
324.359
324.498
324.627
324.748
324.861
324.968
325.07
325.169
325.266
325.362
325.458
325.555
325.651
325.73
325.705
325.016
318.256
317.025
316.581
316.862
322.022
322.686
325.362
325.407
325.433
325.456
325.476
325.497
325.517
325.538
325.559
325.579
325.599
325.617
325.634
325.65
325.665
325.678
325.691
325.704
325.716
325.729
325.743
325.758
325.774
325.794
325.815
325.839
325.866
325.899
325.938
325.987
326.062
326.217
321.645
322.064
322.478
322.832
323.138
323.404
323.638
323.846
324.031
324.198
324.35
324.49
324.619
324.739
324.852
324.959
325.061
325.16
325.257
325.353
325.449
325.545
325.638
325.704
325.615
324.533
313.571
312.267
312.007
312.657
321.509
322.504
325.237
325.27
325.285
325.297
325.307
325.318
325.33
325.343
325.357
325.372
325.388
325.404
325.421
325.437
325.454
325.472
325.489
325.508
325.526
325.546
325.566
325.588
325.612
325.637
325.665
325.695
325.729
325.766
325.809
325.861
325.94
326.098
321.641
322.06
322.474
322.828
323.134
323.4
323.634
323.842
324.027
324.194
324.346
324.485
324.614
324.733
324.846
324.952
325.054
325.152
325.248
325.342
325.437
325.531
325.62
325.674
325.546
324.273
311.454
310.11
309.954
310.818
321.415
322.551
325.292
325.317
325.323
325.324
325.322
325.32
325.319
325.319
325.321
325.325
325.331
325.339
325.349
325.361
325.375
325.39
325.406
325.424
325.443
325.464
325.486
325.509
325.535
325.563
325.593
325.626
325.661
325.701
325.746
325.8
325.882
326.046
321.64
322.058
322.472
322.827
323.132
323.399
323.633
323.841
324.027
324.194
324.346
324.485
324.613
324.732
324.844
324.95
325.05
325.146
325.24
325.333
325.424
325.515
325.597
325.64
325.496
324.211
311.016
309.628
309.522
310.555
322.222
323.245
325.469
325.493
325.494
325.484
325.468
325.451
325.432
325.415
325.401
325.39
325.382
325.378
325.378
325.38
325.385
325.393
325.404
325.417
325.432
325.449
325.469
325.491
325.515
325.542
325.572
325.604
325.641
325.681
325.725
325.78
325.866
326.037
321.641
322.059
322.473
322.828
323.133
323.4
323.634
323.842
324.028
324.195
324.347
324.486
324.614
324.733
324.845
324.949
325.048
325.143
325.236
325.326
325.415
325.501
325.576
325.61
325.456
324.179
310.954
309.557
309.473
310.633
323.155
324.181
325.688
325.712
325.703
325.675
325.634
325.594
325.554
325.517
325.485
325.458
325.437
325.421
325.41
325.403
325.4
325.401
325.406
325.414
325.425
325.439
325.456
325.476
325.499
325.526
325.555
325.588
325.625
325.665
325.711
325.768
325.857
326.035
321.643
322.062
322.476
322.83
323.136
323.402
323.636
323.844
324.029
324.197
324.348
324.487
324.615
324.734
324.844
324.948
325.046
325.14
325.231
325.319
325.405
325.487
325.557
325.585
325.429
324.172
311.019
309.651
309.585
310.798
323.761
324.893
325.855
325.858
325.808
325.731
325.66
325.58
325.508
325.448
325.399
325.361
325.334
325.314
325.301
325.294
325.292