/*--------------------------------*- C++ -*----------------------------------*\
| =========                 |                                                 |
| \\      /  F ield         | OpenFOAM: The Open Source CFD Toolbox           |
|  \\    /   O peration     | Version:  v2012                                 |
|   \\  /    A nd           | Website:  www.openfoam.com                      |
|    \\/     M anipulation  |                                                 |
\*---------------------------------------------------------------------------*/
FoamFile
{
    version     2.0;
    format      ascii;
    class       volScalarField;
    location    "100/concrete";
    object      T;
}
// * * * * * * * * * * * * * * * * * * * * * * * * * * * * * * * * * * * * * //

dimensions      [0 0 0 1 0 0 0];


internalField   nonuniform List<scalar> 
1924
(
316.984
317.322
317.71
317.912
318.27
317.713
306.028
305.123
305.064
305.703
315.986
316.239
315.741
315.371
314.867
314.534
314.385
314.353
314.371
314.396
314.398
314.366
314.308
314.254
314.232
314.258
317.116
317.517
317.98
318.187
318.842
318.609
307.448
306.564
306.418
306.957
317.761
317.816
316.943
316.384
315.602
315.063
314.799
314.709
314.694
314.698
314.686
314.636
314.551
314.459
314.396
314.389
317.168
317.547
318.064
318.393
319.671
319.667
308.315
307.354
307.274
308.021
319.312
319.16
317.499
316.735
315.813
315.241
314.996
314.931
314.93
314.942
314.936
314.889
314.798
314.689
314.598
314.562
317.043
317.319
317.847
318.32
319.919
319.935
310.165
309.272
309.249
310.196
321.633
321.87
318.554
317.269
316.01
315.306
315.046
314.989
314.997
315.021
315.034
315.014
314.952
314.862
314.774
314.729
316.701
316.906
317.37
316.842
301.282
299.672
298.614
298.4
298.395
298.61
299.768
301.323
316.536
316.535
315.556
314.979
314.843
314.897
314.955
315.005
315.045
315.059
315.038
314.985
314.92
314.877
316.335
316.688
317.397
316.858
299.452
297.595
297.284
297.228
297.225
297.274
297.56
299.292
316.009
316.226
315.373
314.863
314.702
314.714
314.779
314.854
314.945
314.999
315.015
314.999
314.962
314.935
315.991
316.567
317.499
317.012
299.261
297.357
297.122
297.093
297.091
297.111
297.308
299.059
315.885
316.077
315.266
314.794
314.666
314.692
314.755
314.826
314.911
314.99
315.028
315.036
315.027
315.022
315.711
316.44
317.552
317.196
299.25
297.33
297.103
297.078
297.076
297.092
297.279
299.028
315.838
315.985
315.199
314.814
314.763
314.841
314.928
315.002
315.074
315.141
315.166
315.169
315.168
315.183
315.362
316.128
317.295
317.072
299.231
297.321
297.097
297.073
297.07
297.085
297.27
299.016
315.849
315.962
315.227
314.932
314.96
315.089
315.208
315.294
315.358
315.4
315.397
315.383
315.383
315.42
315.098
315.703
316.732
316.64
299.173
297.299
297.079
297.053
297.05
297.064
297.245
298.984
315.848
315.966
315.36
315.194
315.253
315.39
315.52
315.614
315.68
315.695
315.684
315.674
315.69
315.758
315.141
315.348
315.985
315.993
299.069
297.253
297.029
296.992
296.983
296.994
297.173
298.898
315.712
315.945
315.566
315.512
315.555
315.645
315.75
315.848
315.902
315.923
315.945
315.991
316.07
316.185
315.458
315.293
315.28
314.922
299.11
297.384
297.089
296.954
296.912
296.918
297.102
298.801
315.299
315.983
315.74
315.65
315.636
315.692
315.791
315.891
315.965
316.028
316.123
316.279
316.479
316.657
315.853
315.609
315.167
314.015
302.293
300.783
299.824
298.691
298.404
298.437
298.714
300.2
314.302
315.431
315.475
315.452
315.474
315.556
315.681
315.816
315.938
316.062
316.255
316.561
316.936
317.2
316.058
315.884
315.496
314.294
302.626
301.396
300.957
300.706
300.58
300.54
300.679
301.738
313.77
314.874
315.097
315.215
315.328
315.458
315.605
315.758
315.907
316.081
316.365
316.831
317.423
317.818
316.171
316.057
315.749
314.549
302.442
301.324
301.033
300.86
300.739
300.679
300.768
301.758
313.988
315.084
315.291
315.39
315.478
315.575
315.681
315.797
315.926
316.102
316.433
317.023
317.838
318.39
316.26
316.186
315.96
314.815
302.336
301.25
301.028
300.904
300.821
300.789
300.882
301.854
314.193
315.274
315.464
315.559
315.645
315.729
315.809
315.887
315.975
316.118
316.435
317.07
318.046
318.783
316.351
316.292
316.121
315.107
303.463
302.447
302.26
302.167
302.111
302.097
302.185
303.082
314.527
315.52
315.687
315.773
315.853
315.927
315.99
316.042
316.091
316.176
316.413
316.975
317.944
318.568
316.445
316.397
316.273
315.496
306.477
305.663
305.515
305.446
305.406
305.393
305.458
306.159
315.043
315.82
315.946
316.01
316.073
316.131
316.182
316.223
316.252
316.29
316.416
316.799
317.577
317.917
316.526
316.492
316.416
315.942
310.606
310.095
309.999
309.958
309.931
309.916
309.949
310.376
315.646
316.128
316.206
316.244
316.283
316.321
316.357
316.389
316.417
316.438
316.481
316.651
317.084
316.99
316.59
316.57
316.535
316.331
314.299
314.071
314.026
314.007
313.992
313.978
313.987
314.164
316.168
316.382
316.418
316.436
316.455
316.475
316.495
316.517
316.542
316.569
316.591
316.617
316.656
315.988
316.639
316.629
316.621
316.587
316.521
316.474
316.461
316.456
316.449
316.437
316.43
316.451
316.505
316.551
316.562
316.569
316.578
316.588
316.598
316.609
316.626
316.653
316.684
316.69
316.541
315.42
316.683
316.677
316.682
316.715
317.283
317.307
317.31
317.311
317.306
317.295
317.281
317.24
316.668
316.65
316.65
316.652
316.658
316.664
316.67
316.676
316.686
316.704
316.727
316.74
316.638
315.573
316.726
316.721
316.729
316.768
317.224
317.254
317.262
317.264
317.259
317.247
317.231
317.187
316.73
316.71
316.708
316.709
316.712
316.716
316.72
316.726
316.736
316.752
316.769
316.767
316.64
315.554
316.77
316.766
316.774
316.799
316.973
316.989
316.996
316.997
316.991
316.979
316.964
316.936
316.763
316.759
316.756
316.755
316.756
316.758
316.762
316.768
316.778
316.794
316.81
316.806
316.689
315.684
316.817
316.812
316.82
316.835
316.832
316.835
316.842
316.841
316.834
316.823
316.81
316.794
316.801
316.808
316.804
316.801
316.799
316.799
316.801
316.808
316.819
316.834
316.847
316.843
316.745
315.929
316.863
316.859
316.867
316.88
316.826
316.825
316.831
316.829
316.823
316.813
316.802
316.791
316.85
316.86
316.855
316.849
316.845
316.843
316.844
316.85
316.861
316.875
316.885
316.882
316.814
316.271
316.909
316.905
316.915
316.929
316.885
316.884
316.889
316.888
316.883
316.875
316.865
316.855
316.904
316.914
316.906
316.898
316.892
316.889
316.89
316.895
316.905
316.916
316.923
316.921
316.884
316.611
316.956
316.953
316.964
316.979
316.954
316.952
316.958
316.958
316.954
316.948
316.939
316.929
316.96
316.968
316.958
316.949
316.942
316.939
316.94
316.944
316.951
316.959
316.964
316.963
316.947
316.869
317.006
317.005
317.017
317.032
317.015
317.012
317.018
317.02
317.018
317.013
317.005
316.995
317.017
317.024
317.014
317.003
316.996
316.993
316.993
316.997
317.002
317.006
317.009
317.008
317.005
317.021
317.062
317.063
317.076
317.091
317.074
317.07
317.075
317.078
317.078
317.075
317.068
317.058
317.079
317.086
317.076
317.065
317.058
317.054
317.055
317.057
317.06
317.062
317.061
317.06
317.06
317.101
317.129
317.132
317.145
317.159
317.141
317.135
317.139
317.144
317.145
317.144
317.139
317.13
317.15
317.157
317.148
317.137
317.13
317.127
317.127
317.128
317.129
317.128
317.125
317.122
317.123
317.155
317.212
317.216
317.229
317.241
317.224
317.217
317.22
317.225
317.228
317.227
317.224
317.216
317.236
317.242
317.234
317.224
317.218
317.215
317.215
317.214
317.212
317.209
317.204
317.2
317.2
317.22
317.315
317.32
317.332
317.343
317.327
317.321
317.324
317.328
317.331
317.331
317.329
317.323
317.34
317.346
317.339
317.331
317.327
317.324
317.322
317.32
317.316
317.31
317.303
317.298
317.297
317.311
317.443
317.448
317.459
317.469
317.457
317.451
317.454
317.457
317.46
317.461
317.459
317.454
317.468
317.473
317.468
317.463
317.46
317.457
317.455
317.45
317.444
317.435
317.427
317.422
317.421
317.433
317.601
317.605
317.616
317.624
317.617
317.613
317.615
317.618
317.619
317.62
317.619
317.615
317.625
317.629
317.627
317.624
317.623
317.62
317.616
317.61
317.601
317.592
317.583
317.577
317.576
317.589
317.795
317.799
317.809
317.817
317.813
317.812
317.814
317.816
317.817
317.817
317.816
317.813
317.819
317.823
317.822
317.822
317.822
317.819
317.814
317.806
317.796
317.785
317.777
317.772
317.771
317.784
318.043
318.046
318.056
318.064
318.065
318.066
318.068
318.069
318.069
318.068
318.066
318.064
318.068
318.071
318.072
318.074
318.074
318.071
318.064
318.054
318.043
318.034
318.026
318.021
318.021
318.032
319.03
319.436
319.887
320.098
320.521
320.213
306.294
305.592
305.514
305.921
318.207
318.183
317.597
317.2
316.638
316.279
316.132
316.114
316.143
316.175
316.18
316.145
316.084
316.025
316.001
316.026
319.183
319.658
320.187
320.39
321.158
321.228
307.988
307.335
307.166
307.424
320.285
320.014
318.999
318.416
317.544
316.955
316.674
316.579
316.56
316.56
316.543
316.486
316.39
316.287
316.214
316.199
319.232
319.674
320.253
320.583
322.112
322.436
308.86
308.107
308.024
308.535
322.032
321.515
319.569
318.779
317.767
317.162
316.912
316.848
316.844
316.852
316.841
316.785
316.681
316.557
316.454
316.406
319.075
319.388
319.973
320.529
322.924
323.265
311.409
310.652
310.629
311.431
325.41
325.41
320.845
319.388
317.969
317.203
316.942
316.891
316.901
316.926
316.939
316.916
316.847
316.748
316.651
316.596
318.652
318.884
319.432
319.26
300.251
298.795
297.84
297.656
297.651
297.836
298.887
300.298
318.939
318.542
317.415
316.793
316.655
316.753
316.83
316.891
316.937
316.955
316.934
316.879
316.809
316.76
318.196
318.608
319.475
319.424
298.59
296.913
296.646
296.598
296.596
296.637
296.884
298.45
318.463
318.224
317.228
316.674
316.503
316.518
316.59
316.673
316.786
316.855
316.879
316.866
316.831
316.801
317.778
318.452
319.595
319.639
298.426
296.708
296.506
296.482
296.48
296.497
296.667
298.249
318.348
318.064
317.111
316.593
316.459
316.49
316.558
316.635
316.725
316.825
316.875
316.89
316.887
316.883
317.458
318.304
319.665
319.882
298.418
296.686
296.491
296.469
296.468
296.481
296.642
298.223
318.3
317.963
317.034
316.613
316.564
316.654
316.75
316.829
316.903
316.989
317.023
317.031
317.037
317.056
317.072
317.953
319.371
319.735
298.401
296.678
296.486
296.465
296.463
296.475
296.634
298.213
318.325
317.946
317.073
316.751
316.79
316.936
317.067
317.158
317.223
317.281
317.283
317.271
317.275
317.319
316.797
317.484
318.73
319.219
298.349
296.66
296.47
296.448
296.446
296.457
296.613
298.186
318.349
317.976
317.248
317.071
317.136
317.283
317.421
317.522
317.595
317.615
317.605
317.597
317.62
317.7
316.889
317.107
317.885
318.477
298.259
296.62
296.428
296.396
296.389
296.398
296.552
298.112
318.229
317.986
317.52
317.464
317.502
317.588
317.689
317.795
317.852
317.871
317.893
317.946
318.04
318.17
317.296
317.09
317.102
317.228
298.308
296.753
296.496
296.375
296.338
296.343
296.502
298.038
317.795
318.105
317.773
317.654
317.617
317.661
317.756
317.856
317.929
317.991
318.091
318.264
318.488
318.679
317.783
317.503
317.028
316.085
302.364
301.042
300.025
298.632
298.304
298.356
298.634
299.921
316.592
317.461
317.456
317.415
317.427
317.509
317.64
317.782
317.908
318.038
318.244
318.58
318.995
319.266
318.03
317.84
317.45
316.465
302.724
301.716
301.286
301.033
300.903
300.858
300.968
301.776
315.915
316.778
316.984
317.117
317.249
317.397
317.56
317.727
317.887
318.07
318.377
318.886
319.537
319.93
318.167
318.049
317.759
316.794
302.522
301.649
301.376
301.191
301.058
300.988
301.041
301.769
316.203
317.05
317.23
317.337
317.439
317.547
317.665
317.79
317.925
318.111
318.466
319.107
319.996
320.537
318.276
318.206
318.014
317.123
302.378
301.545
301.347
301.213
301.121
301.083
301.14
301.847
316.445
317.274
317.435
317.538
317.638
317.734
317.824
317.908
317.998
318.144
318.479
319.161
320.222
320.926
318.389
318.335
318.2
317.429
303.648
302.863
302.7
302.599
302.536
302.517
302.571
303.225
316.794
317.557
317.696
317.79
317.884
317.97
318.041
318.097
318.144
318.224
318.465
319.058
320.112
320.73
318.503
318.461
318.367
317.782
307.124
306.489
306.361
306.288
306.244
306.226
306.262
306.774
317.294
317.892
317.997
318.067
318.139
318.208
318.266
318.309
318.337
318.366
318.483
318.873
319.723
320.158
318.6
318.572
318.515
318.162
311.911
311.513
311.433
311.392
311.363
311.345
311.359
311.669
317.858
318.231
318.295
318.336
318.381
318.425
318.466
318.501
318.528
318.542
318.57
318.727
319.204
319.29
318.672
318.658
318.634
318.485
316.18
316.005
315.972
315.957
315.944
315.929
315.928
316.054
318.337
318.505
318.534
318.553
318.574
318.597
318.619
318.641
318.667
318.691
318.704
318.713
318.765
318.302
318.725
318.721
318.718
318.697
318.714
318.681
318.677
318.679
318.675
318.664
318.655
318.666
318.643
318.683
318.692
318.698
318.708
318.719
318.729
318.74
318.757
318.782
318.81
318.812
318.679
317.787
318.771
318.772
318.778
318.807
319.537
319.56
319.57
319.579
319.579
319.57
319.557
319.523
318.793
318.784
318.785
318.786
318.791
318.797
318.804
318.81
318.819
318.833
318.853
318.867
318.806
318.018
318.816
318.818
318.828
318.861
319.419
319.446
319.461
319.47
319.471
319.462
319.447
319.411
318.856
318.845
318.844
318.844
318.847
318.851
318.857
318.863
318.872
318.884
318.897
318.896
318.806
317.995
318.862
318.865
318.876
318.9
319.102
319.118
319.131
319.139
319.139
319.131
319.118
319.093
318.895
318.897
318.894
318.893
318.894
318.897
318.902
318.909
318.917
318.929
318.94
318.939
318.859
318.111
318.911
318.915
318.926
318.944
318.932
318.938
318.95
318.955
318.953
318.947
318.937
318.922
318.941
318.95
318.946
318.943
318.942
318.943
318.947
318.953
318.963
318.973
318.982
318.979
318.912
318.306
318.96
318.964
318.978
318.995
318.928
318.93
318.94
318.944
318.942
318.938
318.93
318.92
318.997
319.008
319.002
318.996
318.993
318.992
318.994
319
319.009
319.018
319.025
319.023
318.977
318.576
319.009
319.015
319.031
319.051
319
319.001
319.01
319.013
319.012
319.009
319.004
318.995
319.057
319.067
319.059
319.05
319.046
319.043
319.044
319.049
319.056
319.063
319.069
319.068
319.043
318.845
319.06
319.068
319.086
319.109
319.082
319.082
319.09
319.093
319.092
319.091
319.088
319.08
319.119
319.129
319.118
319.108
319.101
319.098
319.098
319.101
319.106
319.112
319.115
319.115
319.107
319.052
319.116
319.127
319.147
319.17
319.154
319.153
319.16
319.164
319.164
319.164
319.162
319.155
319.184
319.194
319.183
319.171
319.163
319.158
319.158
319.159
319.162
319.165
319.167
319.168
319.168
319.183
319.181
319.195
319.216
319.239
319.224
319.221
319.228
319.232
319.235
319.235
319.233
319.227
319.256
319.266
319.256
319.243
319.233
319.228
319.226
319.226
319.228
319.229
319.229
319.229
319.232
319.264
319.261
319.277
319.299
319.321
319.304
319.299
319.306
319.312
319.315
319.316
319.315
319.31
319.339
319.351
319.341
319.328
319.319
319.312
319.309
319.308
319.307
319.306
319.305
319.305
319.308
319.333
319.36
319.377
319.399
319.419
319.403
319.398
319.404
319.411
319.415
319.417
319.417
319.413
319.441
319.452
319.444
319.433
319.423
319.416
319.412
319.409
319.406
319.403
319.401
319.399
319.401
319.417
319.483
319.501
319.522
319.54
319.527
319.523
319.529
319.536
319.541
319.544
319.544
319.541
319.565
319.576
319.57
319.561
319.552
319.545
319.54
319.535
319.53
319.525
319.521
319.519
319.519
319.53
319.635
319.653
319.673
319.69
319.681
319.679
319.685
319.692
319.697
319.7
319.701
319.698
319.718
319.727
319.724
319.717
319.71
319.703
319.697
319.69
319.683
319.677
319.671
319.668
319.668
319.677
319.822
319.839
319.858
319.873
319.87
319.87
319.877
319.883
319.888
319.891
319.892
319.89
319.905
319.912
319.911
319.907
319.902
319.896
319.888
319.88
319.872
319.864
319.858
319.854
319.854
319.862
320.05
320.066
320.084
320.098
320.1
320.103
320.11
320.116
320.12
320.123
320.124
320.123
320.133
320.139
320.139
320.137
320.134
320.129
320.121
320.112
320.103
320.094
320.088
320.084
320.083
320.091
320.331
320.347
320.364
320.378
320.385
320.391
320.398
320.404
320.408
320.41
320.411
320.41
320.416
320.42
320.422
320.422
320.42
320.415
320.407
320.397
320.388
320.379
320.373
320.369
320.367
320.374
)
;

boundaryField
{
    concrete_to_air
    {
        type            compressible::turbulentTemperatureRadCoupledMixed;
        refValue        nonuniform List<scalar> 
898
(
311.593
311.616
311.63
311.624
311.63
311.641
311.427
311.2
310.966
310.752
310.748
310.737
310.714
310.679
310.63
310.571
310.508
310.446
310.388
310.338
310.297
310.264
310.24
310.224
310.216
310.215
311.616
311.613
311.588
311.531
311.528
311.551
311.376
311.214
311.066
310.929
310.997
311.044
311.061
311.051
310.997
310.912
310.814
310.716
310.623
310.541
310.47
310.412
310.366
310.33
310.305
310.29
311.593
311.545
311.474
311.36
311.389
311.457
311.265
311.084
310.925
310.792
310.931
311.037
311.111
311.133
311.113
311.059
310.979
310.886
310.792
310.704
310.625
310.557
310.499
310.453
310.417
310.391
311.493
311.406
311.313
311.148
311.287
311.503
311.265
311.035
310.857
310.774
311.623
312.218
311.401
311.187
311.039
311.01
310.969
310.904
310.832
310.761
310.696
310.639
310.59
310.549
310.515
310.49
311.319
311.235
311.171
310.954
310.88
310.769
310.682
310.671
310.725
310.77
310.754
310.717
310.679
310.646
310.616
310.59
310.569
310.551
311.119
311.079
311.085
310.909
310.728
310.591
310.5
310.465
310.46
310.468
310.474
310.473
310.467
310.468
310.469
310.469
310.469
310.47
310.904
310.926
311.007
310.774
310.644
310.479
310.373
310.31
310.288
310.284
310.288
310.294
310.299
310.316
310.333
310.347
310.36
310.374
310.685
310.764
310.902
310.669
310.591
310.413
310.298
310.24
310.22
310.217
310.222
310.23
310.237
310.256
310.277
310.294
310.31
310.327
310.431
310.532
310.716
310.564
310.566
310.397
310.29
310.234
310.213
310.208
310.211
310.218
310.223
310.242
310.262
310.278
310.294
310.31
310.339
310.438
310.616
310.52
310.594
310.445
310.355
310.3
310.257
310.238
310.233
310.236
310.245
310.265
310.283
310.299
310.315
310.333
310.408
310.452
310.553
310.518
310.642
310.5
310.4
310.32
310.277
310.25
310.237
310.247
310.264
310.283
310.303
310.324
310.348
310.373
310.552
310.548
310.562
310.48
310.743
310.69
310.334
310.232
310.195
310.187
310.196
310.217
310.242
310.269
310.298
310.33
310.364
310.4
310.681
310.669
310.637
310.554
310.267
309.871
309.253
307.838
307.757
307.884
307.986
308.184
309.793
309.953
309.978
309.999
310.033
310.077
310.125
310.175
310.223
310.268
310.312
310.358
310.407
310.455
310.789
310.789
310.759
310.685
310.42
310.158
309.893
309.67
309.5
309.346
309.209
309.098
309.343
309.527
309.68
309.811
309.925
310.025
310.114
310.192
310.262
310.325
310.384
310.444
310.508
310.567
310.908
310.915
310.897
310.843
310.593
310.362
310.147
309.953
309.78
309.626
309.49
309.378
309.531
309.676
309.808
309.928
310.037
310.138
310.23
310.314
310.39
310.458
310.524
310.589
310.658
310.716
311.072
311.073
311.06
311.022
310.783
310.561
310.36
310.178
310.014
309.866
309.734
309.624
309.749
309.873
309.992
310.105
310.213
310.315
310.41
310.496
310.574
310.644
310.709
310.772
310.834
310.861
311.268
311.262
311.249
311.221
311.003
310.798
310.612
310.443
310.29
310.153
310.031
309.931
310.039
310.152
310.264
310.372
310.476
310.574
310.665
310.747
310.818
310.881
310.935
310.982
311.016
310.964
311.447
311.442
311.433
311.415
311.246
311.083
310.933
310.797
310.676
310.569
310.476
310.405
310.491
310.583
310.675
310.764
310.848
310.927
310.999
311.062
311.115
311.159
311.194
311.217
311.221
311.122
311.564
311.567
311.568
311.563
311.465
311.367
311.275
311.192
311.119
311.058
311.008
310.974
311.031
311.092
311.151
311.208
311.26
311.308
311.349
311.384
311.412
311.433
311.445
311.443
311.417
311.279
311.616
311.629
311.639
311.645
311.614
311.58
311.547
311.518
311.493
311.475
311.464
311.46
311.488
311.516
311.543
311.568
311.589
311.607
311.62
311.63
311.636
311.638
311.634
311.617
311.573
311.413
311.63
311.647
311.663
311.677
311.688
311.695
311.701
311.706
311.713
311.722
311.732
311.743
311.752
311.76
311.766
311.77
311.771
311.77
311.767
311.762
311.756
311.748
311.739
311.724
311.698
311.629
311.631
311.651
311.669
311.686
311.711
311.734
311.755
311.774
311.792
311.809
311.826
311.839
311.841
311.841
311.838
311.834
311.827
311.82
311.811
311.802
311.792
311.782
311.772
311.76
311.743
311.708
311.634
311.654
311.673
311.691
311.715
311.738
311.759
311.778
311.795
311.811
311.825
311.837
311.838
311.836
311.833
311.827
311.821
311.813
311.805
311.797
311.788
311.78
311.771
311.762
311.751
311.728
311.642
311.662
311.681
311.698
311.718
311.736
311.752
311.768
311.781
311.793
311.804
311.811
311.813
311.813
311.811
311.808
311.804
311.798
311.792
311.786
311.779
311.773
311.766
311.759
311.75
311.734
311.651
311.671
311.69
311.708
311.724
311.739
311.752
311.765
311.776
311.785
311.793
311.798
311.801
311.802
311.802
311.8
311.797
311.793
311.788
311.783
311.778
311.773
311.767
311.761
311.754
311.741
311.66
311.681
311.7
311.718
311.733
311.747
311.76
311.771
311.781
311.79
311.796
311.8
311.804
311.805
311.805
311.804
311.802
311.798
311.795
311.79
311.786
311.781
311.775
311.77
311.764
311.753
311.669
311.689
311.709
311.727
311.743
311.757
311.77
311.781
311.791
311.8
311.806
311.81
311.813
311.815
311.815
311.814
311.811
311.808
311.805
311.801
311.796
311.791
311.786
311.781
311.775
311.767
311.677
311.698
311.718
311.736
311.752
311.767
311.78
311.792
311.802
311.81
311.817
311.821
311.824
311.825
311.825
311.824
311.822
311.819
311.816
311.812
311.808
311.803
311.798
311.793
311.787
311.781
311.686
311.707
311.726
311.745
311.762
311.776
311.79
311.802
311.812
311.82
311.826
311.831
311.833
311.835
311.835
311.834
311.833
311.83
311.827
311.823
311.819
311.814
311.81
311.804
311.799
311.793
311.695
311.716
311.736
311.755
311.772
311.787
311.8
311.812
311.822
311.83
311.836
311.841
311.844
311.845
311.846
311.845
311.843
311.841
311.838
311.835
311.831
311.826
311.822
311.817
311.811
311.806
311.705
311.727
311.747
311.766
311.783
311.798
311.812
311.824
311.834
311.842
311.848
311.852
311.855
311.857
311.858
311.857
311.856
311.854
311.851
311.848
311.844
311.84
311.836
311.831
311.826
311.82
311.718
311.74
311.761
311.78
311.797
311.812
311.826
311.838
311.848
311.856
311.862
311.867
311.87
311.872
311.873
311.873
311.872
311.87
311.867
311.864
311.861
311.857
311.853
311.848
311.843
311.837
311.735
311.757
311.778
311.797
311.815
311.83
311.844
311.856
311.867
311.875
311.881
311.885
311.888
311.891
311.892
311.892
311.891
311.889
311.887
311.884
311.881
311.877
311.873
311.869
311.864
311.858
311.756
311.779
311.8
311.819
311.837
311.853
311.867
311.879
311.89
311.898
311.904
311.908
311.912
311.914
311.915
311.916
311.915
311.914
311.912
311.909
311.906
311.903
311.899
311.895
311.89
311.885
311.783
311.806
311.827
311.847
311.865
311.881
311.896
311.908
311.919
311.927
311.933
311.938
311.941
311.944
311.945
311.945
311.945
311.944
311.942
311.94
311.937
311.934
311.931
311.926
311.922
311.917
311.817
311.84
311.862
311.882
311.901
311.917
311.932
311.945
311.956
311.964
311.97
311.975
311.978
311.98
311.982
311.983
311.983
311.982
311.98
311.979
311.976
311.973
311.97
311.966
311.962
311.958
311.859
311.883
311.905
311.926
311.945
311.962
311.977
311.991
312.001
312.01
312.016
312.021
312.024
312.026
312.028
312.029
312.029
312.028
312.027
312.026
312.024
312.021
312.018
312.015
312.011
312.006
)
;
        refGradient     nonuniform List<scalar> 
898
(
45.4412
47.3586
49.7387
51.3573
54.2129
57.9915
-14.5494
-13.1059
-14.1958
-17.4773
60.7377
57.6303
55.0847
53.9713
51.4454
50.1808
50.1259
50.7129
51.4461
52.0999
52.5445
52.7006
52.6028
52.4072
52.2885
52.301
46.0566
48.6666
52.2958
55.0134
60.1189
65.6633
-5.74376
-3.28365
-3.60499
-7.00897
63.8071
57.8481
53.0229
51.4978
48.5838
47.3817
47.6641
48.6692
49.8047
50.8479
51.6583
52.1062
52.1839
52.048
51.9206
51.9204
46.7989
50.0522
55.2738
59.4074
68.6973
74.506
-3.20919
-1.35461
-1.05433
-2.91296
73.3514
65.6197
54.9441
52.2293
48.2606
46.5616
46.6683
47.6169
48.766
49.8986
50.8565
51.4668
51.6766
51.6108
51.491
51.4757
48.0616
51.6123
57.7594
63.2123
84.8687
88.0999
16.0875
16.8211
17.1209
16.3578
78.731
71.6364
51.8527
49.8152
47.2306
46.22
46.5409
47.5127
48.594
49.6379
50.5421
51.1602
51.4265
51.4175
51.3075
51.2537
49.5432
52.5082
57.6715
64.671
54.7251
49.8841
48.0662
47.5489
47.7887
48.4818
49.3437
50.1346
50.8152
51.3054
51.5454
51.5594
51.4445
51.3191
51.4156
53.5187
57.2922
63.4252
56.4295
51.4062
49.3795
48.9316
49.6634
50.6296
51.3478
51.7574
51.9344
52.1032
52.1922
52.1503
51.9905
51.7715
51.8405
53.3434
56.2153
62.2568
56.9258
51.7023
49.6979
49.5993
50.6208
51.7669
52.4911
52.787
52.7088
52.5011
52.3556
52.2104
52.0187
51.7869
51.0285
52.5618
54.9773
60.7223
56.9902
51.5037
49.5231
49.5924
50.8317
52.0877
52.7877
52.9377
52.6693
52.2171
51.9
51.6731
51.5024
51.3939
50.1939
51.8685
54.5884
60.7372
56.4235
50.3105
48.3298
48.7449
50.2465
51.6387
52.387
52.5091
52.1492
51.6085
51.2101
50.9428
50.8348
50.9376
49.4718
50.7527
54.0988
61.7076
55.2049
48.0454
46.2636
47.0474
48.8655
50.4195
51.3031
51.56
51.253
50.8684
50.539
50.3421
50.3725
50.6873
48.4784
48.9823
52.1196
61.3442
52.9742
45.0272
44.1411
45.3835
47.265
48.8893
49.9885
50.4279
50.4681
50.3268
50.1935
50.2352
50.5284
50.9627
47.2268
47.4696
49.3825
58.4638
49.271
42.176
43.5663
45.3628
46.9144
48.1875
49.1555
49.7445
49.9795
50.0239
50.1793
50.6607
51.4238
51.9194
46.3959
47.0729
47.8702
49.6501
-32.6134
-30.6571
-28.095
-24.1293
-23.4828
-23.6652
-23.7976
-25.5169
46.4309
45.4684
46.6466
47.3719
47.8903
48.369
48.8263
49.1823
49.3732
49.5159
49.9798
51.0256
52.4614
53.0469
45.2827
45.8865
47.1425
50.0106
-29.6047
-27.9628
-27.6577
-27.5007
-27.3579
-27.025
-26.4942
-27.4185
51.3975
49.3024
48.8764
48.5952
48.4045
48.325
48.3447
48.4112
48.4742
48.654
49.385
50.994
53.2402
54.0071
44.8355
45.0685
45.9145
49.0274
-29.0025
-27.2852
-27.1504
-27.0259
-26.7284
-26.2379
-25.75
-27.116
50.8991
48.6008
48.18
47.986
47.8357
47.7062
47.5967
47.5118
47.4668
47.6271
48.4905
50.5057
53.5899
54.7265
44.7831
44.8399
45.3758
48.3116
-28.4906
-26.6754
-26.6336
-26.6866
-26.5101
-26.0983
-25.7787
-27.4277
50.7225
48.3753
47.9192
47.7514
47.6298
47.478
47.2741
47.0335
46.8042
46.7766
47.4811
49.5316
53.1775
54.6886
44.8978
44.8739
45.2104
47.7136
-21.9953
-20.1791
-20.0704
-20.1244
-19.9971
-19.6845
-19.5199
-21.1983
50.093
47.9262
47.5063
47.381
47.3106
47.2002
47.0093
46.732
46.3924
46.1364
46.4434
48.07
51.7097
54.4097
45.092
45.0448
45.2531
47.1053
-5.54149
-3.96539
-3.72357
-3.65068
-3.51205
-3.31316
-3.28456
-4.71687
49.0027
47.3242
46.9852
46.8812
46.8311
46.7585
46.628
46.4224
46.124
45.7685
45.6495
46.5064
49.496
53.6275
45.3265
45.2769
45.3828
46.4831
16.7904
17.85
18.1205
18.2716
18.4027
18.4999
18.4548
17.4995
47.6899
46.6774
46.4449
46.3548
46.3031
46.2445
46.1612
46.0487
45.8847
45.6208
45.2993
45.3745
47.134
51.7744
45.572
45.5248
45.5496
46.002
36.237
36.721
36.9187
37.059
37.1478
37.1692
37.1019
36.6515
46.5673
46.1705
46.0478
45.9838
45.9391
45.892
45.8344
45.7721
45.7081
45.6092
45.3974
45.1113
45.4099
48.9328
45.8004
45.7539
45.7252
45.777
47.1716
47.253
47.3661
47.4665
47.5137
47.4922
47.4258
47.3138
45.9199
45.9094
45.862
45.8223
45.7923
45.7641
45.7303
45.6901
45.6514
45.6226
45.5905
45.4973
45.3417
47.2751
45.9975
45.9493
45.8926
45.7883
50.0591
49.9749
50.041
50.1138
50.1394
50.1028
50.0404
50.0541
45.7375
45.873
45.8611
45.8387
45.8234
45.8152
45.8072
45.7895
45.7558
45.7081
45.6644
45.6894
46.0475
48.7384
46.1675
46.1177
46.0516
45.9399
48.7994
48.7055
48.7577
48.8179
48.8387
48.8068
48.752
48.7615
45.8509
45.9853
45.9802
45.9658
45.9593
45.9629
45.9711
45.971
45.952
45.9143
45.8711
45.8645
46.1124
48.6522
46.3228
46.2733
46.2087
46.1397
46.9592
46.903
46.949
46.9969
47.0164
46.9985
46.9574
46.9292
46.0631
46.15
46.1395
46.1283
46.1278
46.1377
46.1538
46.1624
46.1499
46.1163
46.0821
46.0984
46.3733
48.7735
46.4745
46.4277
46.3708
46.3413
46.0634
46.0317
46.0644
46.0939
46.1096
46.1071
46.0853
46.0368
46.2734
46.3226
46.304
46.2932
46.2962
46.3086
46.3265
46.3385
46.3312
46.3034
46.2739
46.2894
46.5223
48.4842
46.6303
46.5886
46.5427
46.5371
46.0509
46.0181
46.0298
46.0369
46.0444
46.0531
46.0508
46.0057
46.4577
46.4914
46.4648
46.4507
46.4538
46.4657
46.481
46.4918
46.4886
46.4704
46.4529
46.4731
46.6509
47.9803
46.7999
46.7654
46.7324
46.7396
46.3967
46.3474
46.3363
46.3225
46.3201
46.3338
46.347
46.318
46.6367
46.6709
46.6371
46.6154
46.6142
46.6228
46.6336
46.6412
46.6411
46.634
46.6313
46.6571
46.7771
47.4727
46.9972
46.9719
46.9515
46.9658
46.7642
46.6945
46.6641
46.6346
46.6228
46.6355
46.6575
46.6455
46.8345
46.8773
46.8385
46.8064
46.7962
46.7983
46.8037
46.8078
46.8099
46.8128
46.824
46.8562
46.9336
47.1761
47.24
47.225
47.215
47.2322
47.0827
46.9957
46.9524
46.9138
46.8942
46.9016
46.9256
46.9259
47.073
47.1279
47.0889
47.0471
47.0248
47.0168
47.0153
47.0159
47.0192
47.0295
47.0518
47.0909
47.1472
47.1688
47.5477
47.5425
47.5385
47.5535
47.403
47.3046
47.2549
47.2129
47.188
47.188
47.2085
47.2148
47.3693
47.4369
47.4034
47.3559
47.3209
47.3
47.2893
47.2855
47.2895
47.305
47.3356
47.3814
47.4329
47.4018
47.9389
47.9411
47.9375
47.9452
47.7845
47.6813
47.6306
47.5897
47.562
47.5547
47.5685
47.5756
47.7414
47.8193
47.7962
47.7488
47.7037
47.6689
47.6471
47.6383
47.6428
47.6628
47.6995
47.7504
47.8038
47.7924
48.43
48.4354
48.4267
48.4228
48.2618
48.1598
48.1118
48.0745
48.0464
48.0335
48.04
48.0447
48.2067
48.2896
48.2792
48.2373
48.187
48.1405
48.1079
48.0938
48.0989
48.1229
48.1636
48.2164
48.2706
48.2861
49.0341
49.0375
49.0191
49.0014
48.851
48.7553
48.7117
48.6791
48.6525
48.6367
48.6371
48.6383
48.7817
48.8627
48.864
48.8314
48.7818
48.7289
48.6884
48.6702
48.6762
48.703
48.7451
48.7959
48.8467
48.8733
49.7616
49.7579
49.7269
49.6952
49.5623
49.4762
49.4373
49.4091
49.3853
49.3691
49.3657
49.3643
49.4803
49.5524
49.5617
49.5395
49.496
49.4437
49.4011
49.3815
49.3884
49.4164
49.4568
49.5019
49.5454
49.5691
50.6207
50.6058
50.5615
50.5174
50.4044
50.3296
50.2944
50.2697
50.249
50.2345
50.2299
50.2274
50.3134
50.3712
50.3835
50.3703