/*--------------------------------*- C++ -*----------------------------------*\
| =========                 |                                                 |
| \\      /  F ield         | OpenFOAM: The Open Source CFD Toolbox           |
|  \\    /   O peration     | Version:  v2012                                 |
|   \\  /    A nd           | Website:  www.openfoam.com                      |
|    \\/     M anipulation  |                                                 |
\*---------------------------------------------------------------------------*/
FoamFile
{
    version     2.0;
    format      ascii;
    class       volScalarField;
    location    "50/air";
    object      alphat;
}
// * * * * * * * * * * * * * * * * * * * * * * * * * * * * * * * * * * * * * //

dimensions      [1 -1 -1 0 0 0 0];


internalField   nonuniform List<scalar> 
287104
(
0.00647978
0.00600305
0.00563614
0.00534332
0.00510399
0.00490481
0.00473657
0.00459259
0.00446784
0.00435845
0.00426137
0.0041742
0.00409508
0.00402268
0.00395605
0.00389463
0.00383816
0.00378657
0.0037399
0.00369822
0.00366156
0.00362986
0.003603
0.00358074
0.00356279
0.00354857
0.00353754
0.00352917
0.00352297
0.00351857
0.00351559
0.00351376
0.00351284
0.00351262
0.00351291
0.00351359
0.00351451
0.00351559
0.00351672
0.00351786
0.00351896
0.00351999
0.00352095
0.00352184
0.00352269
0.00352352
0.00352438
0.00352531
0.00352633
0.00352748
0.00352881
0.00353035
0.00353213
0.00353418
0.00353655
0.00353928
0.00354241
0.00354596
0.00354997
0.00355444
0.00355938
0.00356478
0.0035706
0.00357683
0.00358341
0.00359029
0.00359744
0.00360479
0.00361232
0.00361999
0.00362778
0.00363571
0.00364382
0.00365207
0.00366042
0.00366894
0.00367769
0.00368663
0.00369574
0.00370505
0.00371461
0.00372438
0.00373436
0.00374456
0.00375505
0.00376587
0.00377704
0.00378882
0.00380131
0.00381495
0.00647973
0.00600295
0.00563595
0.00534309
0.00510371
0.00490448
0.00473618
0.00459214
0.00446732
0.00435783
0.00426063
0.00417334
0.00409412
0.00402166
0.00395504
0.00389372
0.00383744
0.00378612
0.0037398
0.00369853
0.00366231
0.00363104
0.0036046
0.00358269
0.003565
0.00355097
0.00354004
0.00353171
0.00352551
0.00352106
0.00351802
0.00351611
0.00351509
0.00351476
0.00351494
0.00351549
0.00351628
0.00351721
0.00351818
0.00351911
0.00351998
0.00352075
0.00352143
0.00352204
0.0035226
0.00352315
0.00352373
0.0035244
0.00352518
0.00352613
0.00352727
0.00352867
0.00353042
0.00353243
0.0035347
0.00353727
0.00354021
0.00354356
0.00354734
0.00355159
0.00355631
0.00356148
0.00356709
0.0035731
0.00357945
0.00358609
0.00359296
0.00360004
0.00360728
0.00361467
0.0036222
0.00362988
0.00363768
0.00364562
0.00365373
0.00366205
0.00367058
0.00367927
0.00368817
0.0036973
0.00370665
0.00371617
0.00372589
0.00373583
0.00374602
0.00375648
0.00376728
0.00377867
0.00379073
0.00380389
0.00647978
0.00600298
0.00563601
0.00534312
0.00510373
0.00490448
0.00473617
0.0045921
0.00446725
0.00435773
0.00426049
0.00417317
0.00409394
0.00402147
0.00395486
0.00389357
0.00383733
0.00378608
0.00373985
0.00369868
0.00366257
0.00363143
0.00360513
0.0035834
0.00356586
0.00355195
0.00354113
0.00353287
0.00352674
0.00352235
0.00351937
0.00351751
0.00351656
0.00351629
0.00351654
0.00351715
0.003518
0.00351898
0.00352001
0.00352103
0.00352198
0.00352284
0.00352358
0.00352424
0.00352486
0.00352546
0.00352609
0.00352679
0.00352761
0.00352859
0.00352969
0.00353097
0.00353245
0.0035342
0.00353624
0.00353863
0.00354141
0.00354462
0.00354828
0.00355242
0.00355703
0.00356212
0.00356764
0.00357356
0.00357983
0.00358639
0.00359319
0.00360021
0.00360741
0.00361475
0.00362221
0.00362979
0.00363748
0.00364535
0.00365342
0.00366166
0.00367008
0.00367871
0.0036876
0.00369672
0.00370606
0.00371566
0.00372555
0.00373573
0.00374621
0.00375707
0.00376838
0.00378037
0.00379302
0.00380692
0.00647982
0.00600304
0.00563603
0.00534311
0.00510368
0.00490439
0.00473603
0.0045919
0.00446698
0.00435739
0.00426009
0.00417271
0.00409344
0.00402094
0.00395431
0.00389301
0.00383679
0.00378558
0.00373942
0.00369834
0.00366234
0.00363133
0.00360518
0.00358364
0.00356631
0.00355259
0.00354195
0.00353387
0.00352791
0.00352369
0.00352089
0.00351921
0.00351844
0.00351836
0.0035188
0.0035196
0.00352064
0.0035218
0.00352301
0.00352418
0.00352529
0.00352629
0.00352719
0.003528
0.00352874
0.00352944
0.00353014
0.00353087
0.00353167
0.00353257
0.00353361
0.00353483
0.00353624
0.00353791
0.00353987
0.00354216
0.00354483
0.00354793
0.00355148
0.0035555
0.00356001
0.003565
0.00357043
0.00357628
0.00358249
0.003589
0.00359578
0.00360275
0.00360989
0.00361717
0.00362458
0.00363212
0.00363981
0.00364765
0.00365566
0.00366386
0.00367228
0.00368094
0.00368987
0.00369903
0.00370847
0.00371821
0.00372828
0.00373868
0.00374946
0.0037607
0.00377242
0.00378484
0.00379793
0.00381244
0.00647987
0.00600309
0.00563608
0.00534315
0.00510368
0.00490436
0.00473594
0.00459176
0.00446678
0.00435712
0.00425977
0.00417234
0.00409303
0.00402049
0.00395384
0.00389254
0.00383634
0.00378518
0.00373907
0.00369808
0.00366217
0.0036313
0.0036053
0.00358403
0.00356693
0.00355344
0.00354299
0.0035351
0.00352933
0.00352528
0.00352265
0.00352114
0.00352054
0.00352063
0.00352124
0.00352222
0.00352342
0.00352475
0.0035261
0.0035274
0.00352862
0.00352972
0.0035307
0.00353157
0.00353235
0.00353308
0.00353378
0.0035345
0.00353526
0.00353612
0.00353709
0.00353822
0.00353955
0.00354111
0.00354296
0.00354515
0.00354771
0.0035507
0.00355416
0.00355809
0.00356252
0.00356744
0.00357281
0.0035786
0.00358475
0.00359121
0.00359793
0.00360486
0.00361195
0.00361919
0.00362657
0.00363408
0.00364173
0.00364953
0.0036575
0.0036657
0.00367414
0.00368281
0.00369174
0.00370093
0.00371042
0.00372022
0.00373036
0.00374086
0.00375178
0.00376316
0.00377503
0.00378762
0.00380087
0.00381571
0.00647991
0.00600315
0.00563612
0.00534316
0.00510365
0.00490426
0.00473578
0.00459151
0.00446645
0.00435672
0.0042593
0.00417183
0.00409249
0.00401995
0.00395331
0.00389203
0.00383586
0.00378474
0.0037387
0.00369778
0.00366197
0.0036312
0.00360537
0.00358426
0.00356731
0.00355396
0.00354365
0.0035359
0.00353026
0.00352637
0.00352388
0.00352255
0.00352212
0.00352239
0.00352318
0.00352434
0.00352573
0.00352723
0.00352875
0.00353022
0.00353158
0.00353281
0.00353391
0.00353487
0.00353573
0.0035365
0.00353723
0.00353795
0.0035387
0.00353951
0.00354043
0.00354148
0.00354273
0.0035442
0.00354595
0.00354803
0.0035505
0.0035534
0.00355676
0.00356063
0.00356499
0.00356985
0.00357517
0.00358091
0.00358703
0.00359345
0.00360015
0.00360706
0.00361416
0.0036214
0.00362878
0.00363629
0.00364394
0.00365177
0.00365979
0.00366802
0.00367649
0.00368518
0.00369413
0.00370334
0.00371282
0.00372258
0.00373267
0.00374313
0.00375402
0.00376538
0.00377723
0.00378985
0.0038031
0.00381811
0.00647996
0.00600319
0.00563616
0.00534317
0.00510361
0.00490415
0.00473557
0.00459119
0.004466
0.00435613
0.00425859
0.00417103
0.00409164
0.00401907
0.00395241
0.00389114
0.00383497
0.00378387
0.00373785
0.00369696
0.00366117
0.00363043
0.0036046
0.0035835
0.00356658
0.00355327
0.00354302
0.00353534
0.00352979
0.00352601
0.00352365
0.00352246
0.00352218
0.00352262
0.00352359
0.00352493
0.0035265
0.00352818
0.00352988
0.00353151
0.00353303
0.0035344
0.00353562
0.00353669
0.00353762
0.00353845
0.00353921
0.00353994
0.00354068
0.00354146
0.00354232
0.00354331
0.00354448
0.00354586
0.00354753
0.00354952
0.0035519
0.00355472
0.00355802
0.00356183
0.00356614
0.00357097
0.00357627
0.00358201
0.00358813
0.00359458
0.00360128
0.0036082
0.00361531
0.00362256
0.00362994
0.00363746
0.00364514
0.00365301
0.00366106
0.00366932
0.00367782
0.00368656
0.00369555
0.00370478
0.00371424
0.00372396
0.00373399
0.00374438
0.00375521
0.00376653
0.00377838
0.00379102
0.00380425
0.00381943
0.00648
0.00600324
0.00563619
0.00534317
0.00510355
0.004904
0.00473531
0.00459081
0.00446546
0.00435545
0.00425783
0.00417027
0.0040909
0.00401836
0.00395173
0.00389045
0.00383426
0.0037831
0.003737
0.00369601
0.0036601
0.00362921
0.00360321
0.00358193
0.00356485
0.0035514
0.00354105
0.00353331
0.00352774
0.00352397
0.00352168
0.00352059
0.00352046
0.00352107
0.00352223
0.00352379
0.00352559
0.00352751
0.00352945
0.00353132
0.00353307
0.00353465
0.00353606
0.00353729
0.00353836
0.0035393
0.00354015
0.00354093
0.00354168
0.00354246
0.00354329
0.00354423
0.00354533
0.00354664
0.00354822
0.00355014
0.00355244
0.0035552
0.00355844
0.0035622
0.0035665
0.0035713
0.0035766
0.00358234
0.00358846
0.00359492
0.00360165
0.00360858
0.00361569
0.00362296
0.00363037
0.00363793
0.00364565
0.00365355
0.00366165
0.00366997
0.00367852
0.00368731
0.00369631
0.00370549
0.00371482
0.00372438
0.00373427
0.00374455
0.0037553
0.00376659
0.00377845
0.00379115
0.00380442
0.00381985
0.00648004
0.00600329
0.00563621
0.00534314
0.00510344
0.00490377
0.00473491
0.00459015
0.00446443
0.00435395
0.00425649
0.00416981
0.00409168
0.00402035
0.00395463
0.00389384
0.00383768
0.0037861
0.00373921
0.00369714
0.00365999
0.00362774
0.00360036
0.00357783
0.00355972
0.0035455
0.00353467
0.00352671
0.00352119
0.00351769
0.00351585
0.00351535
0.0035159
0.00351724
0.00351915
0.00352143
0.0035239
0.00352642
0.00352887
0.00353115
0.0035332
0.00353499
0.00353651
0.00353777
0.00353879
0.00353963
0.00354032
0.00354092
0.00354147
0.00354203
0.00354265
0.00354339
0.0035443
0.00354546
0.0035469
0.00354873
0.00355097
0.0035537
0.00355697
0.00356078
0.00356518
0.00357011
0.00357556
0.00358148
0.00358779
0.00359444
0.00360138
0.00360856
0.0036159
0.00362338
0.00363097
0.00363868
0.0036465
0.00365447
0.00366262
0.00367095
0.00367947
0.00368816
0.00369695
0.00370563
0.00371424
0.00372311
0.00373245
0.00374235
0.00375285
0.003764
0.00377582
0.00378857
0.00380192
0.00381772
0.00648009
0.00600333
0.00563623
0.0053431
0.00510332
0.00490355
0.00473452
0.00458953
0.00446347
0.00435272
0.00431339
0.00428941
0.00425682
0.00421112
0.00415441
0.00409062
0.00402363
0.00395669
0.00389236
0.00383259
0.00377877
0.00373181
0.00369227
0.00366053
0.00363645
0.0036197
0.00360966
0.00360539
0.00360579
0.00360971
0.00361609
0.00362397
0.00363256
0.00364122
0.00364944
0.00365683
0.0036631
0.00366804
0.00367155
0.00367359
0.00367418
0.00367342
0.00367148
0.00366857
0.00366492
0.0036608
0.00365649
0.00365226
0.00364835
0.00364501
0.00364244
0.0036408
0.0036402
0.00364076
0.00364251
0.00364549
0.0036497
0.00365508
0.00366161
0.00366917
0.00367764
0.0036869
0.00369675
0.00370704
0.00371763
0.00372832
0.00373901
0.00374962
0.00376004
0.00377019
0.00378007
0.00378965
0.0037989
0.00380775
0.00381611
0.00382378
0.00383041
0.00383521
0.00383682
0.00383044
0.00381479
0.00380302
0.0037958
0.00379255
0.00379263
0.00379555
0.00380082
0.00380842
0.00381747
0.00383065
0.00648013
0.00600338
0.00563624
0.00534305
0.00510316
0.0049032
0.00473383
0.00458819
0.00446035
0.00435598
0.00763511
0.00833238
0.00829719
0.00801544
0.00766659
0.00731993
0.0070021
0.00672277
0.00648467
0.00628775
0.00613069
0.00601148
0.00592755
0.0058754
0.0058549
0.00586227
0.00588986
0.00592948
0.00597477
0.0060215
0.00606716
0.00611042
0.00615066
0.0061877
0.00622151
0.00625217
0.00627979
0.00630447
0.00632635
0.00634555
0.00636222
0.00637653
0.00638866
0.00639881
0.00640719
0.00641408
0.00641975
0.00642455
0.00642879
0.00643284
0.006437
0.00644156
0.00644679
0.00645284
0.00645993
0.00646806
0.00647735
0.00648771
0.00649907
0.00651135
0.00652435
0.00653797
0.00655211
0.0065666
0.00658142
0.00659656
0.00661194
0.00662763
0.00664376
0.00666036
0.00667752
0.00669542
0.0067142
0.00673408
0.00675542
0.00677882
0.00680559
0.00683816
0.00688501
0.00695553
0.00587579
0.00526527
0.00489715
0.00466243
0.00450524
0.00439557
0.00431636
0.00425802
0.00421268
0.00418039
0.00648017
0.00600342
0.00563626
0.00534302
0.00510305
0.00490298
0.00473345
0.0045876
0.00445945
0.00435476
0.00763532
0.00833417
0.00829713
0.00801102
0.00765633
0.00730292
0.00697786
0.00669111
0.0064457
0.00624182
0.0060784
0.0059537
0.00586535
0.00581038
0.00578477
0.00578777
0.00581451
0.00585682
0.00590694
0.00595932
0.00601058
0.00605893
0.00610361
0.00614441
0.00618139
0.00621472
0.00624461
0.00627122
0.00629476
0.00631535
0.0063332
0.00634848
0.00636141
0.00637217
0.00638103
0.0063883
0.00639436
0.00639955
0.00640426
0.00640878
0.00641346
0.00641852
0.00642423
0.00643072
0.00643816
0.00644661
0.00645606
0.00646653
0.00647788
0.00649003
0.00650287
0.00651622
0.00653002
0.00654419
0.00655861
0.00657333
0.00658837
0.00660371
0.00661947
0.00663576
0.00665268
0.00667037
0.00668901
0.00670882
0.00673021
0.00675379
0.00678086
0.0068137
0.00686058
0.00693006
0.00587181
0.00527661
0.00491983
0.00469355
0.00454261
0.00443757
0.00436177
0.00430594
0.00426244
0.00423169
0.00648021
0.00600346
0.00563628
0.00534299
0.00510295
0.00490277
0.00473307
0.00458699
0.00445847
0.0043533
0.00762842
0.00832774
0.00829225
0.00800759
0.0076539
0.00730092
0.00697577
0.00668851
0.00644227
0.00623737
0.0060729
0.00594724
0.00585813
0.00580269
0.00577674
0.00578102
0.00580867
0.00585135
0.00590167
0.0059543
0.00600597
0.00605489
0.00610025
0.0061418
0.00617955
0.00621364
0.00624423
0.00627147
0.00629549
0.00631641
0.00633439
0.00634956
0.00636216
0.00637238
0.00638056
0.00638707
0.00639236
0.0063968
0.00640081
0.0064047
0.00640878
0.00641331
0.0064185
0.00642458
0.0064316
0.00643971
0.00644888
0.00645912
0.00647038
0.00648247
0.00649534
0.00650884
0.00652277
0.00653712
0.00655179
0.00656671
0.00658196
0.00659759
0.00661363
0.00663019
0.00664741
0.00666546
0.00668451
0.00670485
0.00672694
0.00675148
0.00677989
0.00681458
0.00686401
0.00693621
0.00588101
0.00528825
0.00493301
0.00470755
0.00455691
0.00445185
0.00437588
0.00431981
0.00427612
0.00424543
0.00648024
0.0060035
0.00563631
0.00534299
0.0051029
0.00490265
0.00473287
0.00458668
0.00445804
0.00435273
0.00762632
0.00832581
0.00829066
0.00800613
0.00765235
0.00729913
0.00697363
0.006686
0.00643941
0.00623423
0.0060696
0.00594393
0.005855
0.00579993
0.00577453
0.00577967
0.00580812
0.00585154
0.00590259
0.00595601
0.00600855
0.00605842
0.00610479
0.0061474
0.00618624
0.00622141
0.00625301
0.00628116
0.0063059
0.00632732
0.00634551
0.00636061
0.00637282
0.00638237
0.00638962
0.00639503
0.00639908
0.00640227
0.006405
0.0064077
0.00641065
0.0064142
0.00641855
0.00642391
0.00643041
0.00643807
0.00644699
0.00645703
0.00646818
0.00648031
0.00649324
0.00650689
0.00652109
0.00653569
0.00655065
0.00656592
0.00658149
0.0065974
0.00661376
0.00663067
0.00664825
0.00666666
0.00668613
0.00670694
0.00672956
0.00675467
0.0067837
0.00681897
0.00686886
0.00694114
0.00588565
0.00529273
0.00493737
0.00471177
0.00456102
0.00445587
0.00437984
0.00432376
0.00428019
0.0042499
0.00648028
0.00600354
0.00563634
0.00534301
0.00510288
0.00490258
0.00473273
0.00458645
0.0044577
0.00435227
0.00762365
0.00832274
0.0082876
0.00800317
0.00764949
0.00729632
0.00697083
0.00668316
0.00643654
0.00623138
0.00606686
0.00594143
0.0058529
0.00579838
0.00577371
0.00577985
0.00580927
0.00585363
0.0059056
0.00595999
0.00601357
0.00606457
0.00611218
0.00615607
0.00619626
0.00623276
0.00626565
0.00629496
0.00632065
0.00634272
0.00636116
0.00637612
0.00638773
0.00639627
0.00640215
0.00640596
0.00640828
0.00640968
0.00641069
0.00641175
0.00641327
0.00641552
0.00641882
0.00642329
0.00642911
0.00643628
0.00644483
0.00645469
0.00646572
0.00647783
0.00649086
0.00650464
0.00651906
0.00653398
0.00654926
0.00656487
0.00658085
0.00659717
0.00661393
0.00663123
0.00664924
0.00666809
0.00668802
0.0067093
0.00673243
0.00675812
0.00678776
0.0068237
0.00687429
0.0069472
0.00589068
0.00529718
0.00494145
0.00471558
0.0045646
0.00445927
0.00438308
0.00432687
0.00428331
0.00425326
0.00648032
0.00600359
0.00563639
0.00534304
0.00510289
0.00490256
0.00473267
0.00458635
0.00445755
0.00435206
0.00762194
0.00832049
0.00828498
0.00800023
0.00764626
0.00729283
0.00696712
0.00667932
0.00643268
0.00622764
0.00606341
0.00593848
0.00585065
0.00579704
0.00577389
0.00578135
0.00581216
0.0058578
0.00591096
0.00596651
0.00602125
0.00607349
0.00612243
0.00616777
0.00620949
0.00624756
0.00628201
0.00631274
0.00633965
0.00636258
0.00638145
0.00639635
0.0064073
0.00641457
0.00641873
0.00642047
0.00642056
0.00641966
0.00641846
0.00641745
0.00641713
0.0064178
0.00641977
0.00642322
0.00642823
0.00643488
0.00644308
0.00645278
0.00646383
0.00647602
0.00648923
0.00650329
0.00651799
0.00653326
0.006549
0.00656505
0.00658144
0.00659822
0.00661544
0.00663318
0.00665159
0.00667084
0.00669114
0.00671278
0.00673623
0.00676224
0.0067922
0.00682843
0.00687931
0.00695246
0.00589455
0.00530021
0.00494396
0.00471775
0.00456656
0.00446108
0.0043848
0.00432857
0.00428511
0.0042554
0.00648036
0.00600365
0.00563645
0.0053431
0.00510295
0.00490261
0.00473271
0.00458639
0.0044576
0.00435211
0.00762131
0.00831925
0.00828307
0.00799765
0.00764302
0.00728902
0.00696288
0.0066748
0.0064281
0.00622323
0.00605945
0.00593525
0.00584848
0.00579616
0.00577531
0.00578487
0.00581777
0.00586522
0.00591991
0.00597678
0.0060328
0.00608638
0.00613677
0.00618375
0.00622725
0.00626724
0.00630363
0.00633624
0.00636478
0.00638888
0.00640831
0.00642296
0.00643279
0.00643817
0.00643986
0.00643881
0.00643595
0.00643218
0.00642825
0.00642483
0.00642237
0.00642132
0.00642187
0.00642425
0.00642848
0.00643458
0.0064425
0.00645205
0.00646312
0.0064755
0.00648893
0.00650328
0.00651836
0.00653399
0.00655013
0.00656668
0.00658358
0.00660085
0.00661855
0.00663677
0.00665563
0.00667526
0.00669589
0.00671782
0.00674148
0.00676761
0.00679761
0.0068338
0.00688461
0.00695768
0.00589757
0.00530184
0.00494472
0.00471799
0.00456648
0.00446084
0.00438449
0.00432828
0.00428499
0.00425566
0.00648041
0.00600371
0.00563652
0.00534317
0.00510302
0.00490268
0.0047328
0.0045865
0.00445772
0.00435222
0.00761986
0.00831648
0.00827924
0.00799309
0.00763804
0.00728385
0.00695773
0.00666988
0.00642361
0.00621942
0.00605662
0.00593375
0.00584866
0.00579832
0.00578069
0.00579376
0.00582971
0.0058795
0.00593582
0.00599382
0.00605075
0.00610517
0.00615651
0.0062046
0.00624938
0.00629082
0.00632876
0.00636292
0.00639289
0.0064182
0.00643843
0.00645311
0.00646191
0.00646526
0.00646408
0.00645965
0.00645317
0.00644584
0.00643858
0.0064322
0.00642726
0.00642416
0.00642317
0.00642438
0.00642788
0.00643355
0.0064413
0.00645097
0.00646229
0.00647507
0.00648904
0.00650393
0.0065196
0.00653584
0.00655251
0.00656958
0.00658703
0.00660484
0.00662303
0.00664167
0.00666089
0.00668081
0.00670165
0.00672368
0.00674736
0.00677343
0.0068033
0.00683936
0.00689011
0.00696338
0.00589959
0.00530147
0.00494281
0.00471511
0.00456302
0.00445707
0.00438061
0.00432443
0.00428135
0.00425242
0.00648046
0.00600379
0.0056366
0.00534326
0.00510314
0.00490285
0.00473306
0.0045869
0.00445838
0.00435322
0.00762361
0.00831888
0.00827953
0.00799145
0.00763499
0.00728013
0.00695427
0.00666777
0.00642408
0.00622378
0.0060661
0.00594936
0.00587107
0.00582745
0.00581894
0.00584002
0.00588125
0.0059335
0.00599015
0.00604725
0.00610266
0.00615541
0.00620521
0.006252
0.00629578
0.00633648
0.00637386
0.0064075
0.00643693
0.00646159
0.00648111
0.00649417
0.00650036
0.00650021
0.00649501
0.00648632
0.00647577
0.00646469
0.0064543
0.00644539
0.00643863
0.00643431
0.00643266
0.00643368
0.00643732
0.00644343
0.0064518
0.00646219
0.00647433
0.0064879
0.00650265
0.00651831
0.00653463
0.00655145
0.00656864
0.00658613
0.00660386
0.00662187
0.00664024
0.00665902
0.00667832
0.00669828
0.00671909
0.00674101
0.0067644
0.0067899
0.00681885
0.00685352
0.00690218
0.00697297
0.00589818
0.00529245
0.00492884
0.0046981
0.0045443
0.00443751
0.00436081
0.00430481
0.00426224
0.00423417
0.00648051
0.00600385
0.00563668
0.00534335
0.00510325
0.00490301
0.00473328
0.00458722
0.00445887
0.00435384
0.0076187
0.00831104
0.00827302
0.00798912
0.00763921
0.00729525
0.00698567
0.00672096
0.00650389
0.00633358
0.0062072
0.00612077
0.00606942
0.00604965
0.00605724
0.00608533
0.00612585
0.0061725
0.00622116
0.00626946
0.00631606
0.00636025
0.00640138
0.00643999
0.00647537
0.00650636
0.00653128
0.006548
0.00655448
0.00654768
0.00653557
0.00652014
0.00650358
0.00648829
0.00647588
0.00646607
0.00645834
0.00645241
0.00644827
0.00644604
0.00644579
0.00644763
0.00645152
0.00645744
0.00646529
0.00647493
0.00648623
0.00649898
0.00651294
0.00652791
0.00654364
0.00655993
0.0065766
0.00659353
0.0066106
0.00662782
0.00664522
0.00666282
0.00668072
0.00669901
0.00671782
0.00673727
0.00675752
0.00677883
0.00680158
0.00682635
0.00685445
0.00688839
0.00693672
0.00700713
0.00589847
0.00527055
0.00489177
0.00465073
0.00449029
0.0043796
0.00430099
0.00424455
0.00420262
0.00417603
0.00648056
0.00600392
0.00563676
0.00534346
0.00510341
0.00490328
0.00473381
0.00458829
0.00446161
0.00435009
0.0042714
0.00420209
0.00413038
0.0040568
0.00398704
0.00392114
0.00385947
0.00380253
0.00375079
0.00370463
0.0036643
0.00362989
0.00360129
0.00357831
0.00356059
0.00354773
0.00353906
0.00353397
0.00353189
0.00353235
0.00353494
0.00353934
0.00354525
0.00355248
0.00356082
0.00357011
0.00358014
0.00359068
0.00360132
0.00360993
0.00363162
0.00366978
0.00371731
0.0037677
0.00381564
0.00385745
0.00389097
0.00391542
0.00393107
0.00393886
0.00394008
0.00393618
0.00392863
0.0039186
0.00390695
0.0038943
0.00388108
0.00386764
0.00385423
0.00384109
0.00382842
0.00381638
0.00380513
0.00379479
0.00378547
0.00377724
0.00377016
0.0037643
0.0037597
0.00375638
0.00375433
0.00375354
0.00375395
0.00375546
0.00375792
0.00376103
0.00376434
0.00376686
0.00376685
0.0037684
0.0037669
0.00376616
0.00376742
0.00377091
0.00377655
0.0037842
0.00379364
0.00380502
0.00381738
0.00383467
0.0064806
0.00600397
0.00563682
0.00534354
0.00510352
0.00490342
0.004734
0.00458856
0.00446204
0.00435062
0.00425158
0.00416268
0.00408198
0.00400806
0.00394001
0.00387731
0.00381975
0.00376731
0.00372008
0.00367817
0.00364161
0.00361035
0.0035842
0.00356294
0.00354619
0.00353361
0.00352466
0.00351885
0.00351574
0.00351497
0.00351628
0.00351943
0.00352424
0.00353057
0.00353829
0.00354731
0.00355749
0.00356864
0.0035804
0.00359214
0.00360304
0.0036124
0.00362031
0.00362663
0.00363126
0.00363403
0.00363485
0.00363358
0.00363025
0.00362504
0.00361826
0.00361035
0.00360181
0.00359315
0.00358486
0.00357731
0.00357082
0.00356563
0.00356184
0.00355951
0.00355872
0.00355944
0.00356159
0.00356516
0.0035698
0.00357538
0.00358176
0.00358883
0.00359648
0.00360463
0.00361324
0.00362224
0.00363163
0.00364144
0.00365166
0.00366229
0.00367328
0.00368456
0.0036961
0.00370783
0.00371965
0.00373169
0.00374406
0.00375681
0.00376996
0.00378353
0.00379752
0.00381218
0.00382683
0.00384472
0.00648065
0.00600403
0.0056369
0.00534363
0.00510362
0.00490355
0.0047342
0.00458888
0.00446257
0.00435145
0.00425257
0.00416363
0.00408277
0.00400867
0.00394045
0.00387761
0.00381996
0.00376747
0.00372026
0.00367841
0.00364196
0.00361083
0.00358486
0.0035638
0.0035474
0.00353513
0.00352645
0.00352087
0.00351795
0.00351737
0.00351888
0.00352227
0.00352742
0.00353425
0.00354272
0.00355285
0.0035646
0.00357788
0.00359241
0.00360734
0.00362145
0.00363341
0.00364217
0.00364727
0.00364858
0.00364642
0.00364124
0.00363369
0.00362437
0.00361391
0.00360289
0.0035918
0.00358115
0.00357145
0.00356277
0.00355546
0.00354971
0.0035457
0.00354349
0.00354309
0.00354447
0.00354755
0.00355218
0.00355823
0.00356552
0.00357385
0.00358308
0.00359307
0.00360373
0.00361493
0.00362659
0.00363865
0.00365103
0.00366367
0.00367659
0.00368973
0.00370305
0.0037165
0.00373002
0.00374354
0.00375697
0.00377033
0.00378363
0.00379692
0.00381023
0.00382366
0.00383722
0.00385127
0.00386516
0.00388222
0.0064807
0.0060041
0.00563697
0.0053437
0.00510368
0.0049036
0.00473424
0.0045889
0.00446256
0.00435137
0.00425235
0.00416317
0.00408205
0.00400767
0.00393919
0.00387611
0.00381824
0.00376556
0.00371817
0.00367617
0.00363959
0.00360834
0.00358227
0.00356112
0.00354454
0.00353215
0.0035234
0.00351776
0.00351483
0.00351429
0.00351589
0.00351948
0.00352495
0.0035323
0.00354157
0.0035529
0.00356645
0.00358236
0.00360059
0.00362003
0.00363873
0.00365455
0.0036659
0.0036721
0.00367318
0.00366962
0.00366222
0.00365187
0.00363952
0.00362605
0.00361224
0.00359859
0.00358572
0.0035742
0.00356441
0.00355669
0.0035513
0.00354841
0.00354815
0.00355058
0.00355569
0.00356341
0.0035736
0.00358607
0.00360057
0.0036168
0.00363473
0.0036539
0.00367387
0.00369425
0.00371469
0.0037349
0.00375464
0.00377371
0.003792
0.0038094
0.00382586
0.00384136
0.0038559
0.00386948
0.00388213
0.00389392
0.00390495
0.00391535
0.00392528
0.00393494
0.00394445
0.00395434
0.00396405
0.00397735
0.00648077
0.0060042
0.00563707
0.00534378
0.00510375
0.00490364
0.00473425
0.00458889
0.00446252
0.00435129
0.00425218
0.00416287
0.00408156
0.00400697
0.00393824
0.00387489
0.00381675
0.0037638
0.00371613
0.00367386
0.00363701
0.00360551
0.00357918
0.00355778
0.00354092
0.00352826
0.00351923
0.00351334
0.00351019
0.00350945
0.00351092
0.00351446
0.00352
0.0035276
0.00353736
0.00354961
0.00356478
0.00358354
0.00360678
0.00363337
0.00365998
0.00368245
0.003698
0.0037064
0.00370788
0.00370335
0.00369411
0.00368163
0.00366733
0.00365259
0.00363865
0.00362642
0.00361715
0.00361187
0.00361152
0.00361685
0.00362836
0.0036463
0.0036705
0.00370035
0.00373486
0.00377275
0.00381253
0.00385274
0.00389209
0.00392948
0.00396438
0.00399595
0.00402386
0.004048
0.00406846
0.00408546
0.00409928
0.00411024
0.00411872
0.00412501
0.00412943
0.00413225
0.00413375
0.00413416
0.00413369
0.00413255
0.00413095
0.00412911
0.00412723
0.00412556
0.00412428
0.00412397
0.00412412
0.004129
0.00648085
0.00600431
0.00563718
0.00534387
0.00510381
0.00490366
0.00473421
0.00458877
0.00446232
0.00435097
0.00425172
0.00416221
0.00408068
0.00400583
0.00393683
0.0038732
0.00381475
0.0037615
0.00371352
0.00367092
0.00363375
0.0036019
0.0035752
0.0035534
0.00353613
0.00352295
0.00351344
0.00350712
0.00350357
0.0035025
0.00350368
0.003507
0.00351242
0.00352003
0.00353001
0.00354292
0.00355949
0.00358164
0.00361595
0.00366475
0.00372029
0.0037666
0.00379196
0.00380958
0.00382122
0.0038294
0.00383696
0.00384669
0.00386106
0.00388193
0.00391082
0.00394872
0.00399455
0.00404661
0.00410275
0.00416085
0.00421884
0.00427483
0.00432728
0.004375
0.00441707
0.00445304
0.00448269
0.00450605
0.00452342
0.00453519
0.00454152
0.00454353
0.00454165
0.00453649
0.00452854
0.00451834
0.00450635
0.00449292
0.00447841
0.00446313
0.00444732
0.00443119
0.00441493
0.00439872
0.0043827
0.00436703
0.00435184
0.00433728
0.00432351
0.00431073
0.00429906
0.00428911
0.00428036
0.00427744
0.00648095
0.00600443
0.0056373
0.00534397
0.00510387
0.00490368
0.00473416
0.00458864
0.0044621
0.00435064
0.00425124
0.00416157
0.00407982
0.00400474
0.00393547
0.00387155
0.00381278
0.00375916
0.0037108
0.0036678
0.00363017
0.00359786
0.00357067
0.00354832
0.00353048
0.00351671
0.00350657
0.0034996
0.00349544
0.00349378
0.0034944
0.0034972
0.00350214
0.00350929
0.0035188
0.00353138
0.00354796
0.0035742
0.00366425
0.00385042
0.00409599
0.00431781
0.0044748
0.00459756
0.0047087
0.00480156
0.00487463
0.00493028
0.00497276
0.00500668
0.00503587
0.00506279
0.00508726
0.00510906
0.00512789
0.00514333
0.00515495
0.00516235
0.00516525
0.00516352
0.00515718
0.00514639
0.00513141
0.00511263
0.00509046
0.00506535
0.0050378
0.00500805
0.0049767
0.00494426
0.00491106
0.0048774
0.0048437
0.00481008
0.00477675
0.00474389
0.00471164
0.00468014
0.0046495
0.00461982
0.0045912
0.00456373
0.0045375
0.00451261
0.00448918
0.00446737
0.00444728
0.00442954
0.00441359
0.00440443
0.00648105
0.00600456
0.00563742
0.00534407
0.00510393
0.00490368
0.00473409
0.00458848
0.00446182
0.00435022
0.00425066
0.00416078
0.00407881
0.00400346
0.0039339
0.00386964
0.00381049
0.00375647
0.00370766
0.00366415
0.00362599
0.00359311
0.0035653
0.0035423
0.00352372
0.00350918
0.00349823
0.00349046
0.00348549
0.00348304
0.00348291
0.003485
0.00348927
0.00349581
0.00350462
0.00351654
0.0035319
0.00357498
0.00401848
0.00484773
0.00566616
0.00623093
0.00653079
0.00665503
0.00666655
0.00661434
0.00653579
0.00645369
0.00638071
0.00631528
0.00625569
0.00620044
0.00614811
0.00609767
0.00604831
0.00599937
0.00595041
0.00590102
0.00585097
0.00580012
0.00574838
0.00569581
0.00564248
0.0055885
0.00553412
0.00547947
0.0054248
0.00537035
0.00531629
0.00526287
0.00521026
0.00515863
0.00510804
0.00505869
0.00501071
0.00496419
0.00491918
0.00487573
0.00483396
0.00479385
0.00475546
0.00471885
0.00468406
0.00465118
0.00462026
0.00459147
0.00456486
0.0045411
0.0045196
0.00450568
0.00648114
0.00600468
0.00563753
0.00534416
0.00510397
0.00490366
0.00473399
0.00458828
0.0044615
0.00434976
0.00425002
0.00415994
0.00407773
0.0040021
0.00393221
0.00386758
0.00380801
0.00375351
0.00370416
0.00366005
0.00362123
0.00358762
0.00355905
0.00353522
0.00351578
0.00350032
0.00348841
0.00347964
0.00347363
0.0034701
0.00346889
0.00346991
0.00347316
0.00347871
0.00348617
0.00349613
0.00350645
0.00361813
0.00534122
0.00709189
0.00818397
0.00865656
0.00865746
0.00841933
0.00811083
0.00782619
0.00760091
0.00744142
0.00731695
0.00720904
0.00710797
0.00700939
0.00691186
0.00681511
0.00671952
0.00662537
0.00653297
0.00644248
0.00635389
0.00626721
0.00618234
0.00609924
0.00601786
0.00593813
0.0058601
0.00578372
0.00570908
0.00563624
0.00556524
0.00549618
0.00542908
0.00536402
0.00530106
0.00524023
0.00518156
0.00512507
0.00507077
0.00501867
0.00496871
0.00492097
0.00487545
0.00483216
0.00479114
0.00475242
0.00471607
0.00468221
0.00465088
0.00462276
0.00459725
0.00457994
0.00648122
0.00600477
0.00563762
0.00534422
0.00510398
0.0049036
0.00473385
0.00458804
0.00446113
0.00434922
0.0042493
0.00415899
0.00407652
0.00400058
0.00393033
0.00386527
0.0038052
0.00375013
0.00370014
0.00365531
0.00361568
0.0035812
0.00355168
0.00352685
0.00350636
0.00348981
0.00347676
0.00346681
0.00345953
0.00345468
0.0034521
0.00345193
0.00345441
0.00346018
0.00346941
0.00348373
0.00349942
0.00362557
0.00550672
0.0073739
0.00852329
0.00897453
0.00898419
0.00877437
0.0085019
0.00825615
0.00808499
0.00795698
0.00784653
0.0077386
0.00762672
0.00750979
0.00738893
0.00726625
0.00714357
0.00702239
0.00690372
0.0067881
0.00667588
0.00656711
0.00646173
0.00635966
0.00626073
0.0061648
0.00607181
0.00598161
0.00589418