/*--------------------------------*- C++ -*----------------------------------*\
| =========                 |                                                 |
| \\      /  F ield         | OpenFOAM: The Open Source CFD Toolbox           |
|  \\    /   O peration     | Version:  v2012                                 |
|   \\  /    A nd           | Website:  www.openfoam.com                      |
|    \\/     M anipulation  |                                                 |
\*---------------------------------------------------------------------------*/
FoamFile
{
    version     2.0;
    format      ascii;
    class       volScalarField;
    location    "50/air";
    object      epsilon;
}
// * * * * * * * * * * * * * * * * * * * * * * * * * * * * * * * * * * * * * //

dimensions      [0 2 -3 0 0 0 0];


internalField   nonuniform List<scalar> 
287104
(
0.0964892
0.0768672
0.0637163
0.0543654
0.0474379
0.042141
0.0379836
0.0346455
0.0319097
0.0296249
0.0276839
0.0260103
0.02455
0.0232655
0.0221312
0.0211298
0.0202495
0.0194814
0.0188179
0.0182517
0.0177754
0.017381
0.0170601
0.0168036
0.0166019
0.0164455
0.0163263
0.0162375
0.0161731
0.0161286
0.0160998
0.0160836
0.0160771
0.0160781
0.0160846
0.016095
0.0161078
0.0161221
0.0161369
0.0161519
0.0161666
0.0161812
0.0161957
0.0162105
0.0162261
0.0162429
0.0162616
0.0162824
0.016306
0.0163327
0.0163631
0.0163975
0.0164364
0.0164804
0.01653
0.0165857
0.016648
0.0167172
0.0167934
0.0168767
0.0169667
0.0170631
0.0171653
0.0172726
0.0173842
0.0174994
0.0176176
0.0177383
0.017861
0.0179858
0.0181124
0.0182409
0.0183717
0.018505
0.018641
0.0187798
0.0189217
0.019067
0.0192158
0.0193682
0.0195243
0.0196843
0.0198485
0.0200177
0.0201925
0.0203747
0.0205656
0.0207708
0.0209907
0.0212401
0.0964836
0.0768567
0.0637032
0.0543502
0.0474214
0.0421233
0.0379645
0.0346249
0.0318874
0.0296008
0.0276581
0.0259834
0.0245229
0.0232394
0.0221075
0.0211098
0.0202343
0.0194718
0.0188142
0.018254
0.0177831
0.0173935
0.0170764
0.0168226
0.0166224
0.0164666
0.0163473
0.0162578
0.0161924
0.0161466
0.0161163
0.0160985
0.0160904
0.0160896
0.0160942
0.0161026
0.0161133
0.0161253
0.0161376
0.0161497
0.0161612
0.0161723
0.0161835
0.016195
0.0162075
0.0162215
0.0162376
0.0162561
0.0162776
0.0163025
0.0163311
0.0163638
0.0164007
0.0164421
0.0164889
0.0165415
0.0166006
0.0166665
0.0167395
0.0168195
0.0169063
0.0169994
0.0170981
0.0172018
0.0173096
0.0174206
0.0175344
0.0176505
0.0177685
0.0178883
0.0180101
0.018134
0.0182603
0.0183892
0.018521
0.0186559
0.0187941
0.0189357
0.0190806
0.019229
0.0193807
0.0195359
0.0196947
0.0198578
0.020026
0.0202009
0.0203838
0.0205805
0.0207913
0.0210308
0.096481
0.0768523
0.0636969
0.0543428
0.0474129
0.0421138
0.0379543
0.0346139
0.0318756
0.0295883
0.0276451
0.02597
0.0245094
0.023226
0.0220946
0.0210977
0.0202232
0.0194619
0.0188057
0.0182469
0.0177775
0.0173894
0.0170738
0.0168214
0.0166222
0.0164672
0.0163484
0.0162593
0.0161942
0.0161487
0.0161187
0.0161012
0.0160933
0.0160928
0.0160977
0.0161063
0.0161172
0.0161294
0.0161419
0.0161544
0.0161665
0.0161782
0.0161898
0.0162016
0.0162143
0.0162282
0.0162439
0.0162618
0.0162823
0.0163057
0.0163324
0.0163629
0.0163978
0.0164374
0.0164825
0.0165336
0.0165912
0.0166557
0.0167274
0.0168062
0.0168919
0.0169839
0.0170818
0.0171845
0.0172915
0.0174018
0.0175148
0.01763
0.0177471
0.0178659
0.0179865
0.0181092
0.0182342
0.0183617
0.0184921
0.0186259
0.0187632
0.0189042
0.0190492
0.0191983
0.0193518
0.0195099
0.0196732
0.0198423
0.020018
0.0202019
0.0203954
0.0206036
0.020826
0.021079
0.0964785
0.0768469
0.0636894
0.0543333
0.0474017
0.042101
0.03794
0.0345982
0.0318585
0.02957
0.0276257
0.0259497
0.0244886
0.0232051
0.0220739
0.0210776
0.020204
0.0194439
0.0187892
0.0182321
0.0177645
0.0173785
0.017065
0.0168148
0.0166177
0.0164645
0.0163474
0.0162599
0.0161964
0.0161524
0.016124
0.016108
0.0161018
0.0161029
0.0161094
0.0161195
0.0161319
0.0161454
0.0161592
0.0161728
0.0161859
0.0161985
0.0162109
0.0162233
0.0162364
0.0162505
0.0162662
0.0162838
0.0163037
0.0163265
0.0163524
0.016382
0.0164156
0.016454
0.0164977
0.0165473
0.0166034
0.0166664
0.0167367
0.0168141
0.0168985
0.0169895
0.0170863
0.0171882
0.0172944
0.017404
0.0175163
0.0176308
0.0177472
0.0178652
0.0179851
0.0181069
0.0182311
0.0183581
0.0184881
0.0186216
0.018759
0.0189006
0.0190466
0.0191975
0.0193534
0.0195148
0.0196822
0.0198564
0.0200383
0.0202293
0.0204308
0.0206475
0.020878
0.021141
0.0964759
0.0768419
0.0636824
0.0543246
0.0473914
0.0420893
0.0379268
0.0345835
0.0318424
0.0295525
0.0276071
0.0259303
0.0244686
0.0231849
0.0220537
0.0210578
0.0201849
0.0194258
0.0187724
0.0182168
0.0177512
0.0173675
0.0170568
0.0168092
0.0166143
0.016463
0.0163476
0.0162616
0.0161995
0.0161569
0.0161298
0.0161152
0.0161103
0.0161127
0.0161204
0.0161316
0.016145
0.0161595
0.0161741
0.0161883
0.0162018
0.0162146
0.016227
0.0162393
0.016252
0.0162656
0.0162805
0.0162972
0.0163161
0.0163376
0.0163621
0.0163901
0.0164222
0.0164589
0.0165009
0.0165489
0.0166035
0.016665
0.0167339
0.0168101
0.0168935
0.0169835
0.0170794
0.0171805
0.0172859
0.0173947
0.0175062
0.0176199
0.0177354
0.0178528
0.0179719
0.018093
0.0182165
0.0183429
0.0184725
0.0186057
0.0187432
0.018885
0.0190315
0.0191829
0.0193397
0.0195022
0.019671
0.0198468
0.0200306
0.020224
0.0204279
0.0206474
0.0208798
0.0211472
0.0964734
0.0768366
0.0636749
0.0543151
0.0473799
0.0420759
0.0379115
0.0345664
0.0318236
0.0295322
0.0275857
0.0259084
0.0244468
0.0231635
0.0220329
0.0210378
0.020166
0.0194081
0.018756
0.0182018
0.0177377
0.0173557
0.0170469
0.0168009
0.0166073
0.0164572
0.016343
0.0162581
0.0161972
0.0161558
0.01613
0.0161168
0.0161133
0.0161173
0.0161265
0.0161393
0.0161543
0.0161701
0.0161861
0.0162015
0.0162161
0.0162297
0.0162427
0.0162554
0.0162683
0.0162817
0.0162962
0.0163123
0.0163303
0.0163507
0.0163739
0.0164005
0.0164311
0.0164662
0.0165067
0.0165532
0.0166063
0.0166666
0.0167343
0.0168094
0.0168918
0.016981
0.0170762
0.0171766
0.0172815
0.0173898
0.017501
0.0176145
0.0177298
0.017847
0.0179661
0.0180873
0.0182109
0.0183374
0.0184674
0.0186011
0.0187388
0.0188809
0.0190276
0.0191789
0.0193351
0.0194968
0.0196646
0.0198395
0.0200225
0.0202152
0.0204187
0.0206381
0.02087
0.0211396
0.0964709
0.0768316
0.0636677
0.0543058
0.0473687
0.0420625
0.0378958
0.0345481
0.0318025
0.0295085
0.02756
0.0258816
0.0244195
0.0231361
0.0220059
0.0210114
0.0201402
0.019383
0.0187315
0.0181778
0.017714
0.0173321
0.0170234
0.0167776
0.0165843
0.0164348
0.0163211
0.016237
0.016177
0.0161367
0.0161122
0.0161004
0.0160984
0.0161039
0.0161148
0.0161293
0.016146
0.0161635
0.0161811
0.0161981
0.016214
0.0162289
0.0162428
0.0162562
0.0162694
0.016283
0.0162973
0.0163129
0.0163302
0.0163496
0.0163717
0.016397
0.0164261
0.0164598
0.0164988
0.016544
0.0165959
0.016655
0.0167218
0.0167962
0.016878
0.0169667
0.0170616
0.0171619
0.0172666
0.0173748
0.0174859
0.0175992
0.0177145
0.0178315
0.0179505
0.0180717
0.0181954
0.0183222
0.0184524
0.0185865
0.0187247
0.0188672
0.0190142
0.0191655
0.0193212
0.0194818
0.0196484
0.019822
0.020004
0.0201958
0.0203988
0.0206181
0.0208494
0.0211213
0.0964685
0.0768266
0.0636604
0.0542965
0.0473571
0.0420485
0.0378792
0.0345286
0.0317801
0.0294836
0.0275342
0.0258562
0.0243952
0.023113
0.0219836
0.0209896
0.0201185
0.0193608
0.0187083
0.0181532
0.0176874
0.0173032
0.0169921
0.016744
0.0165489
0.0163977
0.0162829
0.0161981
0.0161379
0.016098
0.0160744
0.0160638
0.0160636
0.0160711
0.0160842
0.0161012
0.0161205
0.0161408
0.0161611
0.0161807
0.0161991
0.0162162
0.0162321
0.0162471
0.0162615
0.016276
0.0162908
0.0163065
0.0163235
0.0163424
0.0163635
0.0163877
0.0164155
0.0164478
0.0164855
0.0165293
0.01658
0.0166382
0.0167041
0.0167779
0.0168592
0.0169475
0.0170422
0.0171423
0.0172469
0.017355
0.017466
0.0175792
0.0176944
0.0178116
0.0179307
0.0180521
0.0181763
0.0183036
0.0184344
0.0185691
0.0187079
0.0188509
0.0189978
0.0191479
0.0193013
0.0194592
0.0196234
0.0197952
0.0199759
0.0201671
0.02037
0.0205899
0.0208218
0.0210975
0.0964662
0.0768217
0.0636533
0.0542869
0.0473449
0.0420331
0.0378596
0.0345036
0.0317478
0.0294427
0.0274977
0.0258377
0.0243995
0.0231382
0.0220237
0.0210366
0.0201645
0.0193992
0.018734
0.0181626
0.0176786
0.0172754
0.0169464
0.0166834
0.0164767
0.0163176
0.0161986
0.0161129
0.0160549
0.0160197
0.0160028
0.0160004
0.0160091
0.0160259
0.0160481
0.0160736
0.0161004
0.0161272
0.0161525
0.0161758
0.0161965
0.0162145
0.0162301
0.0162438
0.0162561
0.0162678
0.0162794
0.0162916
0.016305
0.0163203
0.016338
0.016359
0.0163841
0.0164141
0.01645
0.0164925
0.0165425
0.0166005
0.0166668
0.0167415
0.0168242
0.0169143
0.0170111
0.0171135
0.0172205
0.0173313
0.0174449
0.0175608
0.0176784
0.0177978
0.017919
0.0180421
0.0181675
0.0182958
0.0184272
0.0185621
0.0187006
0.0188423
0.018986
0.019129
0.0192719
0.0194196
0.0195755
0.0197412
0.0199176
0.0201062
0.0203078
0.0205278
0.0207599
0.0210405
0.0964639
0.076817
0.0636463
0.0542777
0.047333
0.0420181
0.0378406
0.0344799
0.0317172
0.0294077
0.0286096
0.0281263
0.0274826
0.0266044
0.0255508
0.0244112
0.0232653
0.0221718
0.0211695
0.020281
0.0195172
0.0188809
0.0183699
0.0179778
0.0176961
0.0175143
0.0174192
0.0173954
0.0174269
0.0174984
0.0175961
0.0177082
0.0178247
0.0179373
0.0180397
0.0181273
0.0181965
0.0182452
0.0182724
0.018278
0.0182633
0.0182304
0.0181821
0.0181222
0.0180546
0.0179834
0.0179127
0.0178464
0.0177879
0.0177405
0.0177068
0.0176891
0.0176891
0.017708
0.0177464
0.0178046
0.0178822
0.0179784
0.018092
0.0182211
0.0183636
0.0185168
0.0186784
0.0188456
0.0190161
0.0191878
0.0193591
0.0195286
0.0196953
0.0198588
0.0200186
0.0201743
0.0203255
0.0204711
0.0206094
0.0207371
0.020848
0.0209285
0.0209549
0.0208504
0.0206154
0.0204502
0.0203581
0.020328
0.0203503
0.0204174
0.020523
0.020668
0.0208389
0.0210847
0.0964618
0.0768124
0.0636394
0.0542681
0.04732
0.0420004
0.037815
0.0344405
0.0316415
0.0294637
0.157993
0.205214
0.202568
0.182663
0.159995
0.139541
0.122534
0.108921
0.0982828
0.0901558
0.0841285
0.0798597
0.0770712
0.0755609
0.075244
0.0758551
0.0770866
0.0786698
0.0804096
0.0821789
0.0839012
0.085534
0.0870555
0.0884561
0.0897338
0.0908904
0.0919302
0.0928577
0.0936774
0.0943936
0.0950113
0.0955366
0.0959768
0.0963412
0.09664
0.0968847
0.0970876
0.0972623
0.0974239
0.097588
0.0977695
0.0979818
0.0982359
0.0985393
0.0988967
0.0993092
0.0997751
0.100291
0.10085
0.101448
0.102077
0.102733
0.103411
0.10411
0.104827
0.105563
0.10632
0.107102
0.107911
0.108753
0.109632
0.110555
0.111529
0.112568
0.11369
0.114933
0.116372
0.118148
0.120742
0.124704
0.0748837
0.0536505
0.0429808
0.036944
0.0332143
0.0307553
0.0290524
0.0278409
0.0269308
0.0263137
0.0964598
0.0768083
0.0636331
0.0542595
0.0473089
0.0419863
0.0377971
0.034418
0.0316129
0.0294291
0.157937
0.205244
0.202451
0.182251
0.159249
0.138472
0.121173
0.107305
0.0964455
0.0881291
0.0819419
0.0775413
0.0746458
0.0730219
0.0724983
0.0729835
0.074209
0.0758851
0.077774
0.0797134
0.0816045
0.0833932
0.0850535
0.0865754
0.0879582
0.0892063
0.090326
0.0913236
0.092205
0.0929751
0.0936393
0.0942039
0.094677
0.0950683
0.0953892
0.0956532
0.0958751
0.0960693
0.0962509
0.0964348
0.096636
0.0968672
0.0971381
0.0974555
0.0978227
0.0982406
0.0987075
0.0992196
0.099772
0.100359
0.100974
0.101613
0.102273
0.102951
0.103647
0.104361
0.105097
0.105857
0.106645
0.107466
0.108327
0.109232
0.110192
0.111219
0.112335
0.113576
0.115015
0.116783
0.119341
0.123188
0.0746694
0.053975
0.0435812
0.0377047
0.0340732
0.0316751
0.030008
0.0288152
0.0279107
0.0272945
0.096458
0.0768043
0.063627
0.0542512
0.0472981
0.0419724
0.0377793
0.034395
0.0315827
0.0293898
0.157441
0.204667
0.201981
0.181903
0.158987
0.138253
0.120964
0.107083
0.0961979
0.0878498
0.0816296
0.0771976
0.0742735
0.0726201
0.072079
0.0725413
0.0737443
0.0754037
0.0772872
0.0792335
0.0811427
0.0829579
0.0846506
0.0862081
0.0876277
0.0889114
0.090064
0.0910901
0.0919941
0.0927796
0.0934505
0.0940125
0.0944731
0.0948437
0.0951378
0.095372
0.095562
0.095724
0.0958737
0.0960274
0.0961996
0.0964037
0.0966493
0.0969435
0.0972897
0.097689
0.0981412
0.0986426
0.0991887
0.0997737
0.100391
0.101036
0.101704
0.102392
0.103098
0.103824
0.104571
0.105342
0.106142
0.106976
0.10785
0.108771
0.10975
0.110803
0.111954
0.113242
0.11475
0.116615
0.119311
0.123317
0.0749355
0.0542896
0.043906
0.0380229
0.0343774
0.0319624
0.0302781
0.029069
0.0281508
0.0275265
0.0964562
0.0768004
0.0636213
0.0542436
0.0472886
0.0419609
0.0377655
0.0343788
0.0315639
0.0293685
0.157242
0.204422
0.20175
0.181689
0.158782
0.138051
0.120759
0.106875
0.0959886
0.0876412
0.081425
0.0770003
0.0740874
0.0724483
0.0719264
0.0724059
0.0736265
0.0753053
0.0772114
0.0791848
0.081126
0.0829783
0.0847126
0.0863152
0.0877814
0.0891113
0.0903068
0.0913706
0.0923045
0.0931099
0.0937888
0.0943455
0.0947884
0.0951283
0.0953806
0.0955642
0.0956977
0.0958004
0.0958912
0.095989
0.0961107
0.0962707
0.0964797
0.096744
0.097068
0.0974516
0.0978934
0.0983892
0.0989333
0.0995204
0.100144
0.100797
0.101475
0.102176
0.102896
0.103635
0.104397
0.105183
0.105998
0.106848
0.107738
0.108677
0.109676
0.11075
0.111926
0.113241
0.114777
0.116669
0.119384
0.123391
0.0750029
0.0543498
0.0439599
0.0380717
0.0344218
0.0320033
0.0303162
0.0291056
0.0281885
0.0275705
0.0964543
0.0767966
0.0636156
0.0542363
0.0472797
0.0419503
0.0377531
0.0343642
0.0315469
0.0293489
0.157006
0.204089
0.201409
0.181371
0.158494
0.137789
0.120519
0.106652
0.0957802
0.0874468
0.0812454
0.0768374
0.0739438
0.0723267
0.0718332
0.0723402
0.073589
0.0752967
0.077234
0.0792418
0.0812217
0.0831179
0.0849012
0.0865576
0.0880806
0.0894678
0.0907183
0.0918306
0.0928033
0.093634
0.0943218
0.0948699
0.0952845
0.0955769
0.0957665
0.0958761
0.0959292
0.0959496
0.095961
0.095985
0.0960418
0.0961456
0.0963082
0.0965355
0.0968309
0.0971946
0.0976232
0.0981123
0.098655
0.099244
0.0998733
0.100536
0.101228
0.101943
0.10268
0.103439
0.104219
0.105025
0.10586
0.10673
0.10764
0.108599
0.109619
0.110716
0.111916
0.113258
0.114823
0.116747
0.119498
0.123537
0.0750916
0.0544132
0.0440095
0.038112
0.0344554
0.0320315
0.0303403
0.0291268
0.0282092
0.0275951
0.0964523
0.0767925
0.0636099
0.0542292
0.0472714
0.0419409
0.0377425
0.0343524
0.0315338
0.0293342
0.156828
0.203816
0.201098
0.181053
0.158181
0.137487
0.120232
0.106381
0.0955286
0.0872168
0.08104
0.0766601
0.0737984
0.0722171
0.0717726
0.0723317
0.0736296
0.0753824
0.0773621
0.0794122
0.0814363
0.0833811
0.0852187
0.0869355
0.0885242
0.0899798
0.0912977
0.0924717
0.0934956
0.0943616
0.0950651
0.0956068
0.0959875
0.0962195
0.0963274
0.0963399
0.0962883
0.0962028
0.0961135
0.096046
0.0960224
0.0960589
0.0961662
0.0963514
0.0966159
0.0969596
0.0973779
0.097864
0.0984106
0.0990088
0.0996498
0.100328
0.101037
0.101771
0.102529
0.103309
0.104111
0.104939
0.105794
0.106683
0.107612
0.108589
0.109626
0.110739
0.111953
0.113309
0.114887
0.116824
0.119587
0.123639
0.0751345
0.0544324
0.0440174
0.0381139
0.0344538
0.032028
0.030336
0.0291226
0.0282075
0.0275995
0.0964502
0.0767882
0.0636041
0.0542223
0.0472637
0.0419325
0.0377336
0.0343432
0.0315244
0.0293245
0.156716
0.203616
0.200839
0.180758
0.157868
0.137167
0.119916
0.106079
0.0952461
0.0869607
0.0808166
0.0764758
0.0736596
0.0721311
0.0717676
0.0724132
0.0737891
0.0756082
0.0776447
0.0797465
0.0818222
0.0838221
0.0857215
0.0875085
0.0891759
0.0907168
0.0921218
0.093379
0.0944729
0.0953878
0.0961125
0.0966381
0.0969634
0.0971055
0.0970972
0.0969785
0.0967904
0.096573
0.0963617
0.0961874
0.0960724
0.0960341
0.0960824
0.0962228
0.0964566
0.0967805
0.0971895
0.097675
0.0982271
0.0988368
0.0994938
0.100189
0.100918
0.101675
0.102456
0.103261
0.104088
0.10494
0.10582
0.106731
0.10768
0.108675
0.109726
0.110851
0.112072
0.113432
0.115009
0.116941
0.119697
0.123743
0.0751471
0.0544105
0.0439812
0.0380719
0.0344099
0.0319844
0.0302941
0.0290835
0.0281733
0.0275735
0.0964479
0.0767837
0.0635981
0.0542154
0.0472562
0.0419246
0.0377256
0.0343352
0.0315164
0.0293158
0.156555
0.203306
0.200443
0.180332
0.157447
0.136771
0.119554
0.105756
0.0949669
0.0867291
0.0806378
0.0763566
0.0736089
0.0721658
0.0719347
0.0727157
0.0742056
0.0761114
0.0782124
0.0803647
0.0824844
0.0845277
0.0864746
0.0883159
0.0900455
0.0916554
0.0931333
0.0944618
0.09562
0.0965846
0.0973386
0.0978552
0.0981229
0.0981609
0.0980119
0.0977315
0.0973754
0.0969962
0.096638
0.0963357
0.0961151
0.0959918
0.0959768
0.0960726
0.0962793
0.0965915
0.0970004
0.0974962
0.0980665
0.0986992
0.0993836
0.100109
0.100867
0.101652
0.102461
0.103291
0.104144
0.10502
0.105921
0.106851
0.107816
0.108823
0.109883
0.111011
0.112232
0.113586
0.115154
0.117076
0.119828
0.123883
0.075128
0.0543327
0.0438798
0.0379613
0.0342974
0.0318739
0.0301878
0.0289829
0.0280803
0.0274907
0.0964456
0.0767793
0.0635925
0.0542092
0.0472499
0.041919
0.0377215
0.0343338
0.0315197
0.0293255
0.156715
0.203379
0.200352
0.180112
0.157155
0.136466
0.119288
0.105574
0.0949085
0.08683
0.0809285
0.0768628
0.0743543
0.0732136
0.0733444
0.0744271
0.0761168
0.0781302
0.0802734
0.0824291
0.0845331
0.086555
0.0884819
0.090309
0.0920331
0.093646
0.0951332
0.0964719
0.0976357
0.0986044
0.0993379
0.0997837
0.0999262
0.0997923
0.0994425
0.098952
0.0983952
0.0978363
0.0973284
0.096908
0.0966014
0.096422
0.0963763
0.0964641
0.0966791
0.0970132
0.0974534
0.0979855
0.0985957
0.0992694
0.0999934
0.100757
0.101551
0.102368
0.103204
0.104058
0.10493
0.105821
0.106735
0.107675
0.108647
0.109659
0.110718
0.11184
0.113045
0.114371
0.11589
0.117737
0.120375
0.124288
0.0749791
0.0539727
0.043437
0.037491
0.0338259
0.0314146
0.0297478
0.028566
0.0276898
0.0271297
0.0964433
0.0767751
0.0635871
0.0542032
0.0472438
0.0419132
0.0377168
0.0343309
0.0315201
0.0293277
0.156347
0.202708
0.199773
0.179839
0.15729
0.137171
0.120724
0.107872
0.0981573
0.0910683
0.0861457
0.0830032
0.0813333
0.0809677
0.0816171
0.082962
0.084712
0.0866583
0.088668
0.0906614
0.0925909
0.0944254
0.0961382
0.0977144
0.0991488
0.100394
0.101372
0.101983
0.102126
0.101859
0.101272
0.1006
0.099882
0.0992222
0.0986427
0.0981418
0.0977196
0.0973834
0.0971427
0.0970069
0.0969799
0.0970653
0.0972604
0.0975622
0.0979643
0.0984575
0.0990313
0.0996729
0.10037
0.10111
0.101883
0.102678
0.10349
0.104315
0.10515
0.105995
0.106854
0.10773
0.108627
0.109551
0.110506
0.111501
0.112544
0.113648
0.114832
0.116132
0.117621
0.11944
0.122069
0.125973
0.0749136
0.0532561
0.0424304
0.0363462
0.032622
0.0301972
0.0285451
0.0273958
0.0265642
0.0260548
0.0964412
0.0767712
0.0635823
0.0541982
0.0472395
0.041911
0.0377199
0.0343451
0.0315683
0.0292429
0.027656
0.0263016
0.0249535
0.0236309
0.0224291
0.0213437
0.0203742
0.0195201
0.0187791
0.0181472
0.0176181
0.0171842
0.0168373
0.0165685
0.0163686
0.0162276
0.0161358
0.0160851
0.0160688
0.0160814
0.0161183
0.0161757
0.0162507
0.016341
0.0164445
0.0165596
0.0166842
0.0168149
0.0169469
0.0170824
0.0174821
0.0180777
0.018793
0.0195476
0.0202682
0.0208977
0.0213993
0.0217577
0.0219748
0.022065
0.0220498
0.021953
0.0217975
0.0216042
0.0213894
0.0211647
0.0209383
0.0207161
0.0205029
0.0203018
0.0201155
0.0199461
0.0197947
0.0196625
0.01955
0.0194578
0.0193861
0.019335
0.0193044
0.0192941
0.0193035
0.0193318
0.0193777
0.0194393
0.0195137
0.0195962
0.0196794
0.0197481
0.019776
0.0197589
0.0197067
0.0196773
0.0196874
0.0197388
0.019829
0.0199553
0.020114
0.020308
0.0205207
0.0208208
0.0964392
0.0767673
0.0635773
0.0541925
0.0472335
0.0419052
0.037715
0.0343417
0.0315678
0.029244
0.0272698
0.0255711
0.0240914
0.0227916
0.0216457
0.0206364
0.0197516
0.0189823
0.0183205
0.0177585
0.0172881
0.0169007
0.0165877
0.0163406
0.0161512
0.0160111
0.015913
0.0158505
0.0158186
0.0158137
0.0158327
0.0158731
0.015933
0.0160111
0.0161062
0.0162175
0.0163439
0.0164831
0.0166309
0.0167793
0.0169174
0.0170391
0.0171432
0.0172275
0.0172894
0.0173267
0.0173372
0.0173193
0.0172738
0.0172035
0.0171137
0.0170106
0.0169019
0.0167948
0.0166957
0.0166099
0.0165414
0.0164925
0.0164648
0.0164581
0.0164724
0.0165068
0.0165597
0.0166286
0.0167112
0.0168056
0.0169101
0.0170232
0.0171438
0.0172712
0.0174049
0.0175447
0.0176907
0.0178429
0.0180017
0.0181672
0.0183382
0.0185138
0.0186936
0.0188754
0.0190593
0.019247
0.0194406
0.0196414
0.0198497
0.0200669
0.0202933
0.0205344
0.0207777
0.0210807
0.0964371
0.0767632
0.0635718
0.0541862
0.047227
0.041899
0.0377099
0.0343388
0.0315691
0.0292507
0.027279
0.0255787
0.0240958
0.0227927
0.021644
0.0206327
0.0197469
0.0189776
0.0183168
0.0177565
0.0172886
0.0169043
0.0165951
0.0163521
0.0161662
0.0160287
0.015932
0.0158704
0.0158391
0.0158345
0.0158542
0.0158963
0.0159599
0.0160443
0.0161496
0.0162759
0.0164237
0.0165922
0.0167785
0.0169716
0.0171551
0.0173102
0.0174227
0.0174852
0.0174965
0.0174609
0.017386
0.0172805
0.0171537
0.0170146
0.016871
0.0167307
0.0166001
0.0164838
0.0163853
0.0163081
0.0162546
0.0162263
0.0162233
0.0162453
0.016291
0.0163587
0.0164461
0.0165508
0.0166705
0.0168026
0.0169451
0.017096
0.0172545
0.0174193
0.0175895
0.0177644
0.0179438
0.0181272
0.0183144
0.0185051
0.0186989
0.0188954
0.0190938
0.0192931
0.0194924
0.0196921
0.0198931
0.0200964
0.0203031
0.0205151
0.0207336
0.0209648
0.0211975
0.02149
0.0964346
0.0767582
0.063565
0.0541781
0.0472178
0.041889
0.0376992
0.0343275
0.0315572
0.0292376
0.0272632
0.0255591
0.024072
0.0227649
0.0216127
0.0205984
0.01971
0.0189385
0.0182758
0.017714
0.0172446
0.0168589
0.0165482
0.0163035
0.016116
0.0159768
0.0158787
0.0158158
0.0157835
0.0157784
0.0157985
0.0158423
0.0159095
0.0160003
0.0161155
0.0162577
0.0164298
0.0166344
0.0168721
0.0171286
0.0173771
0.0175876
0.0177366
0.017814
0.0178196
0.0177614
0.0176515
0.0175039
0.0173321
0.017149
0.0169632
0.016785
0.0166228
0.0164836
0.0163724
0.016293
0.0162481
0.0162394
0.0162676
0.0163325
0.0164331
0.0165674
0.0167328
0.0169258
0.0171425
0.0173786
0.0176319
0.0178975
0.0181698
0.0184447
0.0187182
0.0189872
0.0192494
0.0195028
0.0197464
0.0199794
0.0202016
0.0204131
0.0206142
0.0208052
0.0209867
0.0211597
0.0213261
0.0214881
0.0216482
0.0218098
0.0219754
0.0221538
0.0223343
0.0225833
0.0964316
0.076752
0.0635566
0.0541679
0.0472063
0.0418764
0.0376856
0.0343132
0.0315422
0.029222
0.0272463
0.02554
0.0240501
0.0227398
0.0215841
0.0205662
0.0196743
0.0188992
0.0182331
0.0176679
0.0171952
0.0168064
0.0164924
0.0162442
0.0160529
0.0159098
0.0158078
0.015741
0.015705
0.0156968
0.0157143
0.0157568
0.0158242
0.0159173
0.0160385
0.0161927
0.0163866
0.0166301
0.0169367
0.0172921
0.0176513
0.0179561
0.0181666
0.0182752
0.0182844
0.0182086
0.0180684
0.0178861
0.0176836
0.0174811
0.0172928
0.0171369
0.0170305
0.0169884
0.0170231
0.0171443
0.0173584
0.0176666
0.0180645
0.0185414
0.0190814
0.0196642
0.0202678
0.0208709
0.0214542
0.0220019
0.0225043
0.0229522
0.0233413
0.0236708
0.0239429
0.0241616
0.0243318
0.0244594
0.02455
0.0246093
0.0246426
0.0246549
0.0246508
0.0246341
0.0246085
0.0245776
0.0245448
0.0245139
0.0244885
0.0244731
0.024471
0.0244929
0.0245282
0.0246555
0.0964279
0.0767446
0.0635464
0.0541555
0.047192
0.0418603
0.037668
0.034294
0.0315213
0.0291991
0.027221
0.0255118
0.0240186
0.0227049
0.0215457
0.0205242
0.0196286
0.0188497
0.0181797
0.0176104
0.0171334
0.0167399
0.0164209
0.0161672
0.0159699
0.015821
0.0157132
0.0156408
0.0155994
0.0155861
0.0155993
0.0156382
0.0157032
0.0157958
0.0159193
0.0160818
0.0162945
0.0165833
0.0170378
0.0176943
0.0184549
0.0190943
0.0194548
0.0197021
0.0198632
0.0199801
0.0201015
0.0202759
0.0205468
0.0209484
0.0215134
0.0222526
0.0231502
0.0241763
0.0252915
0.0264514
0.0276107
0.0287269
0.029763
0.0306896
0.0314859
0.0321399
0.0326481
0.0330134
0.0332442
0.0333527
0.033349
0.0332518
0.0330786
0.0328436
0.0325599
0.0322389
0.0318909
0.0315249
0.0311482
0.030767
0.0303865
0.0300111
0.0296443
0.0292892
0.0289482
0.0286237
0.0283181
0.0280337
0.0277732
0.02754
0.0273366
0.0271744
0.0270415
0.0270285
0.0964238
0.0767363
0.0635349
0.0541415
0.0471758
0.0418422
0.037648
0.0342723
0.0314978
0.0291737
0.0271934
0.0254816
0.0239856
0.0226686
0.021506
0.0204807
0.019581
0.0187978
0.0181229
0.0175484
0.0170657
0.0166661
0.0163403
0.0160794
0.0158745
0.0157176
0.0156018
0.0155215
0.0154724
0.0154517
0.0154575
0.0154893
0.0155472
0.0156329
0.0157491
0.0159062
0.0161179
0.016456
0.0176593
0.0203534
0.0243332
0.0283552
0.0314447
0.0342389
0.0369754
0.0394356
0.0415109
0.0432008
0.0445712
0.0457148
0.0467123
0.04762
0.0484259
0.049118
0.049682
0.0501026
0.0503669
0.0504667
0.0503987
0.050167
0.0497809
0.0492543
0.048605
0.0478521
0.0470158
0.0461155
0.0451693
0.0441936
0.0432017
0.0422073
0.0412216
0.0402529
0.0393078
0.0383919
0.0375089
0.0366615
0.0358515
0.0350804
0.0343492
0.0336584
0.0330082
0.0323991
0.0318314
0.0313059
0.0308236
0.030387
0.0299969
0.0296656
0.0293794
0.0292406
0.0964195
0.0767277
0.063523
0.0541268
0.0471587
0.041823
0.0376268
0.034249
0.0314723
0.0291457
0.0271628
0.025448
0.0239486
0.0226281
0.0214615
0.020432
0.0195278
0.0187396
0.0180592
0.0174786
0.0169892
0.0165821
0.0162482
0.0159784
0.0157642
0.0155977
0.0154721
0.015382
0.015323
0.0152923
0.0152883
0.0153105
0.0153591
0.015436
0.0155421
0.0156895
0.015883
0.0164296
0.0231324
0.0404748
0.064822
0.0865219
0.100004
0.106286
0.107267
0.105209
0.101952
0.0985847
0.095556
0.0928141
0.0902936
0.0879333
0.0856813
0.083496
0.0813473
0.0792139
0.077081
0.0749411
0.072792
0.0706356
0.0684783
0.0663284
0.0641962
0.0620922
0.060027
0.0580106
0.0560516
0.0541574
0.0523339
0.0505854
0.0489148
0.0473238
0.0458129
0.0443812
0.0430279
0.0417515
0.04055
0.0394214
0.0383637
0.0373746
0.0364518
0.0355935
0.034798
0.0340644
0.0333918
0.0327816
0.0322334
0.0317597
0.0313451
0.031102
0.0964155
0.0767195
0.0635116
0.0541128
0.0471424
0.0418044
0.037606
0.034226
0.031447
0.0291179
0.0271321
0.0254143
0.0239114
0.0225869
0.0214159
0.0203817
0.0194723
0.0186782
0.0179913
0.0174033
0.0169057
0.0164896
0.0161458
0.0158654
0.01564
0.0154619
0.0153244
0.0152218
0.01515
0.0151059
0.015088
0.0150962
0.0151311
0.0151945
0.0152824
0.0154032
0.015523
0.0169825
0.0548291
0.129072
0.199227
0.236403
0.236831
0.218222
0.195831
0.176795
0.162802
0.153082
0.145519
0.138985
0.132947
0.127184
0.121627
0.116269
0.111118
0.106182
0.101465
0.0969622
0.0926672
0.0885724
0.0846702
0.0809529
0.077415
0.0740518
0.0708588
0.0678321
0.0649677
0.0622618
0.0597096
0.0573063
0.055047
0.052926
0.0509373
0.0490751
0.0473332
0.0457057
0.0441867
0.0427706
0.0414519
0.0402255
0.0390868
0.0380319
0.0370576
0.0361613
0.0353407
0.0345962
0.0339261
0.0333433
0.0328309
0.0325095
0.0964121
0.0767125
0.0635018
0.0541006
0.0471279
0.0417878
0.0375872
0.0342048
0.0314233
0.0290914
0.0271026
0.0253813
0.0238744
0.0225455
0.0213696
0.0203298
0.0194142
0.0186133
0.0179186
0.0173219
0.0168146
0.0163878
0.0160324
0.0157395
0.015501
0.0153093
0.0151578
0.0150406
0.014953
0.0148921
0.014857
0.0148498
0.0148746
0.0149404
0.015051
0.0152288
0.0154212
0.017097
0.0603946
0.145798
0.225993
0.26447
0.266076
0.248787
0.227449
0.209648
0.197435
0.188147
0.179992
0.172076
0.164102
0.156077
0.148125
0.140375
0.132927
0.125843
0.119149
0.11285
0.106937
0.10139
0.09619
0.0913142
0.0867433
0.0824587
0.0784438
0.0746841
0.071165
0.0678735
0.0647978
0.0619254
0.0592454
0.0567468
0.0544191
0.0522521
0.0502359
0.0483614
0.0466197
0.0450026
0.0435026
0.0421127
0.0408265
0.0396384
0.0385435
0.0375379
0.0366182
0.035784
0.0350327
0.0343773
0.0338002
0.0334274
0.0964095
0.0767071
0.0634941
0.0540908
0.0471161
0.0417739
0.0375712
0.0341865
0.0314024
0.0290677
0.0270756
0.0253505
0.0238394
0.0225055
0.021324
0.0202778
0.019355
0.0185459
0.017842
0.017235
0.0167162
0.0162765
0.0159071
0.0155993
0.0153453
0.0151377
0.0149699
0.0148353
0.0147283
0.0146457
0.0145872
0.0145591
0.0145738
0.0146623
0.0148629
0.0152634
0.0157273
0.0174572
0.0589579
0.144221
0.22655
0.267045
0.270784
0.255459
0.236039
0.220346
0.209947
0.202007
0.194619
0.186893
0.178623
0.169955
0.161143
0.152424
0.143975
0.135909
0.128283
0.121115
0.114403
0.108128
0.102267
0.096794
0.0916841
0.0869144
0.082463
0.0783106
0.0744388
0.0708303
0.0674694
0.0643409
0.0614311
0.0587262
0.0562133
0.0538801
0.0517149
0.0497066
0.0478449
0.04612
0.0445233
0.0430465
0.0416821
0.0404237
0.0392656
0.0382033
0.0372327
0.0363528
0.0355606
0.0348689
0.0342597
0.0338621
0.0964078
0.0767034
0.0634887
0.0540837
0.0471073
0.0417632
0.0375584
0.0341715
0.0313848
0.0290472
0.0270517
0.0253228
0.0238072
0.0224681
0.0212804
0.0202271
0.019296
0.0184775
0.0177629
0.0171438
0.0166112
0.0161562
0.0157703
0.0154449
0.0151727
0.0149469
0.0147607
0.0146066
0.0144771
0.0143674
0.0142782
0.0142246
0.0142406
0.0144236
0.014949
0.0161307
0.0173557
0.0192182
0.0532119
0.127968
0.203765
0.245918
0.252419
0.239811
0.222509
0.208
0.198863
0.192657
0.187164
0.181256
0.174578
0.167209
0.159403
0.151435
0.143529
0.135845
0.128479
0.121482
0.114875
0.108657
0.102818
0.0973432
0.0922144
0.0874145
0.0829262
0.0787332
0.074819
0.0711685
0.067767
0.0646
0.0616542
0.0589166
0.0563742
0.0540146
0.0518259
0.049797
0.0479172
0.0461767
0.0445664
0.043078
0.0417036
0.0404368
0.0392716
0.0382033
0.0372277
0.0363437
0.0355482
0.0348538
0.0342427
0.0338443
0.0964069
0.0767014
0.0634854
0.0540791
0.0471012
0.0417555
0.0375488
0.0341597
0.0313706
0.02903
0.0270312
0.0252983
0.0237781
0.0224335
0.0212394
0.0201783
0.0192381
0.0184089
0.017682
0.0170485
0.0164997
0.0160266
0.0156206
0.015274
0.0149803
0.0147332
0.0145272
0.0143527
0.0141986
0.0140582
0.0139359
0.0138681
0.0139527
0.0144892
0.016122
0.0197073
0.0226339
0.0244249
0.026563
0.0338363
0.051332
0.0742539
0.0962548
0.114771
0.128211
0.137607
0.144311
0.148762
0.151121
0.151469
0.149962
0.146886
0.142612
0.137519
0.131936
0.126124
0.120268
0.114492
0.108876
0.103469
0.0982986
0.0933774
0.0887116
0.0843016
0.0801436
0.0762324
0.0725604
0.0691191
0.0658997
0.0628924
0.0600877
0.0574753
0.0550448
0.0527856
0.0506875
0.0487406
0.0469353
0.0452627
0.0437144
0.0422827
0.0409604
0.0397414
0.0386202
0.0375923
0.0366539
0.035804
0.0350398
0.0343738
0.0337886
0.0334116
0.0964067
0.0767007
0.063484
0.0540767
0.0470976
0.0417504
0.0375419
0.0341507
0.0313591
0.0290157
0.0270134
0.0252766
0.0237516
0.0224014
0.0212004
0.0201312
0.0191812