/*--------------------------------*- C++ -*----------------------------------*\
| =========                 |                                                 |
| \\      /  F ield         | OpenFOAM: The Open Source CFD Toolbox           |
|  \\    /   O peration     | Version:  v2012                                 |
|   \\  /    A nd           | Website:  www.openfoam.com                      |
|    \\/     M anipulation  |                                                 |
\*---------------------------------------------------------------------------*/
FoamFile
{
    version     2.0;
    format      ascii;
    class       volScalarField;
    location    "50/air";
    object      G;
}
// * * * * * * * * * * * * * * * * * * * * * * * * * * * * * * * * * * * * * //

dimensions      [1 0 -3 0 0 0 0];


internalField   nonuniform List<scalar> 
287104
(
2680.72
2691.88
2672.9
2655.94
2647.63
2645.79
2647.02
2649.44
2652.24
2654.95
2657.15
2658.5
2658.84
2658.25
2657.01
2655.42
2653.81
2652.41
2651.34
2650.67
2650.36
2650.37
2650.62
2651.02
2651.51
2652.02
2652.49
2652.89
2653.19
2653.36
2653.38
2653.2
2652.77
2652.09
2651.22
2650.23
2649.14
2647.95
2646.88
2646.08
2645.45
2645.09
2644.86
2644.58
2644.47
2644.45
2644.47
2644.51
2644.58
2644.7
2644.91
2645.2
2645.59
2646.03
2646.53
2647.08
2647.67
2648.35
2649.12
2650.04
2651.13
2652.44
2653.97
2655.71
2657.64
2659.73
2661.93
2664.21
2666.54
2668.9
2671.27
2673.66
2676.07
2678.49
2680.82
2682.92
2684.57
2685.52
2685.65
2685.03
2684
2683.08
2682.92
2684.29
2688.57
2698.4
2716.61
2741.75
2766.4
2775.64
2686.05
2698.33
2678.02
2659.86
2650.77
2648.42
2649.29
2651.42
2653.97
2656.44
2658.4
2659.5
2659.59
2658.74
2657.22
2655.38
2653.52
2651.89
2650.6
2649.73
2649.25
2649.11
2649.22
2649.5
2649.89
2650.3
2650.65
2650.88
2650.99
2650.99
2650.89
2650.68
2650.25
2649.57
2648.66
2647.57
2646.41
2645.24
2644.17
2643.3
2642.58
2642.09
2641.77
2641.51
2641.38
2641.28
2641.2
2641.13
2641.14
2641.27
2641.54
2641.92
2642.38
2642.88
2643.4
2643.96
2644.56
2645.25
2646.04
2646.98
2648.1
2649.44
2651
2652.79
2654.76
2656.89
2659.15
2661.49
2663.9
2666.34
2668.81
2671.29
2673.76
2676.18
2678.47
2680.47
2681.98
2682.81
2682.9
2682.37
2681.59
2681.12
2681.56
2683.66
2688.74
2699.44
2718.6
2744.75
2770.49
2778.89
2673.79
2685.24
2664.57
2646.1
2636.75
2634.16
2634.81
2636.75
2639.12
2641.43
2643.25
2644.22
2644.18
2643.22
2641.6
2639.66
2637.71
2635.99
2634.63
2633.69
2633.16
2632.97
2633.04
2633.28
2633.64
2634.02
2634.33
2634.5
2634.51
2634.39
2634.2
2633.94
2633.55
2632.96
2632.1
2631.04
2629.9
2628.83
2627.82
2626.92
2626.15
2625.53
2625.12
2624.88
2624.7
2624.51
2624.32
2624.18
2624.19
2624.38
2624.73
2625.2
2625.71
2626.22
2626.75
2627.3
2627.91
2628.59
2629.39
2630.34
2631.47
2632.82
2634.39
2636.17
2638.14
2640.27
2642.53
2644.89
2647.32
2649.79
2652.27
2654.74
2657.16
2659.5
2661.68
2663.58
2665.04
2665.91
2666.16
2665.92
2665.53
2665.49
2666.33
2668.72
2673.93
2684.54
2703.37
2729.04
2754.34
2762.61
2661.4
2671.97
2651.05
2632.37
2622.8
2620
2620.46
2622.23
2624.44
2626.61
2628.3
2629.16
2629.02
2627.97
2626.28
2624.26
2622.25
2620.47
2619.06
2618.07
2617.5
2617.27
2617.3
2617.5
2617.82
2618.19
2618.5
2618.66
2618.62
2618.39
2618.04
2617.66
2617.23
2616.68
2615.9
2614.88
2613.8
2612.84
2611.92
2610.97
2610.14
2609.37
2608.84
2608.59
2608.31
2607.98
2607.68
2607.5
2607.55
2607.84
2608.29
2608.83
2609.36
2609.88
2610.4
2610.94
2611.54
2612.23
2613.03
2613.99
2615.13
2616.48
2618.05
2619.83
2621.8
2623.94
2626.21
2628.58
2631.03
2633.51
2635.98
2638.39
2640.73
2642.96
2645.03
2646.89
2648.4
2649.45
2650
2650.15
2650.19
2650.53
2651.65
2654.14
2659.28
2669.62
2688.01
2713.12
2737.9
2745.85
2649.47
2659.25
2638.12
2619.25
2609.47
2606.47
2606.76
2608.37
2610.42
2612.43
2613.98
2614.71
2614.47
2613.34
2611.57
2609.5
2607.42
2605.58
2604.12
2603.08
2602.46
2602.18
2602.16
2602.32
2602.59
2602.94
2603.29
2603.54
2603.57
2603.32
2602.82
2602.21
2601.58
2600.96
2600.22
2599.28
2598.28
2597.45
2596.61
2595.61
2594.72
2593.82
2593.15
2592.83
2592.43
2591.97
2591.62
2591.49
2591.64
2592.02
2592.54
2593.07
2593.59
2594.09
2594.6
2595.14
2595.75
2596.44
2597.24
2598.2
2599.34
2600.7
2602.27
2604.05
2606.02
2608.18
2610.47
2612.87
2615.33
2617.79
2620.2
2622.52
2624.74
2626.89
2628.94
2630.88
2632.59
2633.97
2634.92
2635.49
2635.89
2636.45
2637.59
2639.93
2644.76
2654.7
2672.64
2697.29
2721.63
2729.29
2637.87
2646.91
2625.59
2606.54
2596.58
2593.41
2593.54
2594.99
2596.89
2598.74
2600.13
2600.73
2600.39
2599.17
2597.33
2595.19
2593.06
2591.16
2589.64
2588.55
2587.88
2587.55
2587.47
2587.54
2587.74
2588.05
2588.47
2588.93
2589.23
2589.16
2588.62
2587.73
2586.73
2585.8
2584.96
2584.08
2583.2
2582.5
2581.71
2580.66
2579.74
2578.74
2577.92
2577.48
2576.97
2576.5
2576.25
2576.28
2576.55
2576.95
2577.39
2577.82
2578.26
2578.74
2579.25
2579.81
2580.42
2581.11
2581.92
2582.88
2584.02
2585.37
2586.94
2588.73
2590.72
2592.9
2595.22
2597.62
2600.06
2602.46
2604.77
2606.99
2609.14
2611.28
2613.45
2615.61
2617.66
2619.44
2620.78
2621.67
2622.24
2622.79
2623.74
2625.75
2630.19
2639.75
2657.38
2681.77
2705.87
2713.42
2626.53
2634.88
2613.4
2594.19
2584.06
2580.71
2580.7
2582.01
2583.78
2585.5
2586.78
2587.25
2586.8
2585.49
2583.58
2581.38
2579.19
2577.25
2575.68
2574.53
2573.8
2573.41
2573.25
2573.23
2573.3
2573.52
2574.01
2574.76
2575.55
2575.97
2575.66
2574.56
2573.02
2571.5
2570.28
2569.32
2568.55
2567.96
2567.2
2566.11
2565.17
2564.12
2563.15
2562.58
2562.07
2561.82
2561.9
2562.19
2562.5
2562.7
2562.84
2563.02
2563.34
2563.81
2564.36
2564.95
2565.58
2566.27
2567.07
2568.02
2569.16
2570.52
2572.09
2573.9
2575.92
2578.12
2580.45
2582.84
2585.21
2587.52
2589.74
2591.89
2594.07
2596.34
2598.76
2601.26
2603.69
2605.82
2607.42
2608.43
2608.93
2609.25
2609.86
2611.5
2615.62
2624.97
2642.49
2666.81
2690.83
2698.37
2615.45
2623.16
2601.52
2582.18
2571.89
2568.39
2568.22
2569.4
2571.05
2572.66
2573.87
2574.24
2573.69
2572.29
2570.31
2568.05
2565.82
2563.84
2562.25
2561.07
2560.29
2559.84
2559.61
2559.48
2559.38
2559.45
2559.94
2561.02
2562.49
2563.75
2564.05
2563
2560.91
2558.49
2556.49
2555.18
2554.4
2553.85
2553.1
2552
2551.03
2549.96
2548.91
2548.26
2548
2548.33
2548.97
2549.5
2549.59
2549.26
2548.82
2548.62
2548.82
2549.32
2549.95
2550.59
2551.23
2551.92
2552.72
2553.67
2554.81
2556.17
2557.77
2559.6
2561.65
2563.87
2566.18
2568.52
2570.82
2573.04
2575.22
2577.41
2579.73
2582.25
2584.99
2587.84
2590.57
2592.88
2594.53
2595.42
2595.67
2595.66
2595.93
2597.31
2601.29
2610.64
2628.24
2652.61
2676.63
2684.09
2604.63
2611.72
2589.96
2570.5
2560.08
2556.45
2556.14
2557.17
2558.67
2560.15
2561.12
2561.33
2560.66
2559.19
2557.15
2554.86
2552.64
2550.68
2549.12
2547.98
2547.22
2546.77
2546.5
2546.28
2546.03
2545.87
2546.26
2547.58
2549.78
2552.17
2553.55
2552.99
2550.53
2547.04
2543.83
2541.72
2540.68
2540.04
2539.28
2538.2
2537.19
2536.11
2535.09
2534.57
2534.95
2536.24
2537.57
2538.14
2537.61
2536.32
2535.06
2534.43
2534.55
2535.14
2535.88
2536.58
2537.24
2537.92
2538.7
2539.65
2540.8
2542.18
2543.81
2545.67
2547.74
2549.94
2552.2
2554.46
2556.68
2558.88
2561.11
2563.45
2566
2568.81
2571.84
2574.91
2577.75
2580.03
2581.53
2582.18
2582.18
2581.94
2582.06
2583.39
2587.46
2596.98
2614.74
2639.16
2663.12
2670.28
2594.08
2600.58
2578.7
2559.15
2548.64
2544.91
2544.48
2545.39
2546.72
2547.86
2546.81
2546.14
2545.09
2543.51
2541.53
2539.4
2537.41
2535.74
2534.49
2533.64
2533.13
2532.87
2532.72
2532.52
2532.16
2531.75
2531.85
2533.16
2535.88
2539.39
2542.15
2542.57
2540.12
2535.59
2530.8
2527.37
2525.62
2524.65
2523.82
2522.84
2521.76
2520.69
2519.93
2519.89
2521.35
2523.92
2525.87
2526.1
2524.45
2521.87
2519.67
2518.66
2518.79
2519.54
2520.38
2521.1
2521.73
2522.37
2523.12
2524.04
2525.18
2526.55
2528.17
2530.01
2532.02
2534.14
2536.29
2538.44
2540.6
2542.82
2545.15
2547.68
2550.46
2553.48
2556.64
2559.73
2562.45
2564.53
2565.78
2566.3
2566.78
2566.94
2567.43
2569.13
2573.57
2583.4
2601.34
2625.71
2649.46
2655.99
2583.8
2589.75
2567.79
2548.16
2537.57
2533.76
2533.28
2534.15
2535.37
2535.08
2514.38
2509.61
2508.79
2508.71
2508.47
2508.03
2507.56
2507.22
2507.1
2507.18
2507.38
2507.58
2507.69
2507.53
2506.93
2506.01
2505.41
2506.08
2508.61
2512.7
2516.68
2518.37
2516.47
2511.33
2504.98
2499.86
2496.9
2495.2
2494.18
2493.25
2491.98
2490.87
2490.56
2491.29
2493.99
2497.69
2499.75
2499.01
2495.78
2491.74
2488.67
2487.4
2487.59
2488.42
2489.26
2489.91
2490.46
2491.05
2491.77
2492.68
2493.81
2495.16
2496.73
2498.47
2500.32
2502.23
2504.17
2506.12
2508.14
2510.29
2512.62
2515.18
2517.98
2520.94
2523.93
2526.7
2528.99
2530.51
2531.13
2531.24
2537.77
2542.29
2545.7
2549.4
2555.2
2565.87
2584.18
2608.54
2632.08
2638.33
2573.81
2579.25
2557.2
2537.51
2526.85
2522.98
2522.44
2523.27
2524.45
2524.09
2502.57
2497.59
2496.74
2496.68
2496.47
2496.05
2495.57
2495.25
2495.18
2495.35
2495.66
2495.97
2496.15
2496.06
2495.52
2494.52
2493.61
2493.86
2496.27
2500.94
2506.33
2509.83
2509.27
2504.24
2496.7
2489.81
2485.35
2482.67
2481.46
2480.76
2479.39
2478.43
2479.09
2481.13
2485.36
2490.09
2491.86
2489.7
2484.7
2479.31
2475.68
2474.43
2474.85
2475.83
2476.69
2477.3
2477.81
2478.38
2479.11
2480.03
2481.17
2482.52
2484.07
2485.77
2487.56
2489.41
2491.32
2493.33
2495.48
2497.8
2500.31
2503.01
2505.84
2508.71
2511.49
2513.99
2515.98
2517.25
2517.71
2517.79
2524.62
2529.45
2533.14
2537.02
2542.86
2553.39
2571.38
2595.26
2618.23
2623.85
2564.05
2569.01
2546.89
2527.14
2516.42
2512.49
2511.9
2512.68
2513.82
2513.46
2492.33
2487.41
2486.52
2486.37
2486.04
2485.48
2484.86
2484.4
2484.21
2484.32
2484.63
2484.98
2485.22
2485.23
2484.81
2483.87
2482.8
2482.6
2484.53
2489.21
2495.54
2500.77
2502.01
2497.92
2489.94
2481.59
2475.45
2471.44
2469.82
2469.32
2467.9
2467.29
2469.33
2472.93
2478.46
2483.61
2484.43
2480.52
2473.86
2467.56
2463.81
2462.85
2463.52
2464.57
2465.38
2465.92
2466.41
2467
2467.74
2468.68
2469.82
2471.16
2472.66
2474.3
2476.04
2477.88
2479.86
2481.98
2484.29
2486.76
2489.37
2492.07
2494.79
2497.45
2499.97
2502.22
2504.03
2505.22
2505.72
2505.94
2512.86
2517.8
2521.55
2525.39
2531.05
2541.28
2558.86
2582.3
2604.8
2610.14
2554.45
2558.94
2536.75
2516.94
2506.17
2502.19
2501.54
2502.27
2503.37
2503.03
2482.32
2477.49
2476.54
2476.29
2475.87
2475.22
2474.47
2473.85
2473.49
2473.45
2473.67
2473.99
2474.28
2474.39
2474.19
2473.52
2472.52
2471.97
2473.17
2477.21
2483.62
2489.98
2493.03
2490.54
2483.1
2474.04
2466.39
2460.73
2458.31
2457.83
2456.42
2456.46
2460.22
2465.28
2471.46
2476.16
2475.44
2469.76
2461.93
2455.37
2451.98
2451.42
2452.23
2453.2
2453.88
2454.38
2454.88
2455.5
2456.28
2457.23
2458.36
2459.65
2461.1
2462.69
2464.42
2466.31
2468.39
2470.65
2473.07
2475.61
2478.19
2480.76
2483.26
2485.69
2488.01
2490.13
2491.92
2493.22
2493.92
2494.35
2501.3
2506.22
2509.86
2513.47
2518.79
2528.63
2545.83
2568.97
2591.2
2596.68
2544.87
2548.87
2526.61
2506.75
2495.92
2491.88
2491.18
2491.85
2492.92
2492.58
2472.3
2467.55
2466.54
2466.2
2465.72
2465.05
2464.28
2463.56
2463.01
2462.73
2462.72
2462.89
2463.12
2463.32
2463.41
2463.22
2462.66
2462.12
2462.67
2465.61
2471.17
2477.62
2481.92
2481.32
2475.39
2466.67
2458.09
2450.64
2446.87
2446.05
2444.81
2445.9
2451.57
2457.67
2463.56
2466.98
2464.43
2457.39
2449.18
2443.08
2440.31
2440.03
2440.71
2441.41
2441.92
2442.41
2442.98
2443.68
2444.5
2445.44
2446.53
2447.78
2449.18
2450.76
2452.52
2454.49
2456.67
2459.02
2461.48
2463.97
2466.41
2468.77
2471.07
2473.33
2475.56
2477.71
2479.65
2481.16
2482.06
2482.65
2489.46
2494.17
2497.5
2500.74
2505.68
2515.18
2532.16
2555.21
2577.39
2583.34
2535.15
2538.62
2516.29
2496.36
2485.47
2481.37
2480.6
2481.22
2482.23
2481.91
2462.14
2457.47
2456.37
2455.93
2455.44
2454.84
2454.21
2453.56
2452.91
2452.33
2451.91
2451.7
2451.68
2451.87
2452.25
2452.72
2453.05
2453.14
2453.55
2455.4
2459.4
2464.76
2469.25
2470.2
2466.36
2459.08
2450.45
2441.3
2435.57
2433.91
2433.06
2435.7
2443.27
2449.71
2454.39
2456.02
2451.89
2444.32
2436.65
2431.5
2429.29
2428.89
2429.05
2429.26
2429.59
2430.14
2430.85
2431.64
2432.48
2433.4
2434.45
2435.65
2437.03
2438.63
2440.45
2442.5
2444.74
2447.11
2449.5
2451.85
2454.11
2456.29
2458.45
2460.66
2462.96
2465.27
2467.42
2469.13
2470.16
2470.73
2477.2
2481.51
2484.42
2487.28
2491.93
2501.28
2518.24
2541.42
2563.74
2570.3
2525.11
2528
2505.58
2485.58
2474.62
2470.45
2469.62
2470.17
2471.13
2470.83
2451.69
2447.12
2445.92
2445.35
2444.84
2444.42
2444.12
2443.8
2443.26
2442.43
2441.46
2440.57
2439.99
2439.92
2440.5
2441.73
2443.33
2444.82
2446.01
2447.38
2449.68
2453.04
2456.5
2458.08
2456.21
2451.01
2443.24
2432.75
2424.52
2421.49
2421.27
2425.91
2435.18
2441.17
2444.03
2443.95
2439.04
2431.99
2425.61
2421.5
2419.42
2418.28
2417.47
2417.05
2417.23
2417.9
2418.78
2419.66
2420.5
2421.38
2422.37
2423.54
2424.93
2426.57
2428.46
2430.56
2432.8
2435.1
2437.37
2439.54
2441.64
2443.71
2445.87
2448.18
2450.65
2453.15
2455.46
2457.25
2458.25
2458.64
2464.62
2468.45
2470.98
2473.57
2478.13
2487.54
2504.68
2528.1
2550.63
2557.78
2514.7
2516.96
2494.43
2474.35
2463.31
2459.07
2458.17
2458.67
2459.58
2459.3
2440.96
2436.51
2435.19
2434.45
2433.88
2433.67
2433.87
2434.19
2434.11
2433.26
2431.69
2429.85
2428.31
2427.61
2428.12
2430.04
2433.13
2436.66
2439.69
2441.68
2442.95
2444.2
2445.79
2446.85
2446.02
2442.7
2436.32
2425.04
2414.15
2409.33
2409.91
2416.76
2427.25
2432.15
2433.1
2432
2427.41
2421.81
2417.02
2413.59
2410.9
2408.4
2406.31
2405.23
2405.31
2406.15
2407.19
2408.12
2408.92
2409.73
2410.68
2411.86
2413.29
2414.98
2416.91
2419.01
2421.19
2423.36
2425.46
2427.5
2429.52
2431.61
2433.88
2436.37
2439.03
2441.67
2444.02
2445.72
2446.51
2446.62
2452.08
2455.51
2457.81
2460.35
2465
2474.64
2492.05
2515.74
2538.45
2546.01
2504.08
2505.68
2483.03
2462.85
2451.71
2447.38
2446.42
2446.87
2447.76
2447.56
2430.22
2425.94
2424.5
2423.52
2422.8
2422.72
2423.51
2424.74
2425.52
2425.03
2423.03
2420.06
2417.13
2415.29
2415.3
2417.6
2422.09
2427.94
2433.55
2437.39
2438.96
2439.05
2438.94
2438.72
2437.62
2435.06
2429.88
2418.34
2405.25
2398.63
2400.05
2408.82
2419.78
2423.24
2422.7
2421.57
2418.25
2414.51
2411.04
2407.56
2403.55
2399.3
2395.92
2394.3
2394.4
2395.41
2396.55
2397.45
2398.17
2398.92
2399.86
2401.08
2402.57
2404.31
2406.24
2408.27
2410.32
2412.35
2414.33
2416.3
2418.36
2420.58
2423.04
2425.72
2428.5
2431.17
2433.41
2434.9
2435.42
2435.25
2440.3
2443.5
2445.76
2448.44
2453.35
2463.26
2480.94
2504.81
2527.62
2535.48
2493.64
2494.6
2471.82
2451.53
2440.28
2435.84
2434.79
2435.17
2436.05
2436
2420.63
2416.71
2415.1
2413.75
2412.65
2412.46
2413.63
2415.78
2417.69
2417.94
2415.79
2411.69
2407.05
2403.54
2402.54
2404.78
2410.28
2418.2
2426.54
2433.01
2436.41
2437.15
2436.71
2435.49
2433.16
2429.87
2425.02
2413.58
2399.55
2391.79
2393.98
2403.84
2414.21
2416.27
2414.83
2414.4
2412.63
2410.41
2407.47
2403.14
2397.38
2391.41
2387.01
2385.13
2385.33
2386.48
2387.62
2388.42
2389.06
2389.78
2390.76
2392.06
2393.61
2395.36
2397.24
2399.16
2401.09
2403
2404.94
2406.98
2409.2
2411.64
2414.29
2417.1
2419.9
2422.46
2424.52
2425.79
2426.1
2425.78
2430.36
2433.39
2435.71
2438.59
2443.76
2453.92
2471.77
2495.74
2518.59
2526.74
2483.77
2484.11
2461.2
2440.8
2429.42
2424.85
2423.67
2423.9
2424.7
2425.5
2424.88
2423.99
2422.19
2419.58
2416.92
2415.42
2415.97
2418.42
2421.28
2422.49
2420.58
2415.62
2409.24
2403.82
2401.5
2403.43
2409.73
2419.43
2430.29
2439.79
2446.35
2449.83
2451.15
2450.17
2446.53
2441.3
2435.49
2423.74
2410.12
2402.01
2404.45
2413.86
2422.07
2422.72
2420.51
2420.79
2420.1
2418.52
2415.2
2409.47
2401.95
2394.68
2389.82
2388.08
2388.62
2389.99
2391.21
2392.05
2392.76
2393.63
2394.8
2396.28
2397.97
2399.81
2401.73
2403.69
2405.69
2407.76
2409.97
2412.38
2415.02
2417.86
2420.81
2423.77
2426.61
2429.17
2431.24
2432.63
2433.26
2433.18
2432.98
2432.72
2433
2434.64
2439.03
2448.72
2466.27
2490.05
2512.74
2520.72
2474.48
2474.21
2451.19
2430.67
2419.17
2414.48
2413.16
2413.25
2413.9
2414.62
2414.9
2414.25
2412.39
2409.49
2406.38
2404.43
2404.94
2408.12
2412.55
2415.61
2415.04
2410.24
2402.71
2395.36
2391.12
2391.75
2397.51
2407.2
2418.55
2429.54
2438.97
2446.2
2450.94
2451.89
2448.18
2441.48
2434.6
2422.67
2411.66
2404.74
2406.91
2414.06
2418.63
2418.21
2415.12
2415.62
2415.3
2413.68
2409.7
2402.93
2394.56
2387.02
2382.38
2381.01
2381.76
2383.11
2384.21
2384.96
2385.66
2386.56
2387.72
2389.1
2390.63
2392.25
2393.93
2395.69
2397.55
2399.58
2401.87
2404.44
2407.24
2410.17
2413.09
2415.91
2418.55
2420.9
2422.83
2424.19
2424.88
2424.92
2424.57
2424.28
2424.59
2426.28
2430.71
2440.39
2457.91
2481.62
2504.3
2512.9
2465.1
2464.19
2441.06
2420.45
2408.85
2404.06
2402.63
2402.62
2403.15
2403.73
2403.95
2403.24
2401.3
2398.22
2394.7
2392.17
2392.27
2395.7
2401.34
2406.36
2407.73
2404
2396.2
2387.38
2381.18
2380.17
2384.81
2393.49
2403.87
2414.9
2426.41
2437.39
2446.14
2450.12
2448
2441.82
2435.41
2423.77
2416.92
2412.3
2413.34
2416.3
2415.53
2413.18
2407.49
2406.63
2405.48
2403.17
2398.52
2391.38
2383.14
2376.14
2372.1
2371.12
2371.97
2373.26
2374.3
2375.08
2375.87
2376.81
2377.92
2379.16
2380.49
2381.9
2383.41
2385.04
2386.85
2388.94
2391.35
2394.08
2396.98
2399.9
2402.73
2405.38
2407.87
2410.14
2412.09
2413.56
2414.42
2414.69
2414.55
2414.44
2414.9
2416.68
2421.15
2430.84
2448.33
2472.01
2494.68
2503.83
2454.46
2452.78
2429.54
2408.85
2397.19
2392.35
2390.9
2390.85
2391.33
2391.83
2391.92
2391.13
2389.13
2385.91
2382.01
2378.76
2377.97
2380.91
2387
2393.57
2397.09
2395.21
2388.18
2378.78
2371.05
2368.43
2371.82
2379.13
2387.82
2397.86
2410.27
2423.87
2435.74
2442.46
2442.94
2439.81
2436.99
2427.16
2425.83
2424.33
2423.25
2420.55
2413.32
2407.93
2397.63
2394.09
2391.62
2388.7
2383.93
2377.2
2369.74
2363.5
2359.9
2359.02
2359.81
2361.06
2362.13
2363.01
2363.84
2364.72
2365.66
2366.67
2367.79
2369.03
2370.41
2371.94
2373.73
2375.87
2378.38
2381.18
2384.08
2386.93
2389.63
2392.18
2394.63
2396.95
2399.04
2400.7
2401.77
2402.22
2402.25
2402.26
2402.81
2404.64
2409.14
2418.84
2436.33
2459.98
2482.62
2492.32
2441.33
2438.69
2415.32
2394.54
2382.83
2377.99
2376.58
2376.6
2377.14
2377.66
2377.71
2376.88
2374.87
2371.61
2367.46
2363.51
2361.57
2363.3
2368.86
2376.12
2381.45
2381.82
2376.53
2367.65
2359.18
2355.31
2357.6
2363.83
2371.14
2380.05
2392.33
2406.7
2419.6
2427.45
2430.26
2431.94
2436.29
2430.79
2436.63
2439.85
2435.33
2424.67
2410.46
2400.78
2384.06
2377.33
2373.9
2371.12
2367.03
2361.3
2354.66
2348.71
2344.92
2343.67
2344.2
2345.38
2346.49
2347.34
2348.03
2348.66
2349.32
2350.1
2351.07
2352.19
2353.5
2355
2356.83
2359.06
2361.67
2364.52
2367.41
2370.2
2372.86
2375.45
2378.02
2380.53
2382.83
2384.71
2385.96
2386.55
2386.7
2386.8
2387.41
2389.31
2393.86
2403.6
2421.09
2444.68
2467.25
2477.73
2425.14
2421.36
2397.81
2376.89
2365.1
2360.22
2358.84
2358.94
2359.58
2360.19
2360.27
2359.45
2357.5
2354.38
2350.31
2346.06
2343.14
2343.34
2347.5
2354.33
2360.65
2363.07
2360.06
2352.71
2344.46
2339.84
2341.2
2346.84
2353.88
2362.56
2374.28
2387.48
2398.87
2405.58
2409.31
2416.03
2430.19
2432.22
2455.99
2467.8
2458.4
2434.87
2404.75
2389.73
2365.76
2356.46
2353.03
2351.27
2348.43
2343.65
2337.22
2330.71
2325.98
2323.9
2323.93
2324.92
2325.97
2326.72
2327.22
2327.68
2328.28
2329.15
2330.28
2331.56
2333.04
2334.77
2336.87
2339.36
2342.14
2345.03
2347.87
2350.61
2353.28
2355.97
2358.69
2361.38
2363.85
2365.85
2367.19
2367.84
2368.04
2368.19
2368.86
2370.81
2375.41
2385.17
2402.63
2426.13
2448.61
2460.02
2406.27
2401.24
2377.5
2356.4
2344.42
2339.4
2337.93
2338
2338.65
2339.26
2339.32
2338.49
2336.63
2333.82
2330.26
2326.41
2323.24
2322.26
2324.69
2330.15
2336.31
2340
2339.18
2333.95
2326.8
2321.95
2322.3
2327.55
2335.55
2345.52
2357.09
2368.03
2375.99
2379.55
2382.3
2392.56
2416.94
2428.86
2467.62
2490.96
2475.54
2433.54
2391.28
2371.35
2341.48
2331.49
2329.11
2328.88
2327.39
2323.31
2316.78
2309.64
2304.16
2301.43
2301.06
2301.91
2302.96
2303.71
2304.19
2304.68
2305.44
2306.56
2307.91
2309.38
2311.1
2313.17
2315.64
2318.39
2321.22
2323.95
2326.55
2329.09
2331.7
2334.43
2337.24
2340.01
2342.53
2344.56
2345.91
2346.59
2346.82
2347.02
2347.75
2349.75
2354.39
2364.15
2381.56
2404.95
2427.32
2439.65
2386.16
2379.89
2355.95
2334.63
2322.41
2317.13
2315.42
2315.28
2315.75
2316.21
2316.12
2315.13
2313.26
2310.8
2308.09
2305.39
2303.06
2301.93
2303.04
2306.71
2311.68
2315.48
2316.07
2312.91
2307.44
2302.91
2302.07
2306.49
2315.88
2328.2
2340.3
2348.88
2352.77
2352.19
2352.31
2363.37
2395.32
2417.79
2532.44
2561.95
2540.98
2483.28
2368.55
2346.23
2315.13
2307.16
2306.39
2307.44
2306.82
2303.15
2296.71
2289.5
2283.67
2280.23
2278.96
2279.11
2279.82
2280.51
2281.03
2281.63
2282.57
2283.86
2285.34
2286.97
2289.05
2291.67
2294.67
2297.67
2300.35
2302.65
2304.77
2306.98
2309.45
2312.17
2315.02
2317.81
2320.33
2322.35
2323.72
2324.42
2324.7
2324.95
2325.72
2327.76
2332.42
2342.16
2359.51
2382.77
2405.01
2418.15
2366.76
2359.35
2335.25
2313.74
2301.25
2295.66
2293.62
2293.15
2293.31
2293.49
2293.11
2291.84
2289.79
2287.52
2285.67
2284.55
2284.03
2284.02
2284.87
2287.09
2290.38
2293.26
2294.17
2292.38
2288.7
2284.99
2282.97
2285.66
2295.64
2310
2322.77
2329.95
2331.23
2328.11
2326.41
2336.69
2371.67
2398.26
2454.87
2478.56
2459.79
2406.21
2342.62
2322.31
2293.7
2288.08
2287.34
2287.97
2287.08
2283.58
2277.89
2271.59
2265.99
2261.7
2258.98
2257.89
2258.06
2258.79
2259.56
2260.41
2261.5
2262.87
2264.42
2266.34
2269.07
2272.53
2276.15
2279.24
2281.44
2282.96
2284.36
2286.14
2288.47
2291.19
2294.07
2296.88
2299.41
2301.44
2302.84
2303.58
2303.9
2304.19
2304.99
2307.04
2311.69
2321.4
2338.66
2361.79
2383.91
2397.71
2350.05
2341.71
2317.5
2295.84
2283.15
2277.32
2274.97
2274.18
2274.02
2273.89
2273.2
2271.59
2269.2
2266.82
2265.46
2265.75
2267.36
2269.4
2271.21
2272.93
2274.87
2276.52
2276.97
2275.66
2273.34
2270.78
2268.28
2268.92
2278.37
2293.5
2306.38
2313.45
2314.41
2311.33
2309.4
2317.41
2350.6
2376.58
2244.24
2263.5
2249.52
2207.77
2323.84
2304.72
2278.91
2274.16
2271.48
2270.52
2268.98
2266.01
2261.94
2257.39
2252.42
2247.25
2242.83
2240.28
2239.87
2240.77
2241.99
2243.18
2244.4
2245.74
2247.42
2249.88
2253.59
2258.05
2262.18
2264.97
2266.23
2266.62
2267.15
2268.51
2270.76
2273.56
2276.52
2279.38
2281.95
2284.03
2285.46
2286.25
2286.59
2286.89
2287.69
2289.72
2294.34
2304
2321.19
2344.21
2366.21
2380.51
2337.34
2328.32
2304.09
2282.4
2269.64
2263.71
2261.23
2260.27
2259.93
2259.63
2258.76
2256.9
2254.15
2251.35
2249.87
2250.76
2253.94
2258.09
2261.62
2263.91
2265.4
2266.36
2266.44
2265.21
2263.79
2262.58
2261.36
2261.06
2269.58
2283.86
2295.22
2302.35
2303.93
2302.54
2302.05
2307.26
2334.94
2356.71
2069.27
2082.3
2074.31
2047.35
2310.84
2294.14
2271.12
2265.92
2260.08
2257.05
2254.83
2252.67
2250.62
2248.11
2243.99
2238.19
2232.28
2228.33
2227.25
2228.27
2229.99
2231.56
2232.81
2234.05
2235.94
2239.19
2244.04
2249.41
2253.65
2255.63
2255.52
2254.61
2254.33
2255.44
2257.76
2260.72
2263.81
2266.76
2269.39
2271.52
2273
2273.8
2274.14
2274.43
2275.21
2277.22
2281.8
2291.41
2308.52
2331.46
2353.37
2368.01
2329.14
2319.69
2295.51
2273.89
2261.22
2255.37
2252.96
2252.05
2251.75
2251.49
2250.68
2248.83
2245.91
2242.66
2240.53
2241.01
2244.57
2250.02
2255.24
2258.79
2260.79
2262.04
2262.7
2262.28
2262.06
2262.37
2264.61
2265.39
2272.98
2284.28
2291.34
2297.39
2299.25
2300.69
2304.09
2308.25
2328.98
2341.46
1966.64
1969.65
1966.79
1957.25
2304.61
2292.13
2271.91
2265.26
2255.04
2248.89
2245.25
2243.67
2243.73
2243.61
2240.99
2235.35
2228.55
2223.31
2221.25
2222
2223.93
2225.76
2226.87
2227.87
2230.03
2234.21
2240.16
2246.12
2250
2250.78
2249.2
2247.15
2246.38
2247.52
2250.09
2253.26
2256.48
2259.5
2262.19
2264.36
2265.86
2266.66
2266.99
2267.25
2268
2269.97
2274.52
2284.09
2301.16
2324.05
2345.9
2360.73
2325.39
2315.66
2291.52
2269.98
2257.43
2251.73
2249.47
2248.69
2248.5
2248.37
2247.74
2246.09
2243.26
2239.74
2236.84
2236.23
2238.95
2244.49
2250.81
2255.85
2259.12
2261.63
2264.28
2266.57
2269.17
2271.31
2278.36
2281.69
2287.82
2293.67
2293.51
2296.99
2300.21
2305.8
2315.13
2320.8
2341.5
2348.29
1918.82
1911.43
1910.21
1912.54
2319.79
2306.97
2284.07
2274.41
2257.49
2245.99
2239.76
2238.63
2241.22
2244.2
2244.04
2239.57
2232.55
2226.07
2222.51
2222.2
2222.36
2224.09
2224.85
2225.56
2228.13
2233.36
2240.31
2246.52
2249.74
2249.28
2246.5
2243.81
2243.03
2244.5
2247.4
2250.77
2254.06
2257.11
2259.81
2261.99
2263.49
2264.28
2264.58
2264.82
2265.54
2267.48
2272
2281.54
2298.6
2321.47
2343.3
2358.16
2325.94
2316
2291.76
2270.13
2257.54
2251.82
2249.56
2248.77
2248.57
2248.41
2247.8
2246.26
2243.55
2239.93
2236.38
2234.42
2235.5
2239.93
2246.4
2252.73
2257.7
2262.18
2268.05
2275.42
2283.66
2288.41
2300.71
2307.04
2310.6
2309
2299.57
2298.57
2300.29
2310.91
2327.43
2335.6
2369.6
2391.78
1981.24
1976.56
1972.58
1967.58
2365.66
2338.54
2301.92
2287.52
2261.03
2242.75
2234.15
2234.05
2239.25
2245.14
2247.46
2244.57
2237.83
2230.32
2224.96
2223.11
2222.45
2223.97
2224.5
2225.27
2228.67
2235.14
2242.91
2249.06
2251.48
2250
2246.54
2243.82
2243.47
2245.45
2248.65
2252.1
2255.37
2258.39
2261.08
2263.26
2264.74
2265.51
2265.79
2266.01
2266.71
2268.64
2273.14
2282.68
2299.73
2322.61
2344.44
2359.24
2330.22
2320.28
2295.78
2273.87
2260.96
2254.94
2252.39
2251.34
2250.89
2250.49
2249.67
2248.02
2245.28
2241.59
2237.58
2234.41
2233.54
2235.91
2241.21
2247.8
2254.11
2260.61
2270.1
2284.05
2300.77
2309.57
2327.24
2337.14
2336.94
2326.62
2308.1
2300.76
2297.92
2312.53
2337.29
2352.37
2414.84
2443.69
2014.74
2004.51
2002.48
2005.69
2427.95
2392.94
2320.07
2296.66
2260.77
2238.17
2229.44
2230.75
2237.34
2244.59
2248.62
2247.6
2242.19
2234.75
2228.24
2224.9
2223.36
2224.72
2225.48
2226.94
2231.58
2239.2
2247.31
2252.93
2254.37
2252.11
2248.51
2246.25
2246.59
2249.05
2252.39
2255.76
2258.93
2261.9
2264.58
2266.76
2268.24
2268.99
2269.26
2269.47
2270.16
2272.08
2276.58
2286.12
2303.19
2326.1
2347.95
2362.6
2336.48
2326.93
2302.23
2280.04
2266.72
2260.25
2257.26
2255.81
2255.01
2254.32
2253.27
2251.44
2248.64
2244.96
2240.82
2236.98
2234.53
2234.54
2237.45
2242.63
2248.86
2256.42
2268.72
2288.99
2315.6
2330.31
2362.19
2377.58
2371.91
2349.81
2315.45
2301.31
2291.67
2307.77
2338.62
2366.05
2500.02
2522.53
2121.8
2105.6
2105.01
2118.51
2533.74
2509.02
2335.38
2298.13
2256.99
2233.46
2226
2228.04
2234.32
2241.43
2246.74
2248.37
2245.81
2240.1
2233.6
2229.15
2226.44
2227.44
2228.66
2231.19
2236.99
2245.09
2252.72
2257.2
2257.56
2254.81
2251.54
2250.09
2251.16
2253.9
2257.16
2260.34
2263.38
2266.32
2269.03
2271.22
2272.7
2273.45
2273.71
2273.91
2274.6
2276.52
2281.02
2290.58
2307.69
2330.64
2352.51
2366.94
2341.94
2333.07
2308.41
2286.2
2272.7
2265.96
2262.68
2260.95
2259.93
2259.09
2257.95
2256.09
2253.37
2249.91
2246.08
2242.4
2239.48
2238
2238.55
2241.26
2245.81
2252.85
2266.18
2290.68
2326.35
2348.6
2391.93
2414.72
2402.07
2363.48
2317.93
2298.83
2283.16
2298.5
2327.13
2341.17
2288.21
2275.49
2245.46
2228.09
2224.56
2227.98
2233.79
2240.38
2246.63
2250.75
2251.23
2247.79
2241.9
2236.45
2231.98
2231.91
2233.4
2236.95
2243.43
2251.15
2257.6
2260.7
2260.17
2257.46
2254.99
2254.53
2256.18
2258.93
2261.9
2264.8
2267.74
2270.69
2273.44
2275.66
2277.15
2277.9
2278.16
2278.36
2279.06
2280.99
2285.51
2295.08
2312.23
2335.23
2357.12
2371.28
2344.7
2336.36
2311.95
2289.97
2276.63
2269.98
2266.73
2265
2263.97
2263.15
2262.03
2260.23
2257.65
2254.5
2251.21
2248.23
2245.83
2244.17
2243.39
2243.73
2245.53
2250.12
2261.74
2286.69
2327.8
2359.08
2478.3
2506.86
2488.97
2436.11
2318.5
2298.83
2282.58
2298.92
2328.53
2341.51
2284.07
2271.97
2245.36
2232.16
2230.85
2234.37
2239.05
2244.58
2250.63
2255.54
2257.41
2255.39
2250.2
2244.12
2237.81
2236.26
2237.87
2242.37
2249.06
2255.87
2260.96
2262.96
2262.1
2260
2258.66
2259.14
2261.04
2263.48
2265.98
2268.58
2271.43
2274.42
2277.22
2279.48
2280.98
2281.74
2282.02
2282.24
2282.95
2284.9
2289.44
2299.05
2316.23
2339.28
2361.19
2375.07
2344.87
2336.65
2312.53
2290.87
2277.91
2271.61
2268.66
2267.17
2266.33
2265.61
2264.56
2262.82
2260.32
2257.34
2254.38
2251.88
2250.02
2248.71
2247.67
2246.8
2246.5
2248.4
2256.9
2279.08
2319.99
2354.95
2424.64
2447.06
2429.14
2378.27
2307.13
2290.35
2277.82
2296.34
2327.91
2343.29
2284.44
2268.68
2243.46
2234.09
2236.27
2241.64
2247
2252
2256.96
2260.86
2262.35
2260.7
2256.31
2250.55
2243.28
2240.44
2242.18
2247.42
2253.78
2259.41
2263.26
2264.58
2263.89
2262.73
2262.52
2263.62
2265.38
2267.24
2269.18
2271.49
2274.27
2277.28
2280.12
2282.42
2283.95
2284.74
2285.05
2285.3
2286.04
2288.02
2292.59
2302.22
2319.44
2342.54
2364.45
2378.11
2343.88
2335.34
2311.36
2289.92
2277.31
2271.43
2268.9
2267.79
2267.26
2266.77
2265.86
2264.2
2261.76
2258.87
2256.06
2253.8
2252.35
2251.61
2251.27
2250.95
2250.55
2250.89
2255.22
2270.2
2303.02
2335.15
2219.59
2237.38
2223.52
2182.63
2290.04
2275.53
2269.23
2290.76
2325.73
2345
2284.82
2266.04
2241.43
2235.74
2241.94
2250.29
2257.14
2262.06
2265.57
2267.61
2267.65
2265.46
2261.63
2256.87
2249.96
2246.38
2248.12
2253.48
2258.64
2262.89
2265.56
2266.42
2266.03
2265.75
2266.39
2267.7
2269.03
2270.23
2271.67
2273.73
2276.41
2279.39
2282.23
2284.53
2286.1
2286.92
2287.25
2287.52
2288.29
2290.29
2294.89
2304.57
2321.84
2344.99
2366.93
2380.42
2343.49
2334.4
2310.3
2288.8
2276.28
2270.58
2268.3
2267.49
2267.23
2266.95
2266.17
2264.56
2262.19
2259.49
2257.08
2255.48
2254.89
2255.2
2256.07
2257.04
2257.59
2257.49
2257.85
2263.03
2280.74
2302
2023.95
2036.4
2029.91
2004.79
2268.48
2258.3
2258.07
2280.79
2318.98
2344.83
2283.67
2261.66
2238.23
2236.21
2246.32
2257.88
2266.61
2271.7
2274.1
2274.8
2273.89
2271.3
2267.98
2264.62
2259.7
2256.3
2257.93
2262.46
2265.17
2267.84
2269.09
2269.34
2269.06
2269.37
2270.44
2271.65
2272.49
2273.16
2274.22
2276.04
2278.54
2281.38
2284.11
2286.36
2287.89
2288.69
2288.99
2289.25
2290.01
2292.03
2296.67
2306.39
2323.73
2346.95
2368.93
2382.36
2344.62
2335.24
2310.94
2289.22
2276.52
2270.69
2268.36
2267.53
2267.28
2266.99
2266.12
2264.45
2262.18
2259.92
2258.37
2257.94
2258.58
2259.86
2261.28
2262.47
2263.15
2263.07
2262.09
2261.05
2262.81
2264.11
1879.98
1882.09
1882.95
1880.11
2247.3
2246.12
2248.96
2266.7
2304.25
2340.25
2279.12
2254.18
2234.6
2236.59
2249.15
2262.63
2272.79
2278.24
2280.53
2281.32
2281.05
2279.39
2277.18
2275.27
2273.6
2271.15