/*--------------------------------*- C++ -*----------------------------------*\
| =========                 |                                                 |
| \\      /  F ield         | OpenFOAM: The Open Source CFD Toolbox           |
|  \\    /   O peration     | Version:  v2012                                 |
|   \\  /    A nd           | Website:  www.openfoam.com                      |
|    \\/     M anipulation  |                                                 |
\*---------------------------------------------------------------------------*/
FoamFile
{
    version     2.0;
    format      ascii;
    class       volScalarField;
    location    "50/air";
    object      GLeaf;
}
// * * * * * * * * * * * * * * * * * * * * * * * * * * * * * * * * * * * * * //

dimensions      [1 0 -3 0 0 0 0];


internalField   nonuniform List<scalar> 
287104
(
579.525
584.869
561.044
539.923
527.91
522.671
520.757
520.227
520.245
520.324
520.023
518.988
517.06
514.318
511.022
507.506
504.081
500.978
498.333
496.192
494.533
493.292
492.389
491.746
491.285
490.919
490.57
490.189
489.756
489.239
488.615
487.837
486.856
485.68
484.363
482.97
481.51
479.994
478.616
477.538
476.649
476.047
475.579
475.091
474.775
474.555
474.386
474.25
474.151
474.117
474.175
474.337
474.594
474.931
475.336
475.804
476.346
476.978
477.729
478.634
479.725
481.028
482.549
484.277
486.18
488.22
490.359
492.56
494.792
497.036
499.282
501.538
503.807
506.073
508.26
510.216
511.716
512.529
512.522
511.77
510.608
509.573
509.301
510.56
514.708
524.348
542.243
566.855
590.719
598.965
584.975
591.554
566.512
544.298
531.598
525.942
523.755
523.024
522.875
522.796
522.333
521.125
519.015
516.086
512.603
508.907
505.312
502.052
499.266
497.003
495.241
493.915
492.939
492.235
491.719
491.292
490.852
490.338
489.752
489.095
488.39
487.612
486.673
485.535
484.205
482.752
481.261
479.792
478.447
477.341
476.404
475.709
475.205
474.763
474.451
474.186
473.935
473.709
473.558
473.533
473.653
473.897
474.225
474.606
475.026
475.496
476.033
476.661
477.408
478.308
479.395
480.695
482.216
483.945
485.853
487.904
490.06
492.289
494.565
496.865
499.177
501.489
503.79
506.04
508.156
509.983
511.325
511.993
511.916
511.225
510.297
509.679
509.986
511.939
516.861
527.336
546.153
571.761
596.68
604.059
572.846
578.723
553.421
531.009
518.148
512.349
510.035
509.193
508.95
508.793
508.264
507.001
504.844
501.877
498.365
494.647
491.038
487.771
484.986
482.731
480.985
479.681
478.734
478.068
477.592
477.21
476.807
476.305
475.701
475.008
474.292
473.571
472.767
471.81
470.647
469.313
467.951
466.685
465.515
464.471
463.569
462.833
462.325
461.984
461.706
461.42
461.134
460.903
460.81
460.901
461.161
461.529
461.94
462.363
462.803
463.279
463.82
464.452
465.203
466.108
467.198
468.497
470.01
471.725
473.615
475.646
477.786
480.004
482.276
484.575
486.874
489.151
491.379
493.521
495.501
497.201
498.465
499.15
499.211
498.785
498.218
498.006
498.684
500.904
505.926
516.291
534.756
559.839
584.302
591.523
560.593
565.719
540.294
517.781
504.807
498.903
496.496
495.575
495.263
495.048
494.475
493.185
491.016
488.047
484.542
480.838
477.248
474.006
471.251
469.032
467.327
466.069
465.17
464.557
464.14
463.835
463.53
463.122
462.576
461.888
461.147
460.433
459.723
458.956
458.018
456.884
455.722
454.72
453.779
452.834
452.012
451.271
450.772
450.544
450.292
449.98
449.685
449.509
449.545
449.81
450.238
450.732
451.224
451.695
452.166
452.669
453.234
453.889
454.664
455.591
456.699
458.012
459.532
461.247
463.137
465.17
467.318
469.554
471.843
474.146
476.425
478.644
480.778
482.804
484.682
486.336
487.651
488.51
488.87
488.836
488.698
488.869
489.815
492.135
497.069
507.15
525.152
549.658
573.575
580.469
548.81
553.278
527.772
505.182
492.116
486.123
483.641
482.652
482.272
481.991
481.365
480.044
477.867
474.909
471.427
467.751
464.193
460.987
458.271
456.096
454.439
453.233
452.396
451.838
451.482
451.272
451.126
450.929
450.581
450.007
449.256
448.46
447.71
447.024
446.286
445.394
444.484
443.772
443.067
442.225
441.503
440.777
440.276
440.12
439.867
439.551
439.32
439.292
439.525
439.972
440.529
441.097
441.631
442.138
442.648
443.19
443.791
444.476
445.278
446.23
447.359
448.687
450.217
451.942
453.845
455.9
458.078
460.341
462.643
464.929
467.152
469.279
471.307
473.248
475.105
476.84
478.359
479.543
480.309
480.698
480.917
481.306
482.285
484.453
489.085
498.766
516.315
540.37
563.858
570.476
537.346
541.221
515.655
493.007
479.866
473.801
471.259
470.215
469.774
469.423
468.738
467.375
465.184
462.234
458.773
455.127
451.604
448.435
445.755
443.616
441.998
440.832
440.035
439.502
439.169
439.024
439.06
439.185
439.217
438.947
438.282
437.338
436.35
435.511
434.816
434.13
433.491
433.052
432.55
431.796
431.176
430.488
429.964
429.816
429.568
429.349
429.324
429.554
429.995
430.538
431.089
431.616
432.136
432.672
433.236
433.835
434.48
435.199
436.028
437.003
438.152
439.497
441.043
442.788
444.72
446.811
449.021
451.301
453.589
455.821
457.954
459.983
461.943
463.889
465.859
467.828
469.686
471.267
472.427
473.133
473.523
473.897
474.676
476.508
480.751
490.061
507.296
531.09
554.342
560.871
526.149
529.471
503.86
481.166
467.96
461.829
459.233
458.144
457.66
457.263
456.549
455.149
452.937
449.984
446.536
442.915
439.425
436.291
433.645
431.535
429.941
428.793
428.001
427.449
427.078
426.933
427.125
427.65
428.268
428.587
428.243
427.199
425.791
424.477
423.526
422.894
422.489
422.282
421.933
421.257
420.732
420.105
419.554
419.377
419.232
419.33
419.719
420.284
420.832
421.248
421.564
421.903
422.357
422.932
423.577
424.248
424.943
425.692
426.544
427.537
428.702
430.065
431.635
433.411
435.38
437.507
439.738
442.006
444.242
446.392
448.438
450.413
452.397
454.48
456.704
459.018
461.259
463.193
464.61
465.427
465.751
465.898
466.337
467.798
471.724
480.825
497.954
521.687
544.879
551.415
515.209
518.007
492.366
469.644
456.387
450.194
447.536
446.396
445.875
445.454
444.752
443.327
441.091
438.129
434.685
431.084
427.628
424.539
421.938
419.864
418.294
417.157
416.354
415.756
415.291
415.059
415.325
416.251
417.617
418.849
419.198
418.28
416.399
414.283
412.652
411.769
411.461
411.406
411.168
410.582
410.14
409.594
409.058
408.905
409.106
409.863
410.888
411.763
412.163
412.107
411.911
411.93
412.31
412.967
413.73
414.49
415.233
416.007
416.874
417.881
419.061
420.447
422.049
423.865
425.874
428.023
430.246
432.469
434.632
436.707
438.716
440.734
442.867
445.204
447.758
450.421
452.963
455.09
456.554
457.262
457.33
457.148
457.251
458.447
462.236
471.33
488.535
512.314
535.509
541.968
504.519
506.822
481.164
458.435
445.151
438.913
436.197
434.991
434.399
433.911
433.044
431.525
429.232
426.242
422.783
419.182
415.748
412.699
410.147
408.116
406.572
405.436
404.601
403.928
403.321
402.905
403.101
404.311
406.453
408.853
410.326
409.951
407.764
404.655
401.9
400.331
399.869
399.851
399.724
399.302
398.957
398.541
398.174
398.282
399.245
401.086
402.908
403.926
403.796
402.883
401.955
401.62
401.997
402.818
403.747
404.61
405.401
406.198
407.08
408.102
409.303
410.718
412.357
414.208
416.233
418.368
420.541
422.69
424.781
426.826
428.882
431.045
433.412
436.037
438.875
441.756
444.403
446.503
447.818
448.296
448.132
447.729
447.684
448.843
452.717
461.978
479.346
503.158
526.286
532.446
494.088
495.925
470.265
447.543
434.256
428.004
425.258
424.003
423.318
422.56
419.667
417.174
414.322
410.986
407.297
403.548
400.033
396.962
394.427
392.427
390.9
389.753
388.873
388.118
387.343
386.66
386.606
387.854
390.6
394.232
397.206
397.948
395.951
392.015
387.93
385.316
384.451
384.413
384.552
384.551
384.47
384.399
384.621
385.533
387.888
391.292
394.011
394.943
393.949
391.977
390.338
389.829
390.408
391.537
392.703
393.696
394.548
395.374
396.269
397.297
398.502
399.914
401.542
403.36
405.315
407.341
409.377
411.393
413.395
415.43
417.573
419.906
422.488
425.314
428.28
431.177
433.726
435.651
436.795
437.255
437.695
437.803
438.216
439.822
444.124
453.74
471.316
495.102
518.028
523.556
483.934
485.335
459.681
436.977
423.702
417.462
414.74
413.527
412.787
410.611
386.539
378.1
373.62
370
366.425
362.89
359.602
356.76
354.463
352.706
351.415
350.49
349.814
349.215
348.603
348.038
348.032
349.441
352.801
357.753
362.637
365.302
364.501
360.6
355.619
351.96
350.484
350.236
350.602
351.027
351.061
351.206
352.104
353.931
357.601
362.134
364.947
364.899
362.358
358.999
356.592
355.925
356.654
357.951
359.192
360.194
361.052
361.911
362.869
363.98
365.276
366.77
368.45
370.271
372.17
374.091
375.999
377.898
379.828
381.85
384.032
386.419
389.013
391.752
394.491
397.006
399.03
400.322
400.819
401.386
408.975
414.395
418.576
422.922
429.241
440.28
458.737
482.937
506.029
511.513
474.052
475.049
449.412
426.732
413.475
407.255
404.558
403.381
402.685
400.497
375.764
367.271
362.904
359.429
355.986
352.553
349.343
346.578
344.382
342.76
341.621
340.843
340.296
339.827
339.245
338.601
338.363
339.478
342.842
348.507
354.923
359.483
360.087
356.374
350.297
344.989
342.141
341.062
341.378
342.158
342.217
342.623
344.577
347.784
353.036
358.645
361.229
359.865
355.667
351.095
348.252
347.732
348.786
350.311
351.638
352.651
353.515
354.401
355.399
356.554
357.891
359.406
361.08
362.866
364.707
366.574
368.466
370.413
372.46
374.648
376.996
379.497
382.107
384.74
387.262
389.486
391.202
392.23
392.551
393.049
400.851
406.513
410.905
415.383
421.703
432.575
450.681
474.377
496.878
501.73
464.401
465.018
439.405
416.756
403.525
397.33
394.656
393.505
392.846
390.743
366.537
358.275
354.016
350.599
347.187
343.762
340.537
337.751
335.561
333.998
332.974
332.344
331.963
331.684
331.324
330.862
330.556
331.306
334.281
340.044
347.458
353.791
356.211
353.44
346.944
340.222
335.77
333.443
333.447
334.509
334.588
335.41
338.792
343.587
350.166
356.228
357.905
354.865
349.103
343.718
340.851
340.686
342.054
343.701
345.025
346.02
346.893
347.81
348.842
350.024
351.374
352.877
354.513
356.246
358.039
359.895
361.835
363.89
366.083
368.41
370.841
373.327
375.811
378.225
380.477
382.443
383.969
384.917
385.274
385.882
393.712
399.439
403.85
408.24
414.335
424.851
442.502
465.716
487.711
492.247
454.9
455.145
429.559
406.945
393.745
387.578
384.935
383.815
383.198
381.187
357.567
349.558
345.408
342.057
338.707
335.334
332.131
329.323
327.091
325.508
324.52
323.988
323.757
323.698
323.654
323.544
323.394
323.87
326.208
331.421
339.011
346.541
350.809
349.663
343.725
336.311
330.406
326.504
325.788
326.938
327.102
328.621
333.754
340.036
347.275
352.922
353.107
348.371
341.531
335.974
333.518
333.8
335.349
336.95
338.181
339.148
340.056
341.028
342.103
343.296
344.629
346.089
347.666
349.348
351.123
353.011
355.037
357.209
359.506
361.88
364.266
366.608
368.873
371.04
373.076
374.908
376.415
377.457
377.988
378.762
386.536
392.174
396.409
400.51
406.221
416.305
433.533
456.409
478.098
482.749
445.428
445.287
419.73
397.153
383.985
377.847
375.232
374.144
373.567
371.648
348.621
340.86
336.811
333.537
330.293
327.056
323.973
321.214
318.933
317.24
316.152
315.59
315.429
315.573
315.921
316.377
316.739
317.295
319.063
323.274
330.114
337.84
343.434
344.21
339.801
332.753
325.952
320.315
318.324
319.201
319.591
322.216
329.273
336.598
343.573
347.976
346.41
340.397
333.261
328.212
326.424
327.018
328.463
329.814
330.898
331.87
332.863
333.913
335.025
336.216
337.508
338.907
340.425
342.077
343.866
345.816
347.929
350.174
352.489
354.798
357.033
359.164
361.207
363.197
365.147
367.005
368.642
369.879
370.605
371.477
379.029
384.378
388.248
391.929
397.215
406.931
423.896
446.653
468.268
473.37
435.822
435.264
409.733
387.192
374.056
367.946
365.355
364.292
363.75
361.925
339.574
332.065
328.106
324.905
321.805
318.81
316.011
313.462
311.212
309.355
307.994
307.181
306.904
307.151
307.911
309.122
310.425
311.668
313.358
316.555
321.93
328.672
334.564
336.963
334.682
329.081
322.247
314.957
311.059
311.163
311.988
316.194
325.165
332.832
338.624
341.293
338.225
331.752
325.205
321.135
319.933
320.422
321.356
322.25
323.168
324.21
325.343
326.489
327.625
328.787
330.025
331.364
332.84
334.489
336.317
338.327
340.488
342.731
344.971
347.129
349.168
351.106
353.01
354.953
356.962
358.97
360.804
362.224
363.054
363.867
370.989
375.867
379.263
382.514
387.471
396.996
413.917
436.767
458.492
464.196
425.915
424.896
399.385
376.877
363.77
357.687
355.121
354.079
353.565
351.835
330.289
323.049
319.163
316.012
313.065
310.403
308.086
306.005
303.996
302.024
300.238
298.885
298.186
298.311
299.398
301.468
304.112
306.784
309.276
312.029
315.776
320.614
325.573
328.695
328.425
324.918
318.947
310.341
304.001
302.787
304.29
310.512
321.173
328.398
332.399
333.414
329.618
323.701
318.45
315.423
314.335
314.095
314.086
314.373
315.152
316.336
317.645
318.881
320.018
321.128
322.305
323.607
325.074
326.744
328.614
330.654
332.8
334.962
337.057
339.036
340.907
342.736
344.625
346.654
348.824
351.019
353.007
354.495
355.268
355.855
362.404
366.746
369.704
372.657
377.481
387.034
404.108
427.185
449.101
455.365
415.644
414.125
388.624
366.139
353.052
346.992
344.453
343.438
342.959
341.337
320.74
313.795
309.965
306.816
303.982
301.689
300.029
298.727
297.301
295.424
293.176
291.003
289.481
289.117
290.293
293.16
297.364
302.107
306.415
309.775
312.493
315.251
318.4
321.06
321.877
320.256
315.658
306.248
297.276
294.327
296.674
305.098
316.98
323.121
325.244
325.279
321.826
317.354
313.667
311.289
309.587
308.002
306.757
306.421
307.145
308.524
310.009
311.298
312.397
313.444
314.575
315.871
317.37
319.081
320.974
322.992
325.055
327.077
329.003
330.83
332.614
334.452
336.445
338.641
340.988
343.308
345.322
346.711
347.266
347.524
353.489
357.377
360.061
362.93
367.837
377.593
394.925
418.25
440.331
447.005
405.164
403.124
377.624
355.148
342.064
336.012
333.492
332.512
332.093
330.618
311.182
304.578
300.794
297.583
294.768
292.789
291.868
291.623
291.198
289.804
287.253
284.104
281.356
280.016
280.881
284.256
289.911
296.958
303.792
308.884
311.789
313.295
314.676
316.016
316.518
315.613
312.15
302.423
291.224
286.493
289.685
300.02
312.351
317.073
317.727
317.749
315.552
312.905
310.49
308.042
305.031
301.746
299.27
298.467
299.26
300.856
302.466
303.752
304.783
305.775
306.899
308.236
309.793
311.543
313.43
315.376
317.305
319.164
320.946
322.696
324.499
326.45
328.613
330.979
333.434
335.757
337.65
338.811
339.075
339.014
344.489
348.099
350.722
353.709
358.849
368.881
386.466
409.975
432.156
439.135
394.862
392.307
366.797
344.317
331.216
325.146
322.618
321.65
321.29
320.048
302.729
296.638
292.875
289.48
286.503
284.644
284.372
285.325
286.3
285.912
283.473
279.446
275.207
272.421
272.404
275.733
282.328
291.291
300.63
308.098
312.528
314.389
315.147
315.222
314.268
312.414
309.055
299.17
286.769
280.631
284.376
295.657
307.321
310.657
310.497
311.326
310.79
309.753
307.975
304.807
300.2
295.372
292.051
291.126
292.145
293.96
295.64
296.887
297.871
298.865
300.048
301.471
303.096
304.857
306.689
308.523
310.312
312.052
313.784
315.583
317.53
319.676
322.021
324.495
326.946
329.152
330.841
331.761
331.797
331.551
336.511
339.904
342.548
345.705
351.072
361.32
379.063
402.651
424.865
432.123
385.123
382.073
356.548
334.056
320.923
314.807
312.222
311.184
310.819
310.544
308.931
307.122
304.491
301.15
297.871
295.84
295.958
298.063
300.693
301.784
299.894
295.112
289.064
284.14
282.447
285.097
292.165
302.666
314.357
324.717
332.185
336.657
339.037
339.207
336.798
332.869
328.414
318.061
305.854
299.127
302.808
313.335
322.552
324.13
322.783
323.855
323.931
323.092
320.526
315.588
308.905
302.528
298.585
297.763
299.171
301.348
303.305
304.824
306.153
307.583
309.255
311.166
313.24
315.398
317.583
319.752
321.903
324.077
326.345
328.772
331.385
334.158
337.017
339.858
342.552
344.932
346.81
348.002
348.412
348.128
347.724
347.241
347.284
348.658
352.747
362.036
379.035
402.011
423.669
430.395
375.953
372.423
346.885
324.382
311.219
305.057
302.415
301.306
300.865
300.579
299.96
298.505
295.95
292.468
288.88
286.561
286.799
289.804
294.135
297.214
296.783
292.27
285.194
278.449
274.942
276.412
283.065
293.667
305.945
317.877
328.282
336.535
342.356
344.459
341.972
336.582
331.059
320.531
310.912
305.329
308.732
316.981
322.596
323.149
320.976
322.325
322.787
321.911
318.658
312.639
305.035
298.275
294.401
293.759
295.177
297.144
298.798
300.06
301.223
302.533
304.058
305.756
307.549
309.382
311.236
313.106
315.033
317.093
319.364
321.875
324.583
327.384
330.16
332.813
335.261
337.405
339.114
340.233
340.657
340.43
339.799
339.212
339.23
340.597
344.663
353.899
370.816
393.696
415.306
422.631
366.71
362.666
337.132
314.638
301.472
295.299
292.638
291.499
291.013
290.678
290.074
288.643
286.105
282.535
278.649
275.869
275.81
279.181
284.841
289.978
291.581
288.228
280.965
272.859
267.514
267.458
273.119
282.839
294.278
306.39
318.981
331.057
340.942
346.093
345.22
340.36
335.322
325.099
319.603
316.272
318.483
322.482
322.708
321.296
316.505
316.476
316.112
314.54
310.62
304.211
296.706
290.43
287.088
286.748
288.174
289.982
291.476
292.663
293.801
295.048
296.408
297.85
299.341
300.868
302.448
304.1
305.896
307.93
310.264
312.873
315.639
318.406
321.052
323.523
325.805
327.858
329.576
330.804
331.411
331.409
330.996
330.609
330.791
332.277
336.42
345.699
362.637
385.532
407.185
415.11
356.222
351.559
326.047
303.596
290.481
284.369
281.775
280.697
280.249
279.922
279.281
277.862
275.361
271.756
267.596
264.209
263.397
266.399
272.638
279.436
283.285
281.874
275.471
266.869
260.091
258.528
263.036
271.505
281.375
292.62
306.239
321.046
334.137
342.103
343.898
342.13
340.713
332.305
332.308
332.035
332.053
330.317
324.042
319.557
310.152
307.464
305.805
303.645
299.611
293.621
286.889
281.348
278.412
278.136
279.454
281.161
282.634
283.842
284.956
286.062
287.166
288.297
289.481
290.726
292.062
293.514
295.176
297.151
299.473
302.056
304.734
307.341
309.792
312.095
314.291
316.365
318.2
319.606
320.42
320.62
320.401
320.177
320.489
322.083
326.321
335.688
352.7
375.649
397.349
405.914
343.282
337.839
312.358
289.968
276.944
270.961
268.53
267.632
267.35
267.149
266.576
265.226
262.82
259.288
254.997
251.043
249.208
251.14
256.982
264.596
270.382
271.316
266.737
258.737
251.301
248.57
252.071
259.549
268.148
278.377
291.982
307.665
321.894
331.103
335.316
338.429
344.196
340.12
347.232
351.575
348.037
338.244
324.907
316.099
300.292
294.451
291.864
289.868
286.538
281.526
275.586
270.287
267.084
266.336
267.262
268.735
270.029
270.966
271.641
272.166
272.63
273.159
273.81
274.572
275.482
276.582
277.994
279.814
282.027
284.499
287.039
289.513
291.891
294.227
296.572
298.89
301.024
302.747
303.865
304.35
304.402
304.433
304.994
306.836
311.32
320.921
338.13
361.224
383.058
392.595
327.318
320.946
295.492
273.15
260.201
254.34
252.088
251.41
251.362
251.368
250.948
249.735
247.514
244.242
240.148
236.007
233.317
233.851
238.43
245.76
252.649
255.746
253.544
247.15
239.995
236.579
239.216
246.184
254.601
264.68
277.812
292.439
305.277
313.474
318.739
326.98
342.579
346.027
370.922
383.592
374.912
352.06
322.707
308.488
285.408
276.975
274.314
273.218
270.933
266.598
260.501
254.199
249.556
247.417
247.26
247.95
248.59
248.85
248.805
248.681
248.679
248.948
249.483
250.201
251.15
252.395
254.056
256.161
258.61
261.222
263.844
266.415
268.975
271.597
274.301
277.006
279.517
281.586
283.021
283.801
284.142
284.465
285.323
287.464
292.239
302.104
319.525
342.764
364.743
375.439
308.711
301.336
275.911
253.588
240.651
234.826
232.651
232.1
232.21
232.373
232.079
230.986
228.984
226.155
222.702
219.075
216.255
215.736
218.702
224.785
231.639
236.109
236.184
231.984
225.986
222.394
224.084
230.714
240.145
251.575
264.625
277.064
286.581
291.764
296.196
308.102
333.945
347.254
386.874
410.541
395.214
353.359
311.449
291.855
262.375
252.684
250.444
250.225
248.625
244.366
237.597
230.159
224.32
221.182
220.343
220.672
221.164
221.339
221.236
221.165
221.389
222.014
222.927
224.011
225.405
227.212
229.476
232.082
234.816
237.504
240.111
242.717
245.432
248.309
251.309
254.293
257.049
259.331
260.961
261.936
262.481
263.018
264.093
266.446
271.416
281.442
298.969
322.248
344.272
356.037
288.867
280.507
255.121
232.798
219.81
213.914
211.674
211.084
211.186
211.355
211.057
209.967
208.101
205.756
203.278
200.92
199.048
198.468
200.222
204.623
210.39
215.066
216.639
214.57
210.311
207.083
207.628
213.478
224.335
238.154
251.774
261.931
267.479
268.654
270.596
283.413
316.835
340.547
454.908
483.225
460.799
401.941
287.076
264.651
233.631
225.698
224.84
225.679
224.763
220.743
213.924
206.311
200.069
196.199
194.496
194.191
194.459
194.711
194.821
195.057
195.677
196.713
198
199.5
201.511
204.115
207.143
210.22
213.022
215.485
217.807
220.266
223.021
226.056
229.239
232.382
235.267
237.665
239.416
240.523
241.21
241.891
243.105
245.582
250.653
260.746
278.287
301.519
323.495
336.144
269.723
260.472
235.142
212.819
199.756
193.731
191.33
190.574
190.527
190.565
190.133
188.907
187.007
184.99
183.503
182.84
182.867
183.481
185.047
188.07
192.234
196.076
198.035
197.401
194.968
192.599
191.994
196.172
207.655
223.546
237.876
246.691
249.701
248.408
248.571
260.606
296.927
324.221
379.414
401.089
380.59
325.917
261.923
241.259
212.516
206.678
205.601
205.774
204.348
200.257
193.978
187.104
180.969
176.188
173.013
171.499
171.29
171.676
172.161
172.782
173.724
175.003
176.54
178.503
181.337
184.94
188.745
192.052
194.509
196.323
198.058
200.208
202.927
206.069
209.381
212.628
215.599
218.086
219.933
221.142
221.928
222.7
223.99
226.526
231.635
241.735
259.239
282.383
304.268
317.613
253.233
243.252
218.002
195.71
182.606
176.478
173.924
172.984
172.751
172.614
172.003
170.563
168.455
166.448
165.568
166.408
168.65
171.37
173.938
176.502
179.355
182.019
183.567
183.451
182.414
181.217
180.156
182.299
193.281
209.963
224.421
233.14
235.839
234.585
234.491
244.215
278.646
305.02
172.189
190.39
175.66
133.785
248.564
228.436
201.817
196.145
192.462
190.426
187.804
183.785
178.75
173.316
167.579
161.757
156.787
153.781
152.988
153.582
154.578
155.623
156.776
158.14
159.906
162.52
166.428
171.128
175.517
178.608
180.2
180.964
181.914
183.72
186.435
189.712
193.162
196.518
199.581
202.156
204.089
205.374
206.222
207.04
208.361
210.914
216.024
226.1
243.55
266.604
288.397
302.26
240.689
230.187
205.053
182.856
169.809
163.696
161.114
160.11
159.796
159.58
158.882
157.291
154.912
152.591
151.67
153.197
157.073
161.956
166.266
169.412
171.832
173.821
175.014
174.999
174.874
175.027
175.227
176.402
186.427
202.212
215.121
223.865
227.132
227.501
228.76
235.583
264.44
286.534
-0.180341
12.8393
5.02167
-21.2065
240.24
221.92
197.522
190.887
183.566
179.04
175.344
171.798
168.475
164.828
159.747
153.148
146.599
142.152
140.686
141.418
142.942
144.413
145.656
146.978
149.021
152.479
157.582
163.228
167.764
170.085
170.366
169.88
170.074
171.675
174.514
177.997
181.617
185.094
188.255
190.916
192.919
194.253
195.131
195.964
197.29
199.838
204.933
214.98
232.385
255.376
277.099
291.316
232.597
221.767
196.776
174.734
161.848
155.89
153.443
152.547
152.326
152.21
151.623
150.092
147.593
144.866
143.359
144.538
148.834
155.053
161.079
165.484
168.416
170.682
172.449
173.227
174.269
175.906
179.491
181.648
190.633
203.34
211.881
219.476
222.958
226.033
230.978
236.476
258.183
271.116
-101.654
-97.5636
-99.4458
-107.823
237.027
222.513
200.568
192.211
180.313
172.486
167.183
164.013
162.6
161.162
157.424
150.879
143.369
137.597
135.136
135.591
137.337
139.082
140.207
141.314
143.651
148.055
154.272
160.509
164.698
165.844
164.675
163.088
162.827
164.497
167.613
171.347
175.128
178.708
181.948
184.673
186.721
188.08
188.968
189.801
191.122
193.661
198.742
208.772
226.155
249.116
270.803
285.22
228.908
217.849
192.947
171.024
158.296
152.516
150.244
149.505
149.424
149.458
149.062
147.746
145.347
142.373
140.113
140.22
143.717
150.056
157.207
163.114
167.305
170.809
174.528
177.964
181.757
185.125
193.371
197.911
205.268
212.387
213.626
218.591
223.306
230.315
240.781
247.16
268.295
275.413
-149.906
-154.007
-153.023
-149.178
255.413
240.273
215.38
203.82
185.077
171.763
163.696
160.75
161.595
162.995
161.472
155.893
147.997
140.85
136.778
136.103
136.08
137.723
138.508
139.332
142.085
147.542
154.737
161.22
164.749
164.668
162.327
160.126
159.886
161.918
165.401
169.354
173.233
176.867
180.153
182.918
184.993
186.367
187.262
188.1
189.424
191.965
197.051
207.087
224.479
247.449
269.133
283.613
229.462
218.204
193.21
171.212
158.445
152.656
150.388
149.644
149.538
149.547
149.173
147.961
145.68
142.601
139.69
138.469
140.346
145.617
152.945
160.152
166.041
171.497
178.394
186.816
196.122
201.954
215.252
222.573
227.146
226.662
218.544
218.95
222.037
233.788
250.861
258.987
292.636
314.26
-92.7244
-93.9807
-94.7666
-96.9704
299.724
271.386
233.719
218.209
190.524
170.844
160.603
158.675
161.995
166.091
166.809
162.558
154.729
146.362
140.351
138.011
137.078
138.424
138.909
139.726
143.25
149.888
157.848
164.231
166.93
165.804
162.787
160.558
160.759
163.303
167.091
171.132
175.003
178.624
181.919
184.698
186.783
188.162
189.061
189.903
191.234
193.784
198.882
208.936
226.356
249.359
271.061
285.494
233.714
222.423
197.153
174.849
161.747
155.637
153.074
152.059
151.695
151.456
150.871
149.533
147.22
144.06
140.685
138.266
138.213
141.453
147.647
155.154
162.4
169.862
180.333
195.247
212.86
222.541
240.96
251.571
252.127
242.725
225.388
219.352
217.744
233.22
258.056
272.772
333.997
361.144
-64.2422
-71.2791
-70.3821
-64.5189
355.758
319.618
246.592
223.375
187.843
165.307
156.125
156.443
161.676
167.391
169.896
167.497
160.902
152.492
145.2
141.264
139.328
140.422
141.034
142.456
147.126
154.818
163.049
168.828
170.518
168.585
165.398
163.625
164.501
167.512
171.43
175.399
179.173
182.753
186.05
188.843
190.936
192.32
193.224
194.075
195.415
197.979
203.094
213.173
230.63
253.682
275.414
289.708
239.917
228.972
203.456
180.834
167.29
160.702
157.671
156.237
155.515
154.975
154.14
152.625
150.241
147.084
143.574
140.481
138.864
139.767
143.618
149.75
156.947
165.484
178.739
199.879
227.209
242.579
274.845
290.527
285.269
263.85
230.606
217.743
209.395
226.405
257.221
284.883
416.014
433.645
37.9101
26.3523
29.3312
45.2399
453.362
424.765
252.394
217.486
178.925
157.407
151.04
153.282
159.062
165.247
169.431
169.902
166.26
159.603
152.315
147.224
144.077
144.745
145.749
148.155
153.9
161.996
169.676
174.274
174.835
172.404
169.526
168.547
170.132
173.424
177.254
181.026
184.677
188.236
191.559
194.379
196.486
197.875
198.784
199.64
200.989
203.563
208.692
218.795
236.288
259.39
281.144
295.21
245.333
235.015
209.494
186.805
173.045
166.162
162.804
161.07
160.112
159.408
158.472
156.918
154.596
151.647
148.443
145.494
143.397
142.817
144.314
148
153.555
161.607
175.904
201.225
237.447
260.147
303.471
326.065
313.434
275.37
231.017
213.373
199.3
215.854
244.524
260.242
205.78
193.116
166.464
151.42
149.107
152.851
158.341
164.232
169.58
172.744
172.302
168.051
161.49
155.499
150.698
150.397
151.738
155.217
161.677
169.435
175.974
179.238
178.972
176.615
174.579
174.621
176.811
180.137
183.699
187.224
190.787
194.374
197.755
200.613
202.734
204.123
205.027
205.877
207.221
209.789
214.913
225.015
242.519
265.64
287.381
301.131
248.067
238.256
212.954
190.474
176.85
170.029
166.678
164.921
163.941
163.229
162.307
160.801
158.61
155.955
153.272
150.992
149.392
148.608
148.778
150.107
152.938
158.576
171.208
196.996
238.586
270.168
388.626
416.449
398.286
345.904
230.238
212.588
198.38
216.173
245.71
260.744
201.331
190.133
165.284
153.545
153.319
156.67
160.921
165.866
171.275
175.545
176.865
174.397
168.894
162.637
156.352
154.902
156.669
161.365
168.283
175.351
180.746
183.109
182.699
181.108
180.339
181.422
183.96
187.05
190.214
193.492
197.01
200.654
204.097
206.984
209.102
210.47
211.345
212.161
213.464
215.985
221.058
231.108
248.568
271.65
293.315
306.7
248.235
238.544
213.521
191.364
178.107
171.632
168.578
167.052
166.234
165.624
164.756
163.288
161.167
158.677
156.305
154.492
153.419
152.963
152.857
152.982
153.72
156.674
166.189
189.184
230.519
265.711
335.3
357.777
340.328
290.541
221.368
206.473
195.699
215.126
245.742
263.256
200.502
185.148
160.743
151.587
153.685
158.93
163.965
168.77
173.662
177.552
179.098
177.605
173.482
168.081
161.354
159.107
161.45
167.294
174.266
180.502
184.981
186.965
186.97
186.532
187.07
188.912
191.422
194.022
196.7
199.722
203.177
206.83
210.274
213.134
215.202
216.503
217.298
218.022
219.223
221.633
226.589
236.523
253.877
276.858
298.393
311.416
247.253
237.259
212.387
190.459
177.568
171.511
168.879
167.735
167.228
166.841
166.111
164.717
162.65
160.241
158.014
156.443
155.757
155.865
156.433
157.075
157.666
159.021
164.337
180.135
213.423
245.811
131.996
151.514
139.678
101.214
209.603
196.198
190.76
212.074
244.688
265.321
200.014
181.566
157.561
151.686
157.442
165.303
171.754
176.642
180.388
182.791
183.311
181.709
178.567
174.581
168.611
166.006
168.719
175.024
181.129
186.32
189.915
191.704
192.239
192.879
194.408
196.58
198.749
200.754
202.957
205.717
209.039
212.596
215.945
218.707
220.671
221.855
222.515
223.093
224.14
226.395
231.2
240.994
258.223
281.088
302.483
315.181
246.869
236.339
211.368
189.394
176.602
170.744
168.382
167.537
167.312
167.144
166.544
165.214
163.221
161.006
159.182
158.249
158.407
159.527
161.258
163.121
164.603
165.456
166.777
172.872
191.28
213.1
-61.3326
-45.5204
-48.546
-69.9853
193.795
183.982
183.843
205.503
239.999
265.821
199.673
178.179
155.436
153.367
163.233
174.447
182.601
187.334
189.771
190.66
190.068
187.929
185.152
182.412
178.272
175.7
178.195
183.611
187.266
190.929
193.197
194.488
195.255
196.591
198.669
200.853
202.632
204.201
206.111
208.699
211.89
215.333
218.597
221.307
223.235
224.38
224.992
225.52
226.527
228.761
233.562
243.37
260.623
283.515
304.917
317.51
247.999
237.171
212
189.813
176.852
170.88
168.47
167.632
167.432
167.255
166.594
165.216
163.339
161.573
160.604
160.828
162.176
164.219
166.448
168.479
170.052
170.911
170.905
170.877
173.64
175.964
-203.179
-196.604
-191.47
-190.103
176.347
174.774
177.041
193.314
226.857
261.627
197.991
174.877
157.078
160.365
173.895