/*--------------------------------*- C++ -*----------------------------------*\
| =========                 |                                                 |
| \\      /  F ield         | OpenFOAM: The Open Source CFD Toolbox           |
|  \\    /   O peration     | Version:  v2012                                 |
|   \\  /    A nd           | Website:  www.openfoam.com                      |
|    \\/     M anipulation  |                                                 |
\*---------------------------------------------------------------------------*/
FoamFile
{
    version     2.0;
    format      ascii;
    class       volScalarField;
    location    "50/air";
    object      ILambda_54_0;
}
// * * * * * * * * * * * * * * * * * * * * * * * * * * * * * * * * * * * * * //

dimensions      [1 0 -3 0 0 0 0];


internalField   nonuniform List<scalar> 
287104
(
162.233
162.239
162.244
162.249
162.253
162.257
162.261
162.263
162.266
162.268
162.272
162.275
162.278
162.281
162.283
162.285
162.286
162.286
162.286
162.286
162.286
162.285
162.28
162.281
162.304
162.343
162.36
162.349
162.326
162.287
162.273
162.278
162.268
162.273
162.339
162.417
162.214
161.563
161.063
161.161
161.352
161.975
162.435
162.251
162.251
162.261
162.262
162.264
162.266
162.267
162.269
162.27
162.27
162.271
162.271
162.272
162.277
162.284
162.287
162.285
162.28
162.273
162.27
162.272
162.272
162.273
162.273
162.274
162.275
162.276
162.277
162.277
162.278
162.279
162.28
162.28
162.281
162.282
162.282
162.282
162.289
162.307
162.302
162.177
161.946
162.064
163.23
165.258
166.631
167.215
163.535
163.54
163.545
163.55
163.554
163.558
163.561
163.563
163.566
163.568
163.571
163.574
163.577
163.58
163.582
163.583
163.584
163.584
163.584
163.583
163.583
163.58
163.572
163.574
163.622
163.714
163.764
163.742
163.695
163.602
163.555
163.572
163.562
163.566
163.601
163.634
163.501
163.073
162.691
162.735
162.833
163.251
163.63
163.529
163.542
163.546
163.548
163.55
163.552
163.554
163.556
163.557
163.558
163.559
163.559
163.56
163.563
163.569
163.572
163.57
163.567
163.562
163.559
163.56
163.561
163.561
163.562
163.563
163.564
163.565
163.566
163.567
163.567
163.568
163.569
163.57
163.571
163.571
163.572
163.572
163.578
163.591
163.585
163.492
163.332
163.448
164.335
165.796
166.69
167.125
163.955
163.96
163.965
163.97
163.974
163.978
163.981
163.983
163.985
163.987
163.99
163.993
163.996
163.999
164.001
164.002
164.002
164.002
164.002
164.001
164.001
163.997
163.989
163.989
164.043
164.152
164.216
164.192
164.14
164.028
163.966
163.986
163.979
163.983
163.986
163.96
163.89
163.759
163.594
163.578
163.589
163.732
163.922
163.927
163.958
163.954
163.957
163.96
163.962
163.964
163.966
163.968
163.969
163.969
163.97
163.971
163.971
163.973
163.974
163.974
163.974
163.972
163.97
163.971
163.971
163.972
163.973
163.973
163.974
163.975
163.976
163.977
163.978
163.979
163.98
163.981
163.982
163.982
163.983
163.983
163.988
164
163.994
163.911
163.773
163.891
164.688
165.965
166.706
167.065
164.53
164.534
164.539
164.544
164.548
164.552
164.554
164.556
164.558
164.56
164.563
164.566
164.569
164.571
164.573
164.574
164.574
164.574
164.573
164.572
164.571
164.568
164.56
164.559
164.612
164.726
164.799
164.776
164.725
164.605
164.531
164.553
164.549
164.554
164.53
164.443
164.429
164.613
164.693
164.613
164.541
164.399
164.371
164.478
164.525
164.515
164.519
164.522
164.524
164.527
164.529
164.53
164.531
164.533
164.534
164.534
164.53
164.526
164.526
164.527
164.53
164.534
164.534
164.533
164.534
164.535
164.535
164.536
164.537
164.538
164.539
164.54
164.541
164.542
164.543
164.544
164.544
164.545
164.546
164.547
164.551
164.561
164.554
164.484
164.377
164.495
165.172
166.199
166.732
166.993
164.967
164.971
164.975
164.98
164.984
164.987
164.99
164.992
164.994
164.996
164.998
165.001
165.004
165.006
165.007
165.008
165.008
165.008
165.007
165.006
165.004
165.002
164.995
164.994
165.035
165.13
165.198
165.18
165.14
165.035
164.963
164.98
164.979
164.987
164.951
164.827
164.857
165.305
165.609
165.469
165.342
164.97
164.734
164.903
164.951
164.939
164.944
164.947
164.95
164.952
164.954
164.956
164.957
164.958
164.96
164.959
164.952
164.942
164.938
164.941
164.948
164.958
164.961
164.959
164.96
164.96
164.961
164.962
164.962
164.963
164.964
164.965
164.966
164.967
164.968
164.969
164.97
164.971
164.971
164.972
164.977
164.984
164.977
164.917
164.833
164.952
165.538
166.374
166.75
166.926
165.352
165.356
165.36
165.364
165.368
165.371
165.374
165.376
165.377
165.379
165.382
165.384
165.387
165.389
165.39
165.391
165.391
165.391
165.389
165.388
165.386
165.384
165.38
165.379
165.4
165.455
165.501
165.495
165.472
165.404
165.348
165.356
165.355
165.366
165.345
165.243
165.312
165.878
166.297
166.115
165.976
165.518
165.171
165.309
165.316
165.314
165.318
165.321
165.324
165.327
165.329
165.331
165.332
165.334
165.336
165.335
165.324
165.307
165.299
165.304
165.314
165.331
165.337
165.333
165.334
165.335
165.335
165.336
165.337
165.338
165.339
165.34
165.341
165.341
165.342
165.343
165.344
165.345
165.346
165.347
165.351
165.358
165.35
165.298
165.233
165.353
165.858
166.526
166.765
166.864
165.668
165.672
165.676
165.68
165.684
165.687
165.69
165.691
165.693
165.695
165.697
165.7
165.702
165.704
165.705
165.706
165.706
165.705
165.704
165.702
165.7
165.699
165.699
165.699
165.695
165.694
165.706
165.711
165.711
165.697
165.669
165.663
165.66
165.671
165.699
165.716
165.841
166.319
166.677
166.478
166.371
166.03
165.737
165.705
165.598
165.623
165.625
165.628
165.631
165.634
165.636
165.638
165.64
165.641
165.644
165.642
165.629
165.607
165.597
165.603
165.615
165.636
165.645
165.64
165.641
165.642
165.642
165.643
165.644
165.645
165.646
165.646
165.647
165.648
165.649
165.65
165.651
165.652
165.653
165.654
165.658
165.664
165.656
165.611
165.562
165.681
166.117
166.648
166.776
166.809
165.928
165.932
165.935
165.939
165.943
165.946
165.948
165.95
165.951
165.953
165.955
165.958
165.961
165.963
165.964
165.965
165.965
165.965
165.964
165.962
165.959
165.959
165.963
165.965
165.936
165.874
165.844
165.862
165.882
165.927
165.937
165.916
165.906
165.912
166.024
166.282
166.523
166.681
166.751
166.562
166.528
166.529
166.512
166.133
165.802
165.879
165.876
165.88
165.883
165.886
165.888
165.89
165.891
165.893
165.895
165.894
165.881
165.857
165.845
165.851
165.863
165.886
165.897
165.892
165.893
165.893
165.893
165.894
165.895
165.895
165.896
165.897
165.898
165.899
165.9
165.901
165.902
165.903
165.904
165.906
165.909
165.914
165.907
165.867
165.83
165.946
166.325
166.743
166.782
166.757
166.136
166.139
166.143
166.146
166.15
166.153
166.155
166.157
166.158
166.16
166.162
166.165
166.168
166.171
166.173
166.174
166.174
166.174
166.173
166.172
166.169
166.169
166.177
166.181
166.134
166.02
165.949
165.973
166.009
166.105
166.154
166.119
166.099
166.092
166.316
166.953
167.42
167.039
166.583
166.429
166.492
167.046
167.548
166.629
165.93
166.086
166.076
166.08
166.084
166.087
166.089
166.091
166.093
166.094
166.096
166.095
166.084
166.063
166.051
166.056
166.066
166.086
166.097
166.092
166.093
166.093
166.093
166.094
166.095
166.095
166.096
166.097
166.098
166.099
166.1
166.101
166.102
166.103
166.105
166.106
166.109
166.113
166.106
166.071
166.043
166.155
166.485
166.812
166.785
166.708
166.299
166.302
166.305
166.309
166.312
166.315
166.317
166.319
166.32
166.321
166.324
166.328
166.332
166.335
166.338
166.339
166.341
166.341
166.341
166.339
166.337
166.337
166.346
166.353
166.297
166.15
166.047
166.071
166.111
166.243
166.324
166.28
166.247
166.216
166.568
167.72
168.569
167.478
166.275
166.174
166.34
167.609
168.877
167.226
165.986
166.25
166.231
166.237
166.24
166.243
166.246
166.248
166.25
166.251
166.252
166.251
166.245
166.231
166.222
166.224
166.23
166.243
166.252
166.249
166.249
166.249
166.249
166.25
166.25
166.251
166.252
166.253
166.254
166.255
166.256
166.257
166.258
166.26
166.261
166.262
166.265
166.268
166.261
166.229
166.208
166.315
166.603
166.858
166.784
166.658
166.423
166.426
166.429
166.432
166.436
166.438
166.441
166.442
166.443
166.444
166.448
166.453
166.457
166.461
166.464
166.467
166.468
166.469
166.469
166.468
166.466
166.466
166.474
166.481
166.426
166.271
166.151
166.164
166.2
166.346
166.449
166.402
166.356
166.291
166.765
168.547
169.972
168.067
165.934
165.897
166.154
168.238
170.493
167.946
165.975
166.376
166.346
166.353
166.357
166.361
166.364
166.366
166.368
166.369
166.369
166.369
166.369
166.366
166.362
166.361
166.361
166.364
166.367
166.367
166.366
166.366
166.366
166.367
166.367
166.368
166.369
166.37
166.371
166.372
166.373
166.375
166.376
166.377
166.378
166.38
166.382
166.385
166.378
166.349
166.333
166.432
166.684
166.884
166.779
166.611
166.516
166.518
166.521
166.524
166.527
166.53
166.532
166.533
166.534
166.536
166.539
166.543
166.547
166.551
166.554
166.556
166.557
166.558
166.558
166.556
166.554
166.553
166.559
166.566
166.519
166.379
166.254
166.248
166.272
166.415
166.531
166.486
166.43
166.322
166.897
169.387
171.593
168.836
165.637
165.668
165.993
168.926
172.36
168.795
165.906
166.466
166.424
166.433
166.438
166.442
166.445
166.447
166.449
166.45
166.449
166.45
166.456
166.466
166.469
166.466
166.459
166.449
166.447
166.449
166.448
166.448
166.448
166.448
166.449
166.449
166.45
166.451
166.452
166.454
166.455
166.456
166.457
166.459
166.46
166.461
166.464
166.466
166.461
166.436
166.422
166.514
166.735
166.893
166.772
166.565
166.583
166.585
166.588
166.591
166.593
166.596
166.598
166.599
166.6
166.601
166.604
166.608
166.612
166.615
166.618
166.619
166.621
166.621
166.621
166.62
166.618
166.616
166.619
166.623
166.588
166.473
166.352
166.318
166.324
166.459
166.585
166.546
166.485
166.328
166.963
170.19
173.376
169.785
165.427
165.524
165.885
169.648
174.418
169.77
165.796
166.53
166.477
166.487
166.492
166.497
166.501
166.504
166.506
166.507
166.505
166.506
166.517
166.539
166.549
166.544
166.533
166.511
166.501
166.506
166.504
166.504
166.505
166.505
166.506
166.506
166.507
166.508
166.509
166.511
166.512
166.513
166.515
166.516
166.517
166.519
166.521
166.524
166.519
166.497
166.486
166.568
166.762
166.889
166.762
166.524
166.629
166.631
166.634
166.636
166.639
166.641
166.643
166.644
166.645
166.646
166.649
166.652
166.656
166.659
166.661
166.663
166.664
166.664
166.664
166.662
166.66
166.658
166.659
166.66
166.634
166.543
166.422
166.354
166.341
166.474
166.619
166.585
166.527
166.319
166.961
170.9
175.23
170.871
165.299
165.456
165.819
170.346
176.578
170.842
165.66
166.572
166.508
166.52
166.527
166.532
166.536
166.54
166.542
166.543
166.542
166.542
166.557
166.586
166.603
166.597
166.584
166.552
166.536
166.543
166.541
166.541
166.541
166.542
166.542
166.543
166.544
166.545
166.547
166.548
166.549
166.551
166.552
166.554
166.555
166.557
166.559
166.562
166.558
166.539
166.529
166.602
166.772
166.876
166.752
166.486
166.66
166.662
166.664
166.667
166.669
166.671
166.673
166.674
166.675
166.675
166.678
166.681
166.685
166.687
166.689
166.691
166.691
166.691
166.691
166.69
166.687
166.685
166.684
166.683
166.661
166.578
166.444
166.338
166.308
166.457
166.641
166.609
166.56
166.304
166.897
171.469
177.054
172.025
165.228
165.435
165.765
170.952
178.727
171.971
165.514
166.597
166.525
166.538
166.545
166.552
166.556
166.56
166.564
166.565
166.564
166.564
166.579
166.612
166.633
166.628
166.614
166.578
166.558
166.565
166.564
166.564
166.564
166.564
166.565
166.566
166.567
166.568
166.569
166.57
166.572
166.573
166.575
166.577
166.578
166.58
166.582
166.585
166.582
166.566
166.557
166.62
166.768
166.855
166.74
166.452
166.68
166.681
166.684
166.686
166.688
166.69
166.692
166.692
166.693
166.694
166.696
166.699
166.702
166.704
166.706
166.707
166.707
166.707
166.707
166.705
166.703
166.7
166.699
166.697
166.673
166.577
166.41
166.266
166.219
166.409
166.657
166.62
166.589
166.292
166.778
171.856
178.739
173.174
165.185
165.433
165.697
171.402
180.748
173.102
165.373
166.609
166.531
166.545
166.554
166.561
166.566
166.571
166.574
166.576
166.576
166.577
166.59
166.62
166.642
166.639
166.627
166.592
166.57
166.577
166.575
166.575
166.576
166.576
166.577
166.578
166.579
166.58
166.582
166.583
166.585
166.586
166.588
166.59
166.591
166.593
166.595
166.598
166.596
166.582
166.574
166.628
166.756
166.83
166.728
166.424
166.691
166.693
166.695
166.697
166.699
166.7
166.702
166.703
166.703
166.704
166.705
166.708
166.711
166.713
166.714
166.715
166.715
166.714
166.714
166.712
166.709
166.707
166.706
166.705
166.674
166.546
166.329
166.149
166.086
166.333
166.67
166.622
166.613
166.287
166.619
172.041
180.191
174.25
165.155
165.432
165.601
171.65
182.527
174.179
165.249
166.611
166.53
166.546
166.555
166.563
166.569
166.574
166.579
166.581
166.582
166.583
166.593
166.617
166.637
166.637
166.627
166.597
166.576
166.582
166.581
166.581
166.581
166.582
166.582
166.583
166.585
166.586
166.587
166.589
166.591
166.592
166.594
166.596
166.598
166.599
166.602
166.605
166.603
166.592
166.584
166.629
166.739
166.803
166.715
166.403
166.697
166.698
166.7
166.702
166.704
166.705
166.707
166.707
166.708
166.708
166.709
166.711
166.714
166.716
166.717
166.717
166.716
166.716
166.714
166.713
166.71
166.707
166.707
166.709
166.67
166.5
166.221
166.009
165.928
166.24
166.68
166.617
166.634
166.293
166.437
172.02
181.338
175.2
165.133
165.425
165.478
171.673
183.979
175.153
165.154
166.606
166.525
166.542
166.552
166.561
166.568
166.574
166.579
166.582
166.584
166.586
166.592
166.608
166.623
166.625
166.618
166.597
166.579
166.582
166.582
166.582
166.582
166.583
166.584
166.585
166.586
166.588
166.589
166.591
166.593
166.594
166.596
166.598
166.6
166.602
166.604
166.607
166.607
166.597
166.59
166.627
166.72
166.777
166.703
166.39
166.699
166.701
166.703
166.704
166.706
166.707
166.708
166.709
166.709
166.709
166.71
166.711
166.713
166.714
166.715
166.714
166.713
166.712
166.711
166.708
166.705
166.702
166.703
166.709
166.664
166.452
166.115
165.874
165.772
166.141
166.685
166.607
166.65
166.311
166.25
171.812
182.146
175.994
165.119
165.414
165.339
171.474
185.059
175.995
165.09
166.595
166.517
166.535
166.547
166.557
166.565
166.571
166.576
166.58
166.584
166.586
166.589
166.595
166.604
166.607
166.604
166.592
166.579
166.58
166.58
166.58
166.581
166.581
166.582
166.584
166.585
166.587
166.588
166.59
166.592
166.594
166.596
166.598
166.6
166.601
166.604
166.607
166.607
166.6
166.593
166.623
166.701
166.751
166.691
166.383
166.699
166.701
166.703
166.704
166.705
166.707
166.708
166.708
166.708
166.708
166.708
166.709
166.709
166.71
166.71
166.709
166.707
166.705
166.703
166.701
166.697
166.693
166.696
166.704
166.656
166.416
166.031
165.766
165.642
166.049
166.684
166.593
166.66
166.339
166.076
171.458
182.636
176.628
165.111
165.396
165.195
171.082
185.78
176.7
165.059
166.58
166.507
166.526
166.539
166.55
166.559
166.566
166.572
166.577
166.581
166.584
166.585
166.582
166.583
166.584
166.583
166.582
166.577
166.576
166.576
166.576
166.577
166.578
166.579
166.58
166.581
166.583
166.585
166.587
166.588
166.59
166.592
166.594
166.596
166.598
166.601
166.604
166.605
166.599
166.594
166.618
166.683
166.727
166.679
166.376
166.699
166.7
166.702
166.703
166.704
166.705
166.706
166.706
166.706
166.706
166.705
166.705
166.705
166.704
166.703
166.701
166.699
166.697
166.694
166.691
166.688
166.684
166.686
166.697
166.65
166.396
165.981
165.697
165.548
165.971
166.678
166.578
166.663
166.373
165.929
171.013
182.873
177.132
165.107
165.372
165.057
170.545
186.211
177.295
165.056
166.56
166.495
166.515
166.529
166.541
166.551
166.559
166.566
166.571
166.576
166.581
166.578
166.567
166.556
166.553
166.554
166.567
166.574
166.569
166.57
166.57
166.571
166.572
166.573
166.575
166.576
166.578
166.58
166.581
166.583
166.585
166.587
166.589
166.591
166.593
166.596
166.599
166.601
166.597
166.593
166.611
166.665
166.704
166.668
166.366
166.697
166.699
166.7
166.701
166.702
166.703
166.704
166.704
166.703
166.703
166.702
166.702
166.701
166.701
166.7
166.698
166.695
166.693
166.69
166.687
166.683
166.679
166.681
166.692
166.649
166.394
165.965
165.667
165.494
165.912
166.671
166.565
166.664
166.414
165.822
170.542
182.967
177.564
165.122
165.36
164.955
169.947
186.467
177.834
165.076
166.54
166.484
166.505
166.52
166.532
166.543
166.552
166.559
166.566
166.572
166.577
166.572
166.549
166.522
166.511
166.514
166.547
166.573
166.564
166.566
166.567
166.568
166.569
166.57
166.572
166.574
166.576
166.577
166.579
166.581
166.583
166.585
166.587
166.589
166.592
166.594
166.597
166.599
166.597
166.593
166.607
166.65
166.686
166.659
166.361
166.696
166.697
166.699
166.699
166.7
166.701
166.701
166.701
166.701
166.7
166.699
166.698
166.698
166.697
166.695
166.693
166.69
166.687
166.685
166.681
166.678
166.673
166.674
166.685
166.647
166.4
165.967
165.659
165.464
165.864
166.661
166.551
166.658
166.455
165.753
170.093
183.029
177.99
165.189
165.402
164.938
169.402
186.667
178.377
165.111
166.522
166.475
166.496
166.512
166.525
166.537
166.546
166.554
166.561
166.569
166.575
166.566
166.526
166.476
166.454
166.458
166.519
166.573
166.56
166.562
166.563
166.564
166.566
166.567
166.569
166.571
166.573
166.575
166.577
166.579
166.581
166.583
166.585
166.587
166.589
166.591
166.594
166.596
166.595
166.592
166.603
166.637
166.668
166.651
166.349
166.695
166.696
166.697
166.698
166.698
166.699
166.699
166.699
166.698
166.697
166.696
166.695
166.694
166.693
166.691
166.688
166.686
166.682
166.679
166.676
166.672
166.668
166.668
166.678
166.645
166.408
165.976
165.661
165.445
165.821
166.65
166.538
166.646
166.493
165.718
169.695
183.148
178.473
165.393
165.59
165.108
169.074
186.908
178.979
165.155
166.506
166.468
166.49
166.506
166.52
166.533
166.543
166.551
166.559
166.567
166.575
166.561
166.498
166.417
166.379
166.384
166.482
166.578
166.556
166.56
166.561
166.563
166.564
166.566
166.568
166.57
166.572
166.574
166.576
166.578
166.58
166.582
166.584
166.586
166.588
166.59
166.592
166.594
166.594
166.592
166.599
166.626
166.654
166.645
166.339
166.694
166.695
166.696
166.697
166.697
166.697
166.697
166.696
166.696
166.695
166.693
166.692
166.69
166.689
166.687
166.684
166.681
166.678
166.674
166.671
166.667
166.662
166.661
166.671
166.643
166.416
165.984
165.664
165.43
165.779
166.639
166.525
166.631
166.525
165.71
169.352
183.364
179.053
165.857
166.064
165.608
169.168
187.233
179.669
165.202
166.494
166.464
166.486
166.504
166.519
166.531
166.542
166.551
166.56
166.569
166.579
166.559
166.467
166.346
166.289
166.294
166.437
166.586
166.555
166.56
166.561
166.563
166.565
166.567
166.569
166.571
166.573
166.574
166.576
166.578
166.58
166.582
166.584
166.586
166.587
166.589
166.591
166.593
166.593
166.592
166.598
166.619
166.643
166.64
166.332
166.693
166.694
166.695
166.696
166.696
166.695
166.695
166.694
166.693
166.692
166.69
166.689
166.687
166.685
166.683
166.68
166.676
166.673
166.669
166.666
166.661
166.657
166.655
166.664
166.64
166.422
165.988
165.665
165.413
165.735
166.629
166.513
166.613
166.551
165.72
169.045
183.667
179.725
166.715
166.977
166.592
169.882
187.632
180.444
165.252
166.486
166.463
166.486
166.504
166.52
166.533
166.545
166.554
166.563
166.574
166.585
166.559
166.436
166.269
166.191
166.192
166.385
166.598
166.554
166.56
166.562
166.564
166.565
166.567
166.569
166.571
166.573
166.575
166.577
166.578
166.58
166.582
166.583
166.585
166.587
166.588
166.59
166.592
166.593
166.592
166.596
166.613
166.634
166.635
166.326
166.693
166.694
166.695
166.695
166.695
166.694
166.693
166.693
166.691
166.69
166.688
166.686
166.684
166.681
166.679
166.676
166.672
166.669
166.665
166.661
166.657
166.652
166.65
166.658
166.639
166.428
165.991
165.664
165.396
165.689
166.62
166.503
166.594
166.572
165.742
168.744
184.013
180.446
168.026
168.401
168.13
171.302
188.053
181.279
165.308
166.481
166.464
166.487
166.506
166.522
166.536
166.548
166.558
166.566
166.578
166.592
166.56
166.404
166.19
166.089
166.084
166.326
166.607
166.552
166.559
166.56
166.562
166.564
166.566
166.568
166.569
166.571
166.573
166.575
166.576
166.578
166.58
166.581
166.583
166.585
166.586
166.588
166.59
166.591
166.591
166.594
166.607
166.626
166.632
166.316
166.693
166.694
166.694
166.694
166.694
166.693
166.692
166.691
166.69
166.688
166.686
166.683
166.681
166.679
166.676
166.672
166.669
166.665
166.661
166.657
166.653
166.648
166.645
166.653
166.637
166.435
165.992
165.664
165.38
165.643
166.611
166.494
166.576
166.591
165.773
168.423
184.351
181.143
169.651
170.19
170.061
173.242
188.441
182.137
165.372
166.477
166.466
166.488
166.507
166.523
166.537
166.549
166.559
166.567
166.58
166.595
166.559
166.376
166.116
165.992
165.977
166.262
166.613
166.547
166.555
166.557
166.558
166.56
166.562
166.564
166.566
166.568
166.57
166.572
166.573
166.575
166.577
166.579
166.58
166.582
166.584
166.585
166.587
166.588
166.589
166.592
166.602
166.62
166.63
166.305
166.693
166.694
166.694
166.694
166.694
166.693
166.692
166.69
166.688
166.686
166.684
166.682
166.679
166.676
166.673
166.67
166.666
166.662
166.658
166.654
166.649
166.644
166.641
166.649
166.637
166.442
165.994
165.665
165.368
165.596
166.604
166.488
166.56
166.609
165.816
168.067
184.65
181.735
171.144
171.853
171.856
175.114
188.76
182.99
165.444
166.473
166.465
166.487
166.506
166.522
166.536
166.548
166.557
166.566
166.579
166.596
166.558
166.353
166.054
165.91
165.882
166.2
166.617
166.542
166.55
166.552
166.554
166.556
166.558
166.56
166.562
166.564
166.566
166.568
166.57
166.572
166.573
166.575
166.577
166.579
166.581
166.582
166.584
166.586
166.587
166.59
166.598
166.614
166.628
166.292
166.693
166.694
166.695
166.694
166.694
166.693
166.691
166.69
166.688
166.686
166.683
166.681
166.678
166.675
166.671
166.668
166.664
166.66
166.656
166.651
166.647
166.642
166.639
166.645
166.637
166.449
165.992
165.665
165.357
165.548
166.598
166.484
166.545
166.626
165.875
167.672
184.904
182.178
171.785
172.588
172.661
175.998
189.005
183.829
165.532
166.469
166.465
166.486
166.504
166.52
166.533
166.545
166.555
166.563
166.576
166.594
166.556
166.338
166.008
165.845
165.803
166.143
166.618
166.536
166.545
166.547
166.549
166.552
166.554
166.556
166.558
166.56
166.562
166.564
166.566
166.568
166.57
166.572
166.574
166.576
166.578
166.579
166.581
166.583
166.585
166.588
166.595
166.61
166.628
166.281
166.693
166.694
166.695
166.695
166.694
166.693
166.691
166.69
166.688
166.685
166.683
166.68
166.677
166.674
166.67
166.667
166.663
166.659
166.654
166.65
166.645
166.641
166.637
166.642
166.638
166.457
165.985
165.661
165.344
165.496
166.593
166.482
166.533
166.643
165.955
167.238
185.126
182.514
170.975
171.715
171.749
175.123
189.197
184.669
165.636
166.468
166.467
166.485
166.503
166.518
166.531
166.543
166.552
166.56
166.573
166.591
166.556
166.33
165.978
165.8
165.742
166.092
166.616
166.531
166.54
166.542
166.545
166.548
166.55
166.553
166.555
166.557
166.559
166.561
166.563
166.565
166.567
166.569
166.571
166.573
166.575
166.577
166.579
166.581
166.582
166.585
166.592
166.607
166.627
166.271
166.693
166.695
166.695
166.695
166.694
166.693
166.692
166.69
166.688
166.686
166.683
166.68
166.677
166.674
166.67
166.666
166.662
166.658
166.654
166.649
166.645
166.64
166.636
166.641
166.639
166.464
165.97
165.648
165.323
165.436
166.591
166.484
166.524
166.659
166.06
166.771
185.354
182.901
168.923
169.44
169.354
172.631
189.39
185.561
165.758
166.469
166.471
166.486
166.502
166.517
166.529
166.54
166.549
166.557
166.569
166.588
166.555
166.328
165.96
165.771
165.697
166.048
166.614
166.526
166.535
166.538
166.541
166.544
166.546
166.549
166.551
166.553
166.556
166.558
166.56
166.562
166.564
166.566
166.568
166.57
166.572
166.574
166.576
166.578
166.58
166.583
166.589
166.605
166.627
166.261
166.694
166.695
166.696
166.695
166.695
166.694
166.692
166.69
166.688
166.686
166.683
166.681
166.677
166.674
166.67
166.666
166.662
166.658
166.654
166.649
166.645
166.64
166.635
166.639
166.641
166.471
165.945
165.623
165.291
165.368
166.589
166.488
166.518
166.672
166.192
166.281
185.681
183.58
166.778
167.015
166.817
169.812
189.702
186.621
165.895
166.474
166.476
166.49
166.503
166.516
166.528
166.538
166.547
166.555
166.566
166.585
166.556
166.331
165.952
165.753
165.664
166.009
166.609
166.521
166.531
166.534
166.537
166.54
166.543
166.545
166.548
166.55
166.552
166.554
166.557
166.559
166.561
166.563
166.565
166.567
166.569
166.571
166.573
166.576
166.578
166.581
166.587
166.602
166.628
166.25
166.694
166.695
166.696
166.696
166.696
166.694
166.693
166.691
166.689
166.687
166.684
166.681
166.678
166.675
166.671
166.667
166.663
166.658
166.654
166.649
166.645
166.64
166.635
166.638
166.643
166.481
165.915
165.59
165.253
165.298
166.589
166.494
166.514
166.679
166.351
165.77
186.254
184.767
165.444
165.45
165.213
167.744
190.322
188.016
166.047
166.483
166.486
166.496
166.507
166.518
166.529
166.538
166.546
166.553
166.563
166.581
166.556
166.336
165.95
165.744
165.639
165.973
166.605
166.517
166.527
166.53
166.533
166.536
166.539
166.542
166.544
166.547
166.549
166.551
166.553
166.555
166.558
166.56
166.562
166.564
166.566
166.568
166.571
166.573
166.575
166.578
166.584
166.6
166.628
166.239
166.694
166.696
166.697
166.697
166.696
166.695
166.694
166.692
166.69
166.688
166.685
166.682
166.679
166.675
166.672
166.668
166.663
166.659
166.654
166.65
166.645
166.64
166.635
166.637
166.644
166.494
165.896
165.569
165.231
165.248
166.589
166.503
166.514
166.679
166.536
165.234
187.168
186.542
164.43
164.242
164.019
165.836
191.359
189.854
166.211
166.496
166.498
166.505
166.514
166.523
166.532
166.54
166.547
166.552
166.562
166.579
166.558
166.344
165.951
165.738
165.618
165.938
166.6
166.513
166.523
166.526
166.53
166.533
166.536
166.539
166.541
166.544
166.546
166.548
166.55
166.552
166.555
166.557
166.559
166.561
166.563
166.565
166.568
166.57
166.572
166.575
166.581
166.598
166.63
166.225
166.694
166.696
166.697
166.697
166.697
166.696
166.695
166.693
166.691
166.689
166.686
166.683
166.68
166.676
166.672
166.668
166.664
166.66
166.655
166.65
166.645
166.641
166.636
166.636
166.644
166.514
165.912
165.594
165.27
165.265
166.586
166.513
166.516
166.67
166.741
164.68
188.33
188.82
163.692
163.354
163.214
164.03
192.681
192.048
166.383
166.508
166.51
166.515
166.522
166.53
166.538
166.544
166.55
166.554
166.562
166.579
166.561
166.353
165.952
165.733
165.599
165.903
166.596
166.511
166.52
166.523
166.527
166.53
166.534
166.536
166.539
166.541
166.544
166.546
166.548
166.55
166.552
166.554
166.556
166.558
166.56
166.563
166.565
166.567
166.569
166.572
166.578
166.595
166.631
166.211
166.694
166.697
166.698
166.698
166.698
166.697
166.696
166.694
166.692
166.69
166.687
166.684
166.681
166.677
166.673
166.669
166.665
166.66
166.656
166.651
166.646
166.641
166.636
166.635
166.641
166.542
165.995
165.711
165.425
165.404
166.581
166.524
166.521
166.652
166.927
164.252
166.532
166.517
166.519
166.524
166.53
166.537
166.544
166.549
166.554
166.558
166.564
166.58
166.566
166.363
165.952
165.729
165.581
165.866
166.593
166.51
166.518
166.522
166.526
166.529
166.532
166.535
166.538
166.54
166.543
166.545
166.547
166.549
166.55
166.552
166.554
166.556
166.558
166.561
166.563
166.565
166.567
166.57
166.575
166.593
166.633
166.199
166.695
166.697
166.698
166.698
166.698
166.698
166.696
166.695
166.693
166.69
166.688
166.685
166.682
166.678
166.674
166.67
166.665
166.661
166.656
166.651
166.646
166.641
166.636
166.634
166.637
166.573
166.157
165.941
165.727
165.698
166.573
166.534
166.528
166.629
166.898
164.648
166.511
166.523
166.525
166.53
166.536
166.543
166.549
166.554
166.558
166.561
166.566
166.581
166.571
166.373
165.95
165.722
165.561
165.827
166.592
166.51
166.519
166.522
166.526
166.53
166.533
166.536
166.539
166.541
166.543
166.545
166.547
166.549
166.551
166.553
166.554
166.556
166.558
166.56
166.562
166.564
166.566
166.569
166.574
166.592
166.635
166.191
166.695
166.697
166.698
166.699
166.699
166.698
166.697
166.696
166.694
166.691
166.689
166.686
166.682
166.679
166.675
166.67
166.666
166.661
166.657
166.652
166.647
166.642
166.637
166.633
166.632
166.602
166.37
166.248
166.128
166.103
166.566
166.544
166.536
166.612
166.894
164.88
166.525
166.527
166.528
166.532
166.538
166.544
166.55
166.555
166.559
166.562
166.566
166.581
166.575
166.381
165.939
165.71
165.538
165.783
166.591
166.512
166.52
166.525
166.529
166.533
166.536
166.539
166.542
166.545
166.547
166.549
166.551
166.552
166.554
166.555
166.557
166.559
166.56
166.562
166.563
166.565
166.567
166.57
166.575
166.592
166.638
166.19
166.695
166.697
166.699
166.699
166.699
166.699
166.698
166.696
166.694
166.692
166.689
166.686
166.683
166.679
166.675
166.671
166.666
166.662
166.657
166.652
166.647
166.642
166.637
166.633
166.629
166.62
166.561
166.527
166.492
166.478
166.564
166.554
166.545
166.598
166.869
165.167
166.528
166.529
166.528
166.53
166.535
166.541
166.546
166.551
166.555
166.558
166.563
166.578
166.576
166.385
165.916
165.69
165.509
165.732
166.591
166.515
166.523
166.528
166.533
166.537
166.541
166.545
166.548
166.551
166.553
166.555
166.557
166.558
166.56
166.561
166.563
166.564
166.565
166.566
166.568
166.569
166.57
166.573
166.577
166.594
166.641
166.198
166.695
166.698
166.699
166.7
166.7
166.699
166.698
166.697
166.695
166.693
166.69
166.687
166.684
166.68
166.676
166.672
166.667
166.662
166.658
166.653
166.648
166.643
166.638
166.633
166.628
166.626
166.65
166.657
166.662
166.656
166.57
166.564
166.555
166.588
166.831
165.458
166.531
166.528
166.525
166.525
166.528
166.534
166.539
166.544
166.548
166.552
166.557
166.572
166.575
166.384
165.877
165.657
165.469
165.672
166.592
166.518
166.527
166.532
166.538
166.543
166.548
166.552
166.556
166.559
166.561
166.564
166.566
166.567
166.568
166.57
166.571
166.572
166.573
166.573
166.574
166.575
166.576
166.578
166.582
166.598
166.643
166.216
166.695
166.698
166.699
166.7
166.7
166.7
166.699
166.698
166.696
166.694
166.691
166.688
166.685
166.681
166.677
166.672
166.668
166.663
166.658
166.653
166.648
166.643
166.638
166.633
166.628
166.625
166.641
166.643
166.644
166.638
166.579
166.573
166.565
166.581
166.78
165.759
166.531
166.526
166.521