/*--------------------------------*- C++ -*----------------------------------*\
| =========                 |                                                 |
| \\      /  F ield         | OpenFOAM: The Open Source CFD Toolbox           |
|  \\    /   O peration     | Version:  v2012                                 |
|   \\  /    A nd           | Website:  www.openfoam.com                      |
|    \\/     M anipulation  |                                                 |
\*---------------------------------------------------------------------------*/
FoamFile
{
    version     2.0;
    format      ascii;
    class       volScalarField;
    location    "50/air";
    object      ILambda_11_0;
}
// * * * * * * * * * * * * * * * * * * * * * * * * * * * * * * * * * * * * * //

dimensions      [1 0 -3 0 0 0 0];


internalField   nonuniform List<scalar> 
287104
(
198.466
198.327
197.441
196.893
196.897
197.201
197.592
197.986
198.356
198.687
198.968
199.194
199.369
199.506
199.62
199.724
199.829
199.936
200.045
200.153
200.254
200.345
200.424
200.49
200.544
200.584
200.605
200.603
200.576
200.525
200.455
200.371
200.28
200.188
200.103
200.03
199.968
199.916
199.875
199.852
199.836
199.83
199.827
199.816
199.808
199.8
199.791
199.782
199.775
199.771
199.773
199.783
199.801
199.825
199.855
199.886
199.918
199.949
199.977
200.004
200.032
200.064
200.102
200.15
200.207
200.271
200.343
200.419
200.497
200.578
200.659
200.741
200.827
200.917
201.011
201.107
201.2
201.284
201.348
201.388
201.408
201.421
201.448
201.52
201.705
202.177
203.242
205.042
207.461
208.373
204.603
204.256
203.037
202.269
202.192
202.486
202.892
203.307
203.698
204.047
204.338
204.564
204.73
204.85
204.944
205.028
205.112
205.2
205.291
205.379
205.459
205.527
205.582
205.623
205.651
205.664
205.655
205.619
205.556
205.468
205.362
205.248
205.13
205.015
204.908
204.815
204.744
204.696
204.658
204.626
204.599
204.573
204.555
204.545
204.532
204.517
204.499
204.482
204.468
204.461
204.464
204.477
204.501
204.533
204.571
204.614
204.658
204.702
204.745
204.786
204.829
204.876
204.932
204.998
205.075
205.162
205.257
205.357
205.459
205.561
205.663
205.764
205.867
205.973
206.082
206.192
206.296
206.386
206.452
206.489
206.5
206.502
206.522
206.599
206.812
207.369
208.641
210.817
213.797
214.855
202.755
202.424
201.232
200.466
200.37
200.639
201.02
201.412
201.784
202.116
202.393
202.608
202.765
202.879
202.968
203.047
203.127
203.213
203.302
203.39
203.471
203.541
203.599
203.643
203.675
203.692
203.686
203.654
203.593
203.505
203.4
203.287
203.172
203.061
202.955
202.859
202.792
202.761
202.737
202.701
202.666
202.619
202.586
202.58
202.566
202.547
202.526
202.506
202.492
202.488
202.496
202.513
202.539
202.571
202.609
202.65
202.693
202.735
202.775
202.814
202.855
202.9
202.953
203.016
203.089
203.172
203.263
203.358
203.455
203.552
203.649
203.746
203.844
203.946
204.05
204.156
204.256
204.342
204.406
204.44
204.45
204.453
204.474
204.552
204.764
205.313
206.556
208.66
211.512
212.598
201.668
201.317
200.114
199.328
199.206
199.447
199.802
200.171
200.523
200.838
201.101
201.304
201.451
201.556
201.636
201.709
201.783
201.864
201.949
202.034
202.112
202.18
202.234
202.276
202.305
202.318
202.31
202.276
202.212
202.12
202.008
201.888
201.769
201.657
201.549
201.451
201.388
201.376
201.368
201.326
201.281
201.21
201.156
201.152
201.134
201.108
201.082
201.059
201.047
201.046
201.057
201.076
201.102
201.134
201.171
201.212
201.254
201.295
201.335
201.374
201.414
201.459
201.511
201.573
201.645
201.726
201.815
201.908
202.003
202.098
202.193
202.288
202.385
202.485
202.588
202.693
202.793
202.879
202.943
202.98
202.993
203
203.027
203.112
203.332
203.887
205.125
207.208
210.018
211.088
200.909
200.521
199.287
198.473
198.324
198.54
198.872
199.221
199.555
199.854
200.103
200.293
200.428
200.521
200.59
200.653
200.718
200.79
200.867
200.944
201.015
201.075
201.123
201.157
201.178
201.184
201.173
201.138
201.074
200.979
200.858
200.726
200.596
200.477
200.366
200.265
200.206
200.215
200.226
200.177
200.123
200.025
199.945
199.942
199.918
199.885
199.855
199.834
199.824
199.827
199.839
199.858
199.884
199.915
199.951
199.992
200.034
200.075
200.115
200.154
200.195
200.24
200.293
200.355
200.428
200.51
200.599
200.693
200.788
200.884
200.98
201.076
201.174
201.275
201.38
201.487
201.588
201.677
201.744
201.783
201.8
201.811
201.843
201.934
202.162
202.723
203.962
206.045
208.853
209.88
200.164
199.74
198.475
197.633
197.458
197.65
197.961
198.292
198.611
198.897
199.133
199.311
199.434
199.516
199.576
199.628
199.684
199.747
199.816
199.885
199.948
200.001
200.041
200.068
200.081
200.079
200.064
200.033
199.975
199.885
199.761
199.614
199.468
199.335
199.216
199.111
199.057
199.087
199.116
199.061
199
198.877
198.769
198.764
198.734
198.699
198.672
198.655
198.65
198.653
198.662
198.677
198.699
198.728
198.765
198.806
198.848
198.89
198.93
198.97
199.011
199.057
199.11
199.173
199.246
199.329
199.419
199.513
199.61
199.707
199.803
199.9
199.999
200.102
200.209
200.318
200.423
200.514
200.583
200.624
200.642
200.655
200.691
200.786
201.019
201.584
202.826
204.909
207.715
208.694
199.419
198.961
197.667
196.799
196.599
196.77
197.061
197.376
197.68
197.954
198.18
198.347
198.46
198.534
198.585
198.629
198.677
198.733
198.794
198.856
198.913
198.959
198.993
199.012
199.016
199.005
198.988
198.965
198.923
198.849
198.731
198.574
198.406
198.249
198.114
198.003
197.954
198.001
198.046
197.985
197.919
197.776
197.641
197.632
197.601
197.572
197.556
197.549
197.545
197.54
197.537
197.542
197.559
197.589
197.626
197.669
197.712
197.754
197.794
197.834
197.876
197.922
197.975
198.039
198.113
198.196
198.287
198.382
198.479
198.577
198.675
198.772
198.872
198.977
199.086
199.197
199.305
199.397
199.466
199.507
199.525
199.54
199.577
199.676
199.913
200.483
201.725
203.806
206.605
207.545
198.686
198.196
196.876
195.983
195.762
195.912
196.185
196.483
196.773
197.036
197.251
197.409
197.514
197.579
197.623
197.66
197.701
197.751
197.806
197.863
197.915
197.957
197.986
197.999
197.994
197.973
197.953
197.94
197.921
197.878
197.782
197.623
197.433
197.243
197.079
196.955
196.906
196.963
197.02
196.956
196.886
196.73
196.573
196.56
196.537
196.529
196.533
196.535
196.522
196.497
196.472
196.462
196.474
196.504
196.545
196.589
196.634
196.676
196.717
196.757
196.798
196.844
196.898
196.962
197.036
197.12
197.211
197.307
197.405
197.504
197.602
197.7
197.801
197.906
198.017
198.13
198.238
198.331
198.4
198.44
198.458
198.474
198.514
198.616
198.857
199.43
200.672
202.749
205.539
206.449
197.97
197.449
196.105
195.191
194.949
195.081
195.337
195.619
195.896
196.148
196.35
196.499
196.594
196.651
196.686
196.717
196.753
196.799
196.853
196.909
196.961
197.003
197.03
197.04
197.028
196.998
196.972
196.968
196.974
196.971
196.913
196.768
196.561
196.329
196.121
195.97
195.91
195.965
196.027
195.963
195.891
195.729
195.56
195.548
195.547
195.575
195.605
195.608
195.571
195.509
195.452
195.425
195.433
195.467
195.511
195.557
195.602
195.644
195.685
195.724
195.766
195.811
195.865
195.929
196.004
196.088
196.179
196.275
196.373
196.472
196.57
196.668
196.77
196.876
196.988
197.102
197.21
197.303
197.371
197.411
197.432
197.451
197.494
197.601
197.846
198.422
199.662
201.735
204.512
205.4
197.273
196.722
195.356
194.422
194.161
194.276
194.516
194.783
195.047
195.293
195.459
195.512
195.532
195.544
195.562
195.596
195.648
195.719
195.802
195.888
195.967
196.031
196.076
196.095
196.083
196.043
196.002
195.989
196.003
196.028
196.005
195.881
195.658
195.376
195.102
194.899
194.808
194.841
194.899
194.838
194.768
194.612
194.453
194.46
194.503
194.587
194.648
194.643
194.568
194.46
194.369
194.327
194.336
194.375
194.421
194.466
194.507
194.545
194.581
194.615
194.651
194.692
194.74
194.8
194.87
194.95
195.037
195.128
195.222
195.317
195.412
195.508
195.608
195.714
195.826
195.942
196.053
196.152
196.233
196.297
196.33
196.364
196.422
196.542
196.799
197.384
198.628
200.7
203.468
204.332
196.589
196.01
194.622
193.669
193.392
193.49
193.715
193.972
194.243
194.321
190.632
190.103
190.201
190.482
190.809
191.135
191.445
191.729
191.983
192.198
192.366
192.484
192.547
192.553
192.499
192.397
192.278
192.182
192.127
192.108
192.071
191.948
191.717
191.397
191.061
190.79
190.631
190.594
190.603
190.524
190.434
190.28
190.134
190.143
190.205
190.304
190.352
190.306
190.178
190.022
189.901
189.845
189.845
189.873
189.907
189.938
189.968
189.997
190.026
190.055
190.085
190.12
190.161
190.212
190.271
190.337
190.408
190.482
190.557
190.632
190.707
190.782
190.859
190.941
191.025
191.109
191.183
191.234
191.237
191.224
192.448
193.261
193.832
194.298
194.794
195.542
196.892
199.029
201.836
202.735
195.911
195.303
193.895
192.924
192.63
192.712
192.924
193.168
193.437
193.473
189.293
188.697
188.806
189.119
189.483
189.844
190.183
190.493
190.767
190.999
191.18
191.306
191.373
191.381
191.329
191.22
191.082
190.957
190.88
190.859
190.85
190.773
190.569
190.237
189.851
189.514
189.291
189.194
189.173
189.092
188.992
188.847
188.734
188.776
188.882
189.012
189.045
188.948
188.755
188.55
188.405
188.346
188.35
188.38
188.412
188.441
188.469
188.498
188.528
188.558
188.59
188.624
188.666
188.716
188.774
188.839
188.908
188.981
189.055
189.128
189.202
189.276
189.353
189.433
189.515
189.596
189.667
189.714
189.706
189.688
191.06
191.959
192.582
193.081
193.597
194.357
195.709
197.837
200.623
201.505
195.23
194.594
193.166
192.178
191.866
191.934
192.131
192.363
192.621
192.659
188.66
188.093
188.194
188.489
188.832
189.171
189.49
189.782
190.041
190.261
190.435
190.557
190.622
190.632
190.586
190.486
190.346
190.204
190.108
190.08
190.096
190.075
189.923
189.611
189.199
188.807
188.517
188.354
188.3
188.214
188.104
187.973
187.906
187.99
188.137
188.279
188.277
188.117
187.863
187.622
187.472
187.422
187.437
187.473
187.508
187.539
187.57
187.604
187.638
187.672
187.707
187.744
187.787
187.838
187.897
187.962
188.032
188.106
188.181
188.256
188.331
188.407
188.485
188.566
188.65
188.732
188.804
188.852
188.844
188.825
190.136
190.991
191.584
192.063
192.566
193.317
194.657
196.77
199.532
200.395
194.541
193.876
192.428
191.422
191.094
191.146
191.328
191.547
191.794
191.836
188.028
187.489
187.582
187.859
188.181
188.5
188.798
189.069
189.309
189.512
189.673
189.784
189.844
189.852
189.812
189.728
189.596
189.438
189.315
189.258
189.272
189.292
189.198
188.933
188.532
188.109
187.756
187.518
187.417
187.32
187.199
187.086
187.073
187.196
187.359
187.48
187.42
187.192
186.894
186.643
186.506
186.476
186.503
186.544
186.582
186.618
186.655
186.694
186.733
186.77
186.808
186.847
186.891
186.943
187.002
187.068
187.139
187.214
187.29
187.367
187.443
187.52
187.6
187.682
187.767
187.851
187.924
187.974
187.968
187.95
189.205
190.021
190.588
191.049
191.541
192.283
193.613
195.712
198.451
199.296
193.838
193.144
191.676
190.652
190.307
190.343
190.51
190.715
190.949
190.993
187.355
186.84
186.926
187.185
187.489
187.79
188.072
188.326
188.546
188.729
188.871
188.968
189.017
189.022
188.99
188.927
188.815
188.653
188.503
188.399
188.377
188.406
188.356
188.153
187.799
187.382
186.986
186.673
186.514
186.395
186.267
186.184
186.228
186.376
186.522
186.59
186.458
186.177
185.863
185.63
185.521
185.509
185.541
185.582
185.622
185.664
185.709
185.753
185.795
185.835
185.874
185.915
185.96
186.012
186.071
186.137
186.209
186.285
186.362
186.44
186.518
186.596
186.675
186.759
186.845
186.929
187.004
187.054
187.051
187.034
188.242
189.024
189.57
190.017
190.499
191.233
192.554
194.639
197.357
198.186
193.121
192.396
190.908
189.865
189.503
189.522
189.674
189.864
190.087
190.13
186.655
186.165
186.242
186.484
186.77
187.058
187.329
187.57
187.775
187.937
188.055
188.13
188.162
188.158
188.133
188.098
188.021
187.876
187.715
187.562
187.478
187.473
187.432
187.284
187.001
186.628
186.22
185.845
185.616
185.463
185.342
185.305
185.405
185.559
185.66
185.656
185.465
185.164
184.871
184.677
184.596
184.588
184.609
184.639
184.678
184.726
184.776
184.823
184.866
184.906
184.946
184.989
185.035
185.087
185.146
185.213
185.286
185.363
185.442
185.521
185.599
185.678
185.758
185.842
185.929
186.014
186.09
186.141
186.139
186.124
187.288
188.041
188.566
189
189.473
190.198
191.51
193.583
196.279
197.092
192.392
191.636
190.126
189.065
188.685
188.688
188.824
189
189.209
189.251
185.942
185.476
185.544
185.768
186.036
186.312
186.577
186.816
187.012
187.155
187.246
187.289
187.294
187.273
187.25
187.245
187.218
187.118
186.981
186.803
186.65
186.576
186.499
186.371
186.155
185.85
185.464
185.045
184.738
184.543
184.442
184.471
184.623
184.764
184.805
184.743
184.531
184.258
184.019
183.867
183.792
183.759
183.746
183.754
183.787
183.838
183.893
183.941
183.983
184.022
184.062
184.106
184.154
184.206
184.267
184.335
184.409
184.487
184.567
184.646
184.725
184.804
184.885
184.969
185.057
185.143
185.219
185.271
185.272
185.26
186.383
187.107
187.614
188.035
188.498
189.216
190.519
192.579
195.255
196.054
191.665
190.879
189.348
188.268
187.87
187.856
187.977
188.138
188.334
188.375
185.232
184.79
184.848
185.052
185.301
185.565
185.829
186.073
186.272
186.405
186.468
186.473
186.437
186.386
186.354
186.373
186.403
186.379
186.309
186.15
185.956
185.806
185.658
185.507
185.324
185.078
184.734
184.294
183.912
183.666
183.599
183.705
183.895
184.008
184.003
183.925
183.749
183.547
183.373
183.242
183.136
183.041
182.971
182.947
182.972
183.026
183.084
183.13
183.169
183.208
183.247
183.294
183.343
183.396
183.458
183.527
183.602
183.681
183.762
183.841
183.92
184
184.081
184.166
184.255
184.342
184.419
184.472
184.475
184.465
185.554
186.253
186.742
187.152
187.607
188.318
189.612
191.66
194.319
195.107
190.967
190.151
188.599
187.5
187.085
187.055
187.161
187.308
187.491
187.529
184.545
184.124
184.174
184.358
184.586
184.835
185.1
185.357
185.569
185.703
185.742
185.701
185.609
185.507
185.446
185.473
185.556
185.622
185.657
185.575
185.395
185.206
184.993
184.789
184.588
184.362
184.055
183.616
183.178
182.885
182.857
183.032
183.236
183.324
183.307
183.269
183.177
183.065
182.939
182.788
182.606
182.421
182.283
182.226
182.245
182.301
182.361
182.405
182.441
182.478
182.517
182.564
182.616
182.669
182.731
182.802
182.878
182.958
183.039
183.119
183.198
183.278
183.361
183.447
183.538
183.627
183.707
183.763
183.771
183.767
184.831
185.514
185.993
186.395
186.844
187.549
188.837
190.876
193.517
194.302
190.321
189.477
187.905
186.789
186.358
186.312
186.404
186.539
186.709
186.726
183.792
183.37
183.404
183.566
183.767
183.993
184.245
184.503
184.723
184.852
184.862
184.762
184.595
184.423
184.316
184.335
184.456
184.609
184.761
184.798
184.703
184.549
184.329
184.088
183.841
183.589
183.296
182.883
182.453
182.156
182.18
182.408
182.604
182.686
182.696
182.731
182.728
182.675
182.545
182.321
182.027
181.738
181.534
181.451
181.465
181.522
181.579
181.619
181.65
181.684
181.721
181.768
181.82
181.873
181.937
182.008
182.086
182.167
182.249
182.33
182.41
182.492
182.577
182.667
182.76
182.853
182.936
182.996
183.007
183.014
184.113
184.826
185.329
185.748
186.21
186.924
188.216
190.257
192.892
193.69
189.733
188.863
187.273
186.14
185.694
185.634
185.711
185.831
185.967
186.059
185.699
185.665
185.652
185.63
185.612
185.637
185.734
185.896
186.07
186.173
186.148
185.991
185.758
185.535
185.421
185.488
185.721
186.04
186.395
186.643
186.741
186.735
186.603
186.372
186.061
185.712
185.353
184.894
184.461
184.13
184.171
184.401
184.519
184.577
184.595
184.682
184.719
184.658
184.451
184.091
183.649
183.25
183.001
182.928
182.977
183.074
183.163
183.229
183.283
183.338
183.396
183.464
183.538
183.615
183.704
183.802
183.905
184.01
184.116
184.221
184.326
184.434
184.547
184.666
184.791
184.917
185.035
185.138
185.215
185.281
185.49
185.639
185.778
185.956
186.254
186.859
188.083
190.08
192.68
193.47
189.166
188.272
186.665
185.517
185.056
184.981
185.045
185.15
185.263
185.37
185.485
185.519
185.495
185.431
185.359
185.33
185.392
185.55
185.752
185.9
185.904
185.741
185.46
185.168
184.987
185.009
185.229
185.567
185.967
186.309
186.554
186.719
186.741
186.596
186.28
185.862
185.444
184.975
184.672
184.393
184.452
184.643
184.659
184.76
184.817
184.953
185.013
184.928
184.651
184.2
183.681
183.245
182.999
182.946
183.013
183.116
183.204
183.265
183.313
183.36
183.411
183.47
183.538
183.611
183.697
183.791
183.888
183.987
184.087
184.189
184.294
184.404
184.522
184.647
184.777
184.906
185.027
185.131
185.212
185.269
185.291
185.32
185.379
185.502
185.762
186.34
187.543
189.522
192.099
192.918
188.541
187.621
185.997
184.834
184.359
184.271
184.323
184.414
184.512
184.607
184.708
184.728
184.693
184.615
184.521
184.464
184.501
184.656
184.886
185.088
185.147
185.01
184.711
184.362
184.106
184.055
184.216
184.503
184.859
185.216
185.564
185.898
186.106
186.103
185.864
185.474
185.079
184.64
184.561
184.377
184.412
184.47
184.265
184.318
184.274
184.331
184.32
184.164
183.82
183.328
182.81
182.41
182.208
182.187
182.268
182.37
182.453
182.514
182.564
182.612
182.663
182.72
182.788
182.864
182.948
183.035
183.123
183.212
183.305
183.404
183.511
183.627
183.752
183.883
184.017
184.147
184.268
184.37
184.449
184.503
184.526
184.557
184.618
184.74
184.999
185.575
186.774
188.745
191.302
192.152
187.754
186.802
185.16
183.981
183.494
183.395
183.438
183.521
183.611
183.691
183.752
183.756
183.71
183.618
183.503
183.41
183.403
183.526
183.755
183.992
184.109
184.021
183.739
183.363
183.048
182.93
183.027
183.243
183.519
183.842
184.251
184.722
185.09
185.225
185.114
184.871
184.654
184.323
184.554
184.514
184.496
184.357
183.828
183.717
183.417
183.295
183.165
182.923
182.529
182.039
181.571
181.237
181.088
181.092
181.176
181.273
181.356
181.426
181.489
181.547
181.606
181.667
181.733
181.805
181.877
181.945
182.012
182.083
182.165
182.262
182.373
182.498
182.632
182.771
182.91
183.042
183.163
183.264
183.344
183.4
183.437
183.478
183.545
183.673
183.935
184.512
185.708
187.67
190.202
191.085
186.718
185.725
184.061
182.865
182.364
182.257
182.296
182.379
182.469
182.545
182.59
182.587
182.535
182.435
182.302
182.173
182.11
182.169
182.354
182.588
182.742
182.71
182.472
182.104
181.757
181.586
181.631
181.788
181.996
182.284
182.727
183.278
183.734
183.947
183.96
183.968
184.129
184.024
184.648
184.875
184.77
184.313
183.391
182.98
182.275
181.926
181.684
181.384
180.975
180.519
180.113
179.833
179.708
179.707
179.773
179.857
179.939
180.019
180.093
180.157
180.215
180.266
180.315
180.366
180.408
180.445
180.486
180.542
180.622
180.727
180.854
180.998
181.149
181.303
181.452
181.593
181.719
181.826
181.911
181.974
182.022
182.072
182.146
182.279
182.544
183.121
184.309
186.256
188.752
189.68
185.414
184.369
182.678
181.458
180.939
180.82
180.854
180.937
181.032
181.114
181.161
181.162
181.114
181.02
180.888
180.742
180.632
180.616
180.725
180.912
181.067
181.078
180.896
180.567
180.219
180.014
180.017
180.141
180.327
180.613
181.068
181.618
182.057
182.256
182.352
182.678
183.435
183.752
185.438
186.225
185.953
184.823
182.902
182.04
180.797
180.221
179.91
179.601
179.211
178.791
178.409
178.119
177.947
177.885
177.898
177.952
178.031
178.127
178.223
178.306
178.381
178.44
178.489
178.535
178.569
178.6
178.645
178.715
178.816
178.947
179.101
179.268
179.439
179.606
179.764
179.909
180.039
180.149
180.238
180.305
180.358
180.411
180.488
180.622
180.886
181.457
182.633
184.557
187.007
187.99
183.897
182.793
181.068
179.818
179.272
179.132
179.15
179.225
179.317
179.398
179.447
179.451
179.412
179.335
179.229
179.102
178.983
178.917
178.945
179.056
179.175
179.201
179.074
178.806
178.49
178.276
178.244
178.356
178.576
178.914
179.372
179.851
180.173
180.268
180.387
181.036
182.564
183.52
186.283
187.871
187.171
184.767
181.851
180.44
178.64
177.908
177.597
177.352
177.049
176.71
176.374
176.089
175.893
175.801
175.802
175.87
175.983
176.12
176.252
176.359
176.45
176.513
176.557
176.596
176.625
176.662
176.723
176.815
176.94
177.09
177.258
177.434
177.61
177.778
177.934
178.076
178.203
178.311
178.399
178.466
178.518
178.571
178.647
178.779
179.039
179.602
180.763
182.663
185.062
186.107
182.296
181.13
179.369
178.083
177.502
177.329
177.318
177.368
177.439
177.504
177.538
177.531
177.489
177.429
177.361
177.289
177.212
177.148
177.126
177.159
177.212
177.216
177.12
176.917
176.663
176.471
176.413
176.515
176.795
177.207
177.652
178.001
178.139
178.065
178.108
178.92
181.086
182.931
190.784
192.288
190.636
186.753
179.4
177.831
175.972
175.39
175.243
175.169
175.029
174.816
174.553
174.287
174.072
173.945
173.915
173.972
174.089
174.235
174.369
174.471
174.55
174.598
174.626
174.656
174.691
174.751
174.842
174.963
175.106
175.263
175.429
175.6
175.769
175.93
176.079
176.213
176.333
176.437
176.521
176.585
176.635
176.686
176.758
176.887
177.142
177.698
178.843
180.72
183.07
184.176
180.767
179.541
177.746
176.423
175.805
175.593
175.544
175.556
175.592
175.623
175.625
175.589
175.526
175.465
175.432
175.43
175.439
175.435
175.416
175.397
175.376
175.326
175.221
175.059
174.873
174.723
174.64
174.694
174.992
175.439
175.839
176.08
176.128
176.036
176.122
177.056
179.631
181.829
186.385
187.026
185.462
182.014
176.875
175.547
173.902
173.483
173.388
173.357
173.282
173.14
172.94
172.713
172.502
172.345
172.271
172.29
172.384
172.513
172.629
172.711
172.769
172.798
172.816
172.851
172.914
173.017
173.152
173.301
173.45
173.597
173.747
173.903
174.06
174.212
174.351
174.478
174.591
174.69
174.769
174.83
174.876
174.923
174.992
175.116
175.367
175.914
177.047
178.903
181.21
182.372
179.452
178.177
176.352
174.999
174.348
174.101
174.014
173.988
173.984
173.975
173.937
173.861
173.761
173.678
173.657
173.714
173.82
173.917
173.957
173.933
173.862
173.755
173.614
173.454
173.314
173.21
173.122
173.111
173.39
173.842
174.212
174.456
174.575
174.635
174.862
175.806
178.441
180.41
174.094
175.1
174.086
171.633
175.325
174.003
172.521
172.187
172.052
171.985
171.9
171.776
171.617
171.433
171.235
171.052
170.928
170.896
170.953
171.057
171.156
171.222
171.264
171.284
171.304
171.364
171.475
171.633
171.808
171.968
172.101
172.218
172.339
172.475
172.621
172.764
172.897
173.017
173.125
173.219
173.294
173.351
173.394
173.437
173.502
173.622
173.868
174.408
175.531
177.37
179.641
180.849
178.441
177.131
175.288
173.915
173.244
172.975
172.863
172.809
172.776
172.737
172.667
172.555
172.416
172.294
172.251
172.325
172.497
172.689
172.812
172.827
172.75
172.614
172.446
172.27
172.153
172.108
172.107
172.114
172.421
172.896
173.253
173.559
173.765
173.951
174.256
175.02
177.318
178.752
163.048
164.47
164.048
162.634
174.085
172.896
171.651
171.401
171.216
171.123
171.032
170.918
170.779
170.606
170.387
170.15
169.959
169.87
169.892
169.982
170.077
170.143
170.179
170.197
170.233
170.329
170.494
170.7
170.894
171.038
171.129
171.199
171.284
171.399
171.536
171.674
171.803
171.919
172.023
172.114
172.186
172.24
172.28
172.32
172.381
172.497
172.739
173.274
174.389
176.217
178.462
179.704
177.764
176.433
174.582
173.204
172.529
172.255
172.14
172.08
172.04
171.992
171.913
171.787
171.625
171.467
171.38
171.423
171.6
171.839
172.032
172.103
172.053
171.929
171.772
171.609
171.529
171.571
171.8
171.957
172.354
172.824
173.074
173.375
173.556
173.843
174.273
174.803
176.374
176.805
155.452
156.777
156.873
156.64
173.032
172.315
171.423
171.176
170.822
170.64
170.543
170.469
170.372
170.207
169.95
169.646
169.383
169.24
169.232
169.318
169.446
169.521
169.556
169.573
169.628
169.765
169.979
170.215
170.402
170.501
170.531
170.546
170.596
170.697
170.829
170.966
171.092
171.206
171.308
171.396
171.468
171.52
171.557
171.594
171.653
171.766
172.004
172.536
173.647
175.468
177.696
178.961
177.403
176.062
174.21
172.835
172.166
171.902
171.798
171.749
171.72
171.683
171.615
171.5
171.338
171.162
171.031
171.014
171.142
171.375
171.607
171.739
171.744
171.673
171.592
171.531
171.574
171.75
172.317
172.709
173.182
173.525
173.472
173.671
174.453
174.945
175.657
176.035
177.127
176.572
150.074
150.248
150.549
151.598
174.135
173.535
172.558
172.039
171.247
170.815
170.671
170.671
170.669
170.557
170.301
169.967
169.665
169.484
169.451
169.504
169.18
169.264
169.291
169.309
169.391
169.574
169.831
170.078
170.234
170.273
170.237
170.205
170.234
170.331
170.465
170.601
170.726
170.838
170.938
171.026
171.096
171.147
171.183
171.218
171.274
171.385
171.622
172.152
173.261
175.081
177.301
178.578
177.325
175.979
174.127
172.753
172.09
171.834
171.74
171.704
171.687
171.663
171.609
171.509
171.36
171.178
171.01
170.922
170.969
171.152
171.398
171.596
171.685
171.705
171.762
171.923
172.234
172.591
173.543
174.177
174.643
174.713
174.172
174.107
174.895
175.658
176.727
177.05
178.757
179.173
153.945
153.852
153.534
153.951
177.714
176.118
174.219
173.179
171.665
170.828
170.583
170.638
170.721
170.668
170.445
170.124
169.818
169.607
169.53
169.535
169.092
169.178
169.207
169.241
169.368
169.607
169.9
170.14
170.253
170.231
170.144
170.088
170.117
170.224
170.365
170.504
170.628
170.738
170.838
170.926
170.996
171.045
171.08
171.113
171.168
171.278
171.514
172.045
173.155
174.977
177.197
178.478
177.485
176.144
174.288
172.909
172.238
171.977
171.879
171.84
171.821
171.798
171.747
171.654
171.512
171.329
171.134
170.983
170.943
171.053
171.283
171.535
171.717
171.848
172.083
172.568
173.308
173.892
175.2
176.071
176.405
176.047
174.937
174.443
174.893
175.834
177.278
177.868
181.3
182.618
157.394
157.06
156.692
157.265
181.947
179.485
175.623
174.028
171.833
170.668
170.359
170.449
170.582
170.587
170.441
170.205
169.956
169.75
169.628
169.576
169.09
169.177
169.222
169.294
169.479
169.768
170.075
170.288
170.347
170.276
170.166
170.115
170.167
170.293
170.443
170.583
170.705
170.815
170.915
171.003
171.072
171.121
171.155
171.188
171.242
171.352
171.588
172.12
173.234
175.062
177.288
178.566
177.788
176.471
174.615
173.231
172.547
172.268
172.149
172.09
172.053
172.014
171.953
171.855
171.713
171.531
171.326
171.139
171.032
171.064
171.24
171.494
171.731
171.958
172.38
173.252
174.587
175.511
177.697
178.919
178.936
177.808
175.585
174.519
174.395
175.334
177.112
178.483
184.436
185.785
163.66
162.892
162.599
163.701
187.48
185.212
177.228
174.646
171.791
170.361
170.012
170.116
170.268
170.331
170.308
170.231
170.116
169.971
169.832
169.724
169.178
169.255
169.324
169.443
169.681
169.994
170.283
170.446
170.454
170.355
170.253
170.234
170.317
170.46
170.612
170.747
170.866
170.976
171.078
171.168
171.238
171.287
171.32
171.353
171.407
171.517
171.754
172.289
173.409
175.245
177.48
178.753
178.084
176.806
174.961
173.583
172.895
172.603
172.466
172.385
172.327
172.268
172.191
172.083
171.939
171.763
171.567
171.381
171.252
171.231
171.335
171.529
171.745
172.003
172.558
173.799
175.844
177.291
180.386
182.139
181.603
179.217
175.986
174.431
173.752
174.655
176.783
177.112
175.633
173.874
171.28
170.008
169.752
169.875
170.014
170.102
170.184
170.27
170.312
170.265
170.144
169.992
169.366
169.408
169.493
169.658
169.928
170.23
170.474
170.582
170.556
170.461
170.392
170.413
170.519
170.661
170.799
170.923
171.039
171.151
171.257
171.349
171.421
171.471
171.505
171.539
171.594
171.705
171.944
172.483
173.61
175.456
177.703
178.969
178.248
177.001
175.173
173.811
173.135
172.849
172.713
172.628
172.563
172.497
172.411
172.297
172.155
171.992
171.822
171.664
171.548
171.499
171.524
171.597
171.687
171.844
172.362
173.763
176.359
178.651
186.985
188.946
187.654
183.887
176.086
174.483
173.609
174.531
176.826
177.015
174.944
173.409
171.248
170.257
170.068
170.122
170.164
170.208
170.311
170.456
170.57
170.582
170.488
170.312
169.606
169.597
169.689
169.89
170.165
170.429
170.619
170.691
170.664
170.602
170.58
170.631
170.733
170.848
170.958
171.066
171.181
171.298
171.411
171.507
171.582
171.634
171.67
171.706
171.764
171.878
172.12
172.664
173.799
175.655
177.914
179.174
178.26
177.017
175.202
173.856
173.199
172.934
172.816
172.748
172.695
172.638
172.558
172.448
172.312
172.161
172.009
171.869
171.753
171.668
171.614
171.581
171.57
171.659
172.138
173.578
176.47
179.221
185.291
186.4
184.951
181.4
175.454
174.054
173.293
174.33
176.759
177.089
174.865
173.176
171.226
170.514
170.48
170.603
170.695
170.729
170.783
170.855
170.902
170.879
170.781
170.597
169.836
169.778
169.874
170.094
170.345
170.558
170.709
170.778
170.783
170.774
170.795
170.851
170.921
170.989
171.064
171.16
171.278
171.404
171.524
171.626
171.705
171.76
171.801
171.84
171.901
172.02
172.267
172.816
173.958
175.824
178.092
179.35
178.181
176.916
175.101
173.76
173.118
172.873
172.78
172.738
172.71
172.674
172.611
172.513
172.385
172.242
172.099
171.969
171.859
171.775
171.718
171.692
171.705
171.803
172.196
173.405
176.092
178.626
173.928
175.163
174.065
171.309
174.621
173.21
172.726
173.963
176.634
177.239
174.868
173.009
171.13
170.612
170.765
171.059
171.291
171.402
171.425
171.39
171.304
171.173
171.028
170.841
170.062
169.972
170.064
170.276
170.466
170.631
170.763
170.853
170.904
170.946
170.992
171.032
171.054
171.075
171.124
171.216
171.341
171.476
171.602
171.708
171.79
171.85
171.894
171.937
172.003
172.126
172.379
172.935
174.084
175.959
178.237
179.493
178.109
176.806
174.976
173.623
172.977
172.736
172.655
172.63
172.622
172.606
172.558
172.47
172.353
172.228
172.123
172.058
172.035
172.049
172.087
172.136
172.183
172.234
172.402
173.079
174.983
176.721
161.965
163.468
162.928
161.206
173.256
172.066
172.003
173.36
176.221
177.242
174.82
172.766
170.908
170.554
170.895
171.372
171.776
171.998
172.045
171.966
171.795
171.576
171.383
171.206
170.468
170.378
170.459
170.624
170.709
170.834
170.947
171.05
171.129
171.2
171.251
171.261
171.238
171.223
171.257
171.347
171.472
171.605
171.726
171.827
171.906
171.963
172.005
172.049
172.115
172.24
172.495
173.056
174.211
176.093
178.378
179.635
178.112
176.783
174.934
173.561
172.896
172.64
172.547
172.514
172.501
172.478
172.423
172.334
172.23
172.151
172.136
172.2
172.329
172.48
172.603
172.667
172.67
172.639
172.636
172.806
173.533
173.68
151.955
153.283
153.355
153.086
171.488
171.059
171.451
172.587
175.336
176.903
174.508
172.193
170.496
170.36
170.873