/*--------------------------------*- C++ -*----------------------------------*\
| =========                 |                                                 |
| \\      /  F ield         | OpenFOAM: The Open Source CFD Toolbox           |
|  \\    /   O peration     | Version:  v2012                                 |
|   \\  /    A nd           | Website:  www.openfoam.com                      |
|    \\/     M anipulation  |                                                 |
\*---------------------------------------------------------------------------*/
FoamFile
{
    version     2.0;
    format      ascii;
    class       volScalarField;
    location    "50/air";
    object      k;
}
// * * * * * * * * * * * * * * * * * * * * * * * * * * * * * * * * * * * * * //

dimensions      [0 2 -2 0 0 0 0];


internalField   nonuniform List<scalar> 
287104
(
0.0833787
0.0716525
0.0632278
0.0568799
0.0519396
0.0479982
0.0447885
0.0421269
0.0398827
0.0379605
0.0362898
0.0348187
0.0335092
0.032335
0.0312781
0.0303274
0.0294758
0.028719
0.0280537
0.0274763
0.0269826
0.0265676
0.0262253
0.0259484
0.0257288
0.0255574
0.0254262
0.0253279
0.0252566
0.0252069
0.0251747
0.0251562
0.0251486
0.0251493
0.025156
0.0251671
0.0251809
0.0251964
0.0252125
0.0252286
0.0252445
0.0252598
0.0252749
0.02529
0.0253055
0.0253219
0.0253397
0.0253595
0.0253818
0.025407
0.0254356
0.025468
0.0255048
0.0255465
0.0255936
0.0256467
0.0257063
0.0257726
0.025846
0.0259263
0.0260134
0.026107
0.0262064
0.0263111
0.0264203
0.0265332
0.0266492
0.0267678
0.0268884
0.0270109
0.0271352
0.0272613
0.0273895
0.02752
0.0276527
0.027788
0.0279262
0.0280676
0.0282119
0.0283594
0.0285103
0.0286647
0.0288227
0.028985
0.0291522
0.0293259
0.0295071
0.029701
0.0299083
0.0301411
0.0833754
0.0716462
0.063219
0.0568693
0.0519275
0.0479848
0.0447737
0.0421105
0.0398644
0.0379402
0.0362677
0.0347949
0.0334846
0.0323105
0.0312551
0.0303071
0.0294595
0.0287078
0.028048
0.0274765
0.0269886
0.0265788
0.0262409
0.0259673
0.0257498
0.0255795
0.0254486
0.0253499
0.0252777
0.0252268
0.0251931
0.0251731
0.0251638
0.0251627
0.0251675
0.0251765
0.0251882
0.0252013
0.0252148
0.0252278
0.0252402
0.025252
0.0252634
0.0252748
0.0252868
0.0253
0.0253148
0.0253319
0.0253517
0.0253746
0.0254012
0.0254319
0.025467
0.0255066
0.0255511
0.0256013
0.0256578
0.0257209
0.025791
0.0258681
0.025952
0.0260423
0.0261385
0.0262397
0.0263453
0.0264543
0.0265661
0.0266803
0.0267964
0.0269144
0.0270342
0.027156
0.0272799
0.0274061
0.027535
0.0276668
0.0278017
0.0279395
0.0280804
0.0282244
0.0283716
0.0285217
0.0286751
0.0288322
0.0289938
0.029161
0.0293354
0.029522
0.0297215
0.0299456
0.083374
0.0716433
0.0632149
0.0568641
0.0519213
0.0479777
0.0447657
0.0421016
0.0398547
0.0379297
0.0362564
0.034783
0.0334723
0.0322981
0.0312429
0.0302954
0.0294486
0.0286978
0.0280393
0.0274691
0.0269826
0.0265743
0.026238
0.025966
0.0257497
0.0255804
0.0254502
0.025352
0.0252801
0.0252296
0.0251962
0.0251765
0.0251675
0.0251667
0.0251719
0.0251811
0.025193
0.0252063
0.02522
0.0252336
0.0252466
0.025259
0.0252709
0.0252826
0.0252948
0.0253079
0.0253226
0.0253392
0.0253582
0.0253801
0.025405
0.0254334
0.025466
0.0255032
0.0255456
0.0255939
0.0256487
0.0257102
0.0257788
0.0258546
0.0259373
0.0260265
0.0261217
0.026222
0.0263266
0.0264348
0.0265458
0.0266591
0.0267745
0.0268915
0.0270103
0.0271309
0.0272534
0.0273784
0.0275062
0.0276369
0.0277708
0.027908
0.0280489
0.0281935
0.028342
0.0284947
0.0286519
0.0288144
0.0289825
0.029158
0.0293419
0.0295391
0.0297491
0.0299858
0.0833725
0.07164
0.06321
0.0568575
0.0519131
0.047968
0.0447546
0.0420891
0.0398407
0.0379142
0.0362396
0.0347652
0.0334536
0.0322789
0.0312234
0.0302761
0.0294298
0.0286799
0.0280225
0.0274538
0.0269689
0.0265626
0.0262283
0.0259586
0.0257445
0.0255772
0.0254488
0.0253524
0.0252822
0.0252333
0.0252016
0.0251837
0.0251764
0.0251773
0.0251841
0.0251951
0.0252086
0.0252233
0.0252385
0.0252533
0.0252675
0.0252809
0.0252937
0.0253063
0.0253191
0.0253326
0.0253473
0.0253636
0.0253821
0.0254031
0.025427
0.0254544
0.0254857
0.0255215
0.0255625
0.0256092
0.0256624
0.0257223
0.0257894
0.0258636
0.025945
0.026033
0.026127
0.0262264
0.0263302
0.0264376
0.026548
0.0266606
0.0267752
0.0268915
0.0270094
0.0271292
0.0272512
0.0273756
0.0275028
0.0276332
0.0277671
0.0279049
0.0280467
0.0281928
0.0283434
0.0284989
0.0286599
0.0288269
0.0290006
0.0291826
0.0293738
0.0295788
0.0297962
0.0300422
0.0833711
0.0716369
0.0632054
0.0568515
0.0519057
0.0479592
0.0447443
0.0420773
0.0398274
0.0378995
0.0362236
0.0347481
0.0334357
0.0322604
0.0312046
0.0302572
0.0294113
0.028662
0.0280057
0.0274382
0.026955
0.0265508
0.0262191
0.0259522
0.0257405
0.0255753
0.0254488
0.0253541
0.0252855
0.0252381
0.0252079
0.0251914
0.0251855
0.0251878
0.025196
0.0252082
0.0252229
0.0252388
0.0252548
0.0252703
0.025285
0.0252987
0.0253117
0.0253242
0.0253367
0.0253496
0.0253636
0.025379
0.0253964
0.0254161
0.0254386
0.0254644
0.0254941
0.0255282
0.0255674
0.0256125
0.0256639
0.0257223
0.025788
0.0258609
0.0259411
0.0260281
0.0261212
0.0262197
0.0263226
0.0264293
0.0265388
0.0266507
0.0267645
0.02688
0.0269973
0.0271164
0.0272378
0.0273616
0.0274884
0.0276186
0.0277525
0.0278905
0.0280327
0.0281793
0.0283307
0.0284873
0.0286495
0.028818
0.0289937
0.0291779
0.0293714
0.029579
0.0297984
0.0300488
0.0833696
0.0716337
0.0632004
0.0568449
0.0518975
0.0479492
0.0447325
0.0420636
0.0398119
0.0378824
0.0362052
0.0347289
0.0334161
0.0322407
0.0311851
0.0302381
0.0293928
0.0286444
0.027989
0.0274227
0.0269408
0.0265382
0.0262083
0.0259431
0.0257329
0.025569
0.0254437
0.0253502
0.0252829
0.0252369
0.0252081
0.025193
0.0251888
0.0251927
0.0252025
0.0252164
0.0252327
0.0252501
0.0252676
0.0252845
0.0253003
0.025315
0.0253286
0.0253416
0.0253543
0.0253672
0.0253808
0.0253956
0.025412
0.0254306
0.0254518
0.0254762
0.0255042
0.0255367
0.0255743
0.0256178
0.0256677
0.0257247
0.0257891
0.025861
0.0259401
0.0260262
0.0261186
0.0262164
0.0263188
0.0264249
0.0265341
0.0266457
0.0267593
0.0268747
0.026992
0.0271111
0.0272325
0.0273566
0.0274838
0.0276144
0.0277487
0.0278869
0.0280293
0.0281758
0.0283268
0.0284826
0.028644
0.0288116
0.0289865
0.0291701
0.0293633
0.0295709
0.0297899
0.0300425
0.0833682
0.0716305
0.0631957
0.0568385
0.0518893
0.0479391
0.0447202
0.0420489
0.0397945
0.0378624
0.036183
0.0347051
0.0333914
0.0322156
0.0311599
0.030213
0.0293679
0.0286198
0.0279647
0.0273987
0.0269169
0.0265142
0.0261843
0.0259191
0.0257092
0.0255457
0.0254209
0.0253281
0.0252617
0.0252168
0.0251893
0.0251757
0.025173
0.0251786
0.0251902
0.0252058
0.0252239
0.0252432
0.0252624
0.0252809
0.0252982
0.0253141
0.0253288
0.0253425
0.0253556
0.0253687
0.0253822
0.0253965
0.0254123
0.0254299
0.0254499
0.0254729
0.0254995
0.0255305
0.0255666
0.0256086
0.0256573
0.0257131
0.0257765
0.0258475
0.025926
0.0260116
0.0261037
0.0262013
0.0263036
0.0264097
0.0265188
0.0266304
0.0267439
0.0268592
0.0269764
0.0270956
0.0272172
0.0273416
0.0274691
0.0276001
0.0277348
0.0278735
0.0280163
0.0281629
0.0283134
0.0284683
0.0286285
0.028795
0.0289689
0.0291518
0.0293446
0.0295521
0.0297706
0.0300255
0.0833668
0.0716274
0.0631909
0.056832
0.0518809
0.0479286
0.0447072
0.0420332
0.0397761
0.0378414
0.0361606
0.0346827
0.0333695
0.0321942
0.0311389
0.0301922
0.0293468
0.0285979
0.0279416
0.0273739
0.02689
0.0264849
0.0261523
0.0258846
0.0256724
0.0255071
0.0253809
0.0252872
0.0252205
0.0251758
0.0251491
0.0251368
0.0251358
0.0251434
0.0251574
0.0251757
0.0251965
0.0252186
0.0252406
0.0252619
0.0252818
0.0253001
0.0253167
0.0253322
0.0253467
0.0253607
0.0253747
0.0253893
0.0254048
0.0254218
0.0254409
0.0254628
0.0254881
0.0255177
0.0255524
0.0255931
0.0256405
0.0256952
0.0257577
0.0258281
0.0259061
0.0259914
0.0260832
0.0261807
0.0262829
0.026389
0.0264981
0.0266096
0.0267232
0.0268386
0.026956
0.0270755
0.0271976
0.0273225
0.0274506
0.0275822
0.0277177
0.0278569
0.0279996
0.0281452
0.0282936
0.0284459
0.0286038
0.0287686
0.0289413
0.0291236
0.0293163
0.0295246
0.0297437
0.0300023
0.0833654
0.0716244
0.0631862
0.0568254
0.0518721
0.0479169
0.044692
0.0420131
0.0397493
0.0378065
0.0361289
0.0346662
0.0333735
0.0322176
0.0311766
0.030237
0.0293913
0.0286355
0.027967
0.0273832
0.0268809
0.0264563
0.0261049
0.025821
0.025596
0.0254216
0.0252903
0.0251951
0.02513
0.0250899
0.02507
0.0250661
0.0250745
0.0250919
0.0251155
0.0251428
0.0251719
0.0252009
0.0252286
0.025254
0.0252765
0.0252961
0.0253128
0.025327
0.0253395
0.0253508
0.0253617
0.0253727
0.0253846
0.0253979
0.0254135
0.025432
0.0254544
0.0254816
0.0255143
0.0255537
0.0256003
0.0256548
0.0257177
0.0257889
0.0258684
0.0259555
0.0260495
0.0261494
0.0262542
0.026363
0.0264749
0.0265893
0.0267056
0.0268235
0.0269431
0.0270644
0.0271878
0.0273137
0.0274424
0.0275743
0.0277094
0.0278472
0.0279868
0.0281253
0.0282632
0.0284054
0.0285551
0.028714
0.0288827
0.0290627
0.0292545
0.0294631
0.0296827
0.0299463
0.0833642
0.0716215
0.0631816
0.0568189
0.0518634
0.0479056
0.0446772
0.041994
0.0397239
0.0377768
0.0370957
0.0366823
0.0361257
0.0353559
0.0344179
0.0333853
0.032327
0.031297
0.0303339
0.0294636
0.0287013
0.028055
0.0275268
0.027115
0.0268137
0.0266146
0.0265056
0.0264719
0.0264973
0.0265658
0.0266631
0.0267766
0.0268956
0.0270117
0.0271183
0.0272102
0.0272842
0.0273377
0.0273697
0.02738
0.0273697
0.0273407
0.0272958
0.0272385
0.0271728
0.0271027
0.0270323
0.0269655
0.026906
0.0268569
0.0268211
0.0268009
0.0267981
0.0268138
0.0268489
0.0269034
0.0269772
0.0270694
0.0271788
0.0273036
0.0274416
0.0275905
0.0277476
0.0279103
0.0280764
0.0282436
0.0284101
0.0285749
0.0287367
0.028895
0.0290493
0.0291993
0.0293445
0.029484
0.0296163
0.029738
0.0298435
0.0299201
0.0299454
0.0298459
0.0296166
0.0294522
0.0293581
0.029324
0.0293406
0.0294005
0.0294975
0.0296321
0.0297911
0.0300196
0.083363
0.0716187
0.0631771
0.0568123
0.051854
0.0478922
0.0446571
0.0419621
0.0396608
0.0378252
0.115985
0.138118
0.136962
0.127857
0.117049
0.10683
0.0979257
0.0904781
0.0844206
0.0796258
0.0759576
0.0732869
0.0714947
0.0704803
0.0702096
0.0705371
0.0712722
0.0722392
0.0733087
0.0743966
0.0754529
0.0764506
0.0773765
0.0782256
0.0789975
0.0796943
0.0803192
0.0808754
0.0813662
0.0817945
0.0821635
0.0824772
0.0827401
0.0829579
0.0831364
0.0832825
0.0834031
0.0835061
0.0835998
0.0836934
0.0837953
0.0839131
0.0840534
0.0842205
0.0844175
0.084645
0.0849028
0.0851886
0.0854996
0.0858325
0.0861835
0.0865495
0.086928
0.0873171
0.0877159
0.0881245
0.0885432
0.0889737
0.0894184
0.0898791
0.0903586
0.0908604
0.0913888
0.0919502
0.0925552
0.0932221
0.09399
0.0949323
0.0962976
0.0983624
0.0700526
0.0561272
0.048447
0.0438249
0.0408461
0.0388229
0.0373911
0.0363552
0.035566
0.0350227
0.0833618
0.0716162
0.0631729
0.0568064
0.0518459
0.0478816
0.0446431
0.0419441
0.0396371
0.0377958
0.115959
0.138134
0.136912
0.127667
0.116688
0.106286
0.0972025
0.0895839
0.0833678
0.0784296
0.0746357
0.0718596
0.0699829
0.0688938
0.068495
0.0687403
0.0694724
0.0705044
0.0716776
0.0728827
0.0740545
0.0751579
0.0761768
0.0771062
0.0779468
0.0787025
0.079378
0.0799781
0.080507
0.080968
0.0813651
0.0817023
0.0819847
0.0822182
0.0824094
0.0825664
0.0826976
0.0828113
0.0829163
0.0830211
0.0831343
0.0832632
0.0834137
0.0835896
0.0837932
0.0840252
0.0842847
0.0845701
0.0848783
0.0852062
0.0855505
0.0859082
0.0862772
0.0866561
0.087044
0.0874415
0.0878496
0.0882694
0.0887035
0.0891547
0.0896257
0.09012
0.0906424
0.0912
0.0918038
0.0924723
0.0932439
0.0941864
0.0955399
0.0975558
0.0699093
0.0563418
0.0488838
0.0444094
0.0415312
0.0395766
0.0381904
0.0371837
0.0364111
0.0358784
0.0833608
0.0716137
0.063169
0.0568006
0.0518381
0.0478711
0.0446292
0.0419255
0.0396121
0.0377624
0.115718
0.137878
0.136703
0.127507
0.116563
0.106177
0.097094
0.0894639
0.0832287
0.0782676
0.0744499
0.0716515
0.0697553
0.0686484
0.0682388
0.0684809
0.0692084
0.0702357
0.0714085
0.0726195
0.0738029
0.0749227
0.0759612
0.0769119
0.0777741
0.0785506
0.0792451
0.0798615
0.0804032
0.0808728
0.0812734
0.0816085
0.0818833
0.0821042
0.0822795
0.0824185
0.0825309
0.0826255
0.0827119
0.0827991
0.0828957
0.0830093
0.0831455
0.0833085
0.0835004
0.0837222
0.0839737
0.0842532
0.0845584
0.0848854
0.0852313
0.0855926
0.0859662
0.0863508
0.086745
0.0871487
0.0875633
0.0879903
0.0884317
0.0888902
0.0893692
0.0898729
0.0904066
0.0909785
0.0916015
0.0922966
0.0931056
0.0941004
0.0955273
0.0976249
0.0700707
0.0565538
0.0491191
0.0446518
0.0417715
0.03981
0.0384146
0.0373984
0.0366174
0.0360805
0.0833598
0.0716114
0.0631653
0.0567955
0.0518314
0.0478625
0.0446186
0.0419126
0.0395966
0.0377445
0.115622
0.13777
0.136601
0.12741
0.116465
0.106076
0.0969864
0.0893499
0.0831094
0.0781447
0.0743261
0.0715297
0.0696387
0.0685401
0.0681425
0.0683976
0.0691381
0.0701788
0.0713663
0.0725941
0.0737972
0.0749391
0.0760024
0.0769796
0.077869
0.0786722
0.0793915
0.0800295
0.0805882
0.0810691
0.081474
0.0818059
0.0820701
0.0822732
0.0824242
0.0825341
0.0826138
0.0826744
0.0827266
0.0827817
0.082849
0.082937
0.0830517
0.0831973
0.083376
0.0835882
0.0838336
0.0841094
0.0844131
0.0847414
0.0850902
0.0854562
0.0858361
0.0862277
0.0866298
0.0870419
0.0874647
0.0878999
0.0883499
0.0888173
0.0893056
0.0898192
0.090364
0.0909481
0.0915848
0.0922948
0.0931194
0.0941289
0.0955663
0.0976647
0.0701129
0.0565957
0.0491594
0.0446901
0.0418077
0.0398443
0.0384476
0.0374307
0.0366513
0.0361205
0.0833587
0.071609
0.0631616
0.0567905
0.051825
0.0478546
0.0446089
0.0419009
0.0395827
0.037728
0.115509
0.137623
0.13645
0.127264
0.116327
0.105944
0.0968595
0.089227
0.0829901
0.0780297
0.0742169
0.0714284
0.069548
0.0684624
0.0680822
0.0683559
0.0691152
0.0701747
0.0713817
0.0726308
0.0738571
0.0750252
0.0761174
0.0771259
0.0780485
0.0788848
0.0796357
0.0803016
0.0808824
0.0813777
0.0817874
0.0821141
0.0823619
0.0825377
0.0826526
0.0827199
0.0827534
0.0827665
0.0827731
0.0827855
0.0828152
0.0828705
0.0829584
0.0830821
0.0832443
0.0834447
0.0836821
0.083954
0.0842563
0.0845855
0.0849375
0.0853088
0.0856958
0.086096
0.0865076
0.0869301
0.0873639
0.0878103
0.0882712
0.0887497
0.0892492
0.0897743
0.0903309
0.0909275
0.0915775
0.092302
0.0931427
0.0941697
0.095626
0.0977416
0.0701675
0.0566391
0.0491959
0.0447216
0.041835
0.0398681
0.0384685
0.0374495
0.03667
0.0361429
0.0833576
0.0716065
0.0631578
0.0567856
0.051819
0.0478475
0.0446007
0.0418914
0.0395719
0.0377156
0.115423
0.137502
0.136312
0.127117
0.116176
0.105791
0.0967071
0.0890771
0.0828453
0.0778929
0.0740912
0.0713173
0.0694551
0.0683912
0.0680427
0.0683486
0.0691389
0.0702267
0.07146
0.0727346
0.0739872
0.0751838
0.0763076
0.0773511
0.0783115
0.079187
0.0799765
0.0806775
0.0812874
0.0818026
0.082221
0.082544
0.0827726
0.0829139
0.0829822
0.0829941
0.0829676
0.0829199
0.0828685
0.0828279
0.0828111
0.0828271
0.0828824
0.0829814
0.0831249
0.0833134
0.0835442
0.0838138
0.0841181
0.0844518
0.0848102
0.0851896
0.0855862
0.0859971
0.0864205
0.086855
0.0873008
0.0877592
0.088232
0.0887217
0.0892317
0.0897666
0.0903325
0.0909379
0.0915961
0.0923284
0.0931766
0.0942106
0.0956736
0.0977955
0.0701942
0.0566523
0.0492017
0.044723
0.0418338
0.0398653
0.0384649
0.0374461
0.0366688
0.0361472
0.0833563
0.0716038
0.063154
0.0567808
0.0518134
0.0478412
0.0445938
0.0418841
0.0395642
0.0377075
0.11537
0.137414
0.136197
0.126982
0.116024
0.105629
0.0965393
0.0889091
0.0826822
0.07774
0.0739539
0.0712011
0.0693656
0.0683337
0.0680367
0.0683954
0.0692342
0.070363
0.0716309
0.0729363
0.0742189
0.0754471
0.0766061
0.0776896
0.0786946
0.0796186
0.0804575
0.0812055
0.0818549
0.0823976
0.0828278
0.0831416
0.0833388
0.0834289
0.0834311
0.0833682
0.0832637
0.0831406
0.083019
0.0829169
0.0828469
0.0828195
0.0828402
0.0829128
0.083038
0.0832143
0.0834393
0.0837078
0.0840147
0.0843546
0.0847214
0.0851103
0.0855179
0.0859407
0.0863768
0.0868251
0.0872848
0.0877568
0.0882427
0.0887448
0.0892661
0.0898109
0.090385
0.0909969
0.0916595
0.0923939
0.0932417
0.0942732
0.0957326
0.0978512
0.0702025
0.0566373
0.0491748
0.0446899
0.0417979
0.0398287
0.038429
0.0374119
0.0366385
0.0361239
0.083355
0.0716011
0.0631501
0.056776
0.0518079
0.0478353
0.0445876
0.0418777
0.0395577
0.0377003
0.115292
0.137277
0.13602
0.126784
0.11582
0.105427
0.0963462
0.0887297
0.082521
0.0776016
0.0738438
0.0711255
0.0693314
0.0683511
0.0681353
0.068578
0.0694874
0.0706692
0.0719751
0.0733089
0.0746153
0.0758664
0.0770505
0.0781632
0.079202
0.0801638
0.0810428
0.0818303
0.0825154
0.0830859
0.0835329
0.0838424
0.0840077
0.08404
0.0839631
0.0838089
0.0836088
0.0833932
0.0831871
0.083011
0.0828795
0.0828021
0.0827855
0.0828311
0.0829398
0.0831083
0.0833322
0.0836059
0.0839222
0.0842745
0.0846566
0.0850618
0.0854857
0.0859245
0.0863756
0.0868384
0.0873124
0.0877979
0.088296
0.0888086
0.0893387
0.0898903
0.0904691
0.0910832
0.0917454
0.092477
0.09332
0.0943463
0.0958034
0.0979266
0.0701915
0.0565836
0.0490989
0.0446027
0.0417057
0.0397355
0.0383372
0.0373234
0.0365555
0.036049
0.0833537
0.0715984
0.0631464
0.0567717
0.0518034
0.0478311
0.0445844
0.0418767
0.0395606
0.0377087
0.115372
0.137311
0.13598
0.126682
0.115677
0.105271
0.0962033
0.0886277
0.0824874
0.0776628
0.0740235
0.0714433
0.0698033
0.0690061
0.069014
0.0696432
0.070673
0.0719142
0.0732361
0.0745606
0.0758458
0.0770725
0.0782338
0.079328
0.0803545
0.0813097
0.0821864
0.0829724
0.0836541
0.0842202
0.0846522
0.08492
0.0850146
0.0849507
0.0847622
0.084491
0.0841791
0.0838628
0.0835727
0.0833297
0.0831495
0.0830399
0.0830054
0.0830461
0.0831588
0.0833393
0.0835801
0.0838737
0.0842119
0.0845866
0.08499
0.0854159
0.0858587
0.0863143
0.0867799
0.0872546
0.0877378
0.0882304
0.0887343
0.0892515
0.0897847
0.0903375
0.0909153
0.0915252
0.0921784
0.0928935
0.0937095
0.0946947
0.0960904
0.0981386
0.0701027
0.0563393
0.0487742
0.0442389
0.0413268
0.0393556
0.0379651
0.0369644
0.036214
0.0357293
0.0833524
0.0715957
0.0631428
0.0567675
0.0517989
0.0478267
0.0445808
0.0418744
0.039561
0.0377107
0.115192
0.13701
0.135719
0.126555
0.115747
0.105639
0.0969859
0.0899306
0.0843932
0.08022
0.0772407
0.0752888
0.0742127
0.073922
0.0742605
0.0750387
0.0760735
0.0772303
0.0784238
0.0796033
0.0807397
0.0818153
0.082815
0.0837366
0.0845739
0.0853001
0.0858714
0.0862326
0.0863281
0.0861626
0.085827
0.085434
0.0850144
0.0846275
0.0842933
0.0840094
0.0837727
0.0835846
0.083449
0.0833709
0.0833523
0.0833956
0.0834996
0.083663
0.0838824
0.0841528
0.0844687
0.0848231
0.0852087
0.0856193
0.0860484
0.0864905
0.0869418
0.0873996
0.0878624
0.0883303
0.0888046
0.0892866
0.089779
0.0902844
0.0908059
0.0913472
0.0919128
0.0925095
0.093148
0.093846
0.0946417
0.0956086
0.0969949
0.0990325
0.0700662
0.0558422
0.0480191
0.0433337
0.0403388
0.0383292
0.0369302
0.0359416
0.035218
0.0347698
0.0833512
0.0715933
0.0631396
0.0567639
0.0517957
0.0478251
0.0445834
0.0418861
0.0396015
0.0376379
0.0362719
0.0350861
0.0338838
0.0326799
0.0315643
0.0305364
0.0296
0.0287589
0.0280156
0.0273704
0.0268212
0.026364
0.025993
0.0257016
0.0254819
0.025325
0.0252213
0.0251624
0.0251411
0.0251514
0.0251882
0.0252474
0.0253255
0.02542
0.0255286
0.0256493
0.0257798
0.0259167
0.0260547
0.0261879
0.0265701
0.0271588
0.0278681
0.0286126
0.0293187
0.0299318
0.0304189
0.0307675
0.0309811
0.031074
0.0310666
0.0309815
0.0308403
0.0306626
0.0304629
0.030252
0.0300374
0.0298247
0.0296183
0.0294215
0.0292371
0.0290671
0.0289133
0.0287769
0.0286588
0.0285597
0.0284801
0.0284202
0.0283803
0.0283601
0.0283593
0.0283772
0.0284126
0.0284636
0.0285276
0.0286
0.0286736
0.0287335
0.0287541
0.0287479
0.0287045
0.0286807
0.0286932
0.0287444
0.028832
0.0289535
0.0291056
0.0292907
0.0294932
0.0297773
0.08335
0.0715908
0.0631362
0.05676
0.0517914
0.0478208
0.0445796
0.0418835
0.0396013
0.037639
0.0359321
0.0344307
0.0330954
0.0318985
0.030822
0.0298551
0.0289908
0.0282252
0.0275546
0.0269754
0.0264829
0.0260715
0.0257346
0.0254654
0.0252568
0.0251013
0.0249913
0.0249203
0.024883
0.0248751
0.0248933
0.0249348
0.0249974
0.0250795
0.0251797
0.0252968
0.0254297
0.0255758
0.0257305
0.0258855
0.0260294
0.0261552
0.0262622
0.0263482
0.026411
0.0264483
0.0264581
0.0264387
0.0263908
0.0263171
0.0262226
0.0261138
0.0259983
0.0258836
0.0257764
0.0256821
0.025605
0.0255478
0.0255121
0.025498
0.0255058
0.0255345
0.0255828
0.0256484
0.0257285
0.0258211
0.0259243
0.0260365
0.0261564
0.0262832
0.0264163
0.0265554
0.0267004
0.0268515
0.0270088
0.0271725
0.0273413
0.0275144
0.0276914
0.0278703
0.0280507
0.0282345
0.0284237
0.0286192
0.0288215
0.0290315
0.0292497
0.0294811
0.0297139
0.0300018
0.0833488
0.0715882
0.0631326
0.0567556
0.0517867
0.0478161
0.0445757
0.0418813
0.0396025
0.0376449
0.0359402
0.0344376
0.0330994
0.0318993
0.0308201
0.029851
0.0289855
0.0282195
0.0275495
0.0269718
0.0264815
0.0260728
0.0257394
0.0254741
0.0252694
0.0251168
0.0250088
0.0249391
0.0249027
0.0248956
0.0249149
0.0249585
0.0250251
0.0251138
0.0252245
0.0253573
0.0255123
0.0256886
0.0258828
0.0260835
0.0262736
0.0264342
0.0265505
0.0266153
0.0266273
0.0265911
0.026514
0.0264049
0.0262731
0.0261274
0.0259762
0.0258271
0.0256869
0.0255612
0.0254529
0.025366
0.0253033
0.0252664
0.0252557
0.025271
0.0253111
0.0253743
0.0254584
0.0255609
0.0256793
0.0258109
0.0259536
0.0261053
0.026265
0.0264313
0.0266031
0.0267797
0.0269606
0.0271452
0.0273333
0.0275247
0.0277187
0.0279149
0.0281125
0.0283104
0.0285077
0.0287046
0.028902
0.0291008
0.0293019
0.029507
0.0297172
0.0299384
0.03016
0.0304364
0.0833473
0.0715851
0.0631281
0.05675
0.0517801
0.0478086
0.0445674
0.0418723
0.0395926
0.0376337
0.0359264
0.03442
0.0330775
0.0318732
0.0307901
0.0298175
0.0289489
0.0281801
0.0275077
0.0269279
0.0264357
0.0260253
0.0256902
0.025423
0.0252161
0.0250617
0.0249521
0.0248811
0.0248437
0.0248361
0.0248559
0.0249014
0.0249718
0.0250673
0.0251886
0.025338
0.0255182
0.0257319
0.025979
0.0262445
0.0265008
0.0267173
0.0268704
0.0269504
0.0269572
0.0268988
0.0267872
0.0266361
0.0264592
0.0262693
0.0260757
0.0258882
0.0257158
0.0255659
0.0254438
0.0253539
0.0252993
0.0252817
0.0253023
0.0253611
0.0254571
0.0255885
0.0257525
0.0259458
0.0261642
0.0264032
0.0266609
0.0269319
0.0272104
0.0274917
0.0277717
0.0280469
0.0283147
0.0285732
0.0288211
0.0290575
0.0292821
0.029495
0.0296963
0.0298865
0.030066
0.0302359
0.0303979
0.0305541
0.0307071
0.0308599
0.0310152
0.031181
0.0313478
0.0315769
0.0833456
0.0715813
0.0631226
0.056743
0.0517718
0.0477991
0.0445568
0.0418607
0.0395802
0.0376204
0.0359115
0.0344028
0.0330573
0.0318496
0.0307627
0.0297861
0.0289134
0.0281406
0.0274643
0.0268805
0.0263845
0.0259705
0.0256316
0.0253606
0.0251496
0.0249909
0.0248771
0.024802
0.0247607
0.0247498
0.024767
0.0248112
0.0248819
0.0249801
0.0251077
0.0252697
0.0254728
0.0257268
0.026045
0.0264121
0.0267811
0.0270928
0.0273073
0.0274186
0.0274295
0.0273545
0.0272137
0.0270291
0.0268223
0.0266136
0.0264183
0.0262537
0.0261378
0.0260856
0.0261105
0.0262222
0.026427
0.0267263
0.0271152
0.0275824
0.0281116
0.0286825
0.0292731
0.0298623
0.0304315
0.0309659
0.0314569
0.0318954
0.0322775
0.0326026
0.0328728
0.0330921
0.0332651
0.0333972
0.0334939
0.0335603
0.0336013
0.0336215
0.033625
0.0336155
0.0335963
0.0335706
0.0335419
0.0335134
0.0334885
0.0334715
0.0334654
0.03348
0.0335061
0.0336146
0.0833435
0.0715768
0.0631159
0.0567344
0.0517614
0.047787
0.044543
0.0418452
0.0395628
0.0376008
0.0358893
0.0343774
0.0330284
0.0318168
0.0307259
0.0297452
0.0288683
0.028091
0.0274101
0.0268216
0.0263207
0.0259015
0.0255571
0.0252801
0.0250628
0.0248975
0.0247773
0.024696
0.024649
0.0246328
0.0246454
0.0246859
0.0247543
0.024852
0.0249821
0.025153
0.025376
0.0256774
0.0261496
0.0268265
0.0276028
0.02825
0.0286101
0.0288569
0.0290174
0.0291324
0.0292483
0.0294111
0.0296612
0.0300298
0.0305445
0.0312146
0.0320221
0.0329367
0.033921
0.0349354
0.0359415
0.0369042
0.0377947
0.0385909
0.0392771
0.0398456
0.0402941
0.0406256
0.0408471
0.040968
0.0409953
0.0409454
0.040831
0.0406632
0.0404522
0.0402073
0.0399369
0.039648
0.0393467
0.0390384
0.0387274
0.0384174
0.0381116
0.0378128
0.0375232
0.0372452
0.0369809
0.0367328
0.0365033
0.0362958
0.0361125
0.0359641
0.0358404
0.035821
0.0833411
0.0715716
0.0631083
0.0567246
0.0517496
0.0477733
0.0445273
0.0418276
0.0395432
0.0375789
0.035865
0.0343502
0.0329979
0.0317827
0.0306878
0.0297028
0.0288213
0.028039
0.0273526
0.0267582
0.026251
0.0258249
0.0254732
0.0251884
0.0249628
0.0247889
0.02466
0.0245701
0.0245147
0.0244904
0.0244952
0.0245282
0.0245892
0.0246798
0.0248025
0.0249682
0.0251907
0.0255455
0.026793
0.0294854
0.0332515
0.0368533
0.0395076
0.0417865
0.043945
0.045828
0.0473744
0.0486042
0.0495816
0.050385
0.0510808
0.0517132
0.0522759
0.052762
0.0531631
0.0534695
0.0536725
0.053766
0.0537466
0.0536156
0.0533777
0.0530405
0.0526143
0.0521107
0.0515421
0.0509209
0.0502592
0.0495667
0.048854
0.048131
0.0474056
0.0466843
0.0459731
0.045276
0.0445966
0.0439374
0.0433008
0.0426886
0.0421023
0.0415428
0.0410113
0.0405086
0.0400358
0.0395942
0.0391851
0.0388114
0.0384744
0.0381852
0.0379328
0.0378051
0.0833387
0.0715663
0.0631004
0.0567144
0.0517372
0.0477587
0.0445106
0.0418086
0.0395218
0.0375549
0.035838
0.0343199
0.0329639
0.0317446
0.0306453
0.0296555
0.0287687
0.0279808
0.0272881
0.0266868
0.026172
0.0257378
0.0253772
0.0250828
0.0248471
0.0246626
0.0245229
0.0244222
0.024356
0.0243211
0.0243154
0.0243382
0.0243894
0.024471
0.0245833
0.0247392
0.0249435
0.0255216
0.0321075
0.0466503
0.0638314
0.0773385
0.0851239
0.0885882
0.0890728
0.0878676
0.085982
0.0840187
0.0822502
0.0806465
0.0791695
0.0777839
0.0764584
0.0751686
0.073896
0.0726267
0.0713512
0.0700629
0.068759
0.0674394
0.0661058
0.0647626
0.0634149
0.0620685
0.0607301
0.0594059
0.0581021
0.0568243
0.0555773
0.0543653
0.0531915
0.0520587
0.0509683
0.0499218
0.0489202
0.047964
0.0470531
0.0461874
0.045367
0.0445912
0.0438596
0.0431719
0.0425281
0.0419284
0.0413733
0.0408648
0.0404036
0.0400012
0.0396457
0.0394318
0.0833364
0.0715612
0.0630929
0.0567046
0.0517252
0.0477446
0.0444943
0.04179
0.0395006
0.037531
0.035811
0.0342894
0.0329295
0.0317059
0.0306017
0.0296066
0.0287139
0.0279194
0.0272194
0.0266099
0.026086
0.0256417
0.0252703
0.0249644
0.0247164
0.0245193
0.0243666
0.0242524
0.0241722
0.0241227
0.024102
0.02411
0.0241467
0.0242141
0.0243076
0.0244359
0.0245651
0.0260989
0.0569823
0.100754
0.134481
0.150671
0.150819
0.14277
0.132748
0.123899
0.117173
0.112426
0.108696
0.105445
0.102407
0.0994693
0.0965958
0.0937833
0.0910394
0.0883711
0.085783
0.0832768
0.0808511
0.0785045
0.0762349
0.0740403
0.0719198
0.0698725
0.0678985
0.0659977
0.0641704
0.0624171
0.0607374
0.0591312
0.0575979
0.0561368
0.0547466
0.0534261
0.0521736
0.0509873
0.0498654
0.0488059
0.0478067
0.0468662
0.0459827
0.0451549
0.0443819
0.0436632
0.0429985
0.0423892
0.0418355
0.041349
0.0409172
0.0406407
0.0833344
0.0715568
0.0630864
0.0566961
0.0517147
0.0477319
0.0444794
0.0417727
0.0394808
0.0375082
0.0357849
0.0342596
0.0328955
0.031667
0.0305574
0.0295561
0.0286566
0.0278544
0.0271458
0.0265266
0.0259919
0.0255358
0.0251515
0.0248318
0.0245695
0.0243576
0.0241895
0.0240592
0.0239618
0.0238942
0.023855
0.0238464
0.0238726
0.0239429
0.0240609
0.0242502
0.0244561
0.0262101
0.0607124
0.109165
0.146126
0.162208
0.162799
0.155581
0.146438
0.138551
0.133062
0.128869
0.125175
0.121554
0.117849
0.114053
0.110217
0.106404
0.102668
0.0990461
0.0955601
0.0922196
0.089027
0.085979
0.0830707
0.080296
0.0776491
0.0751242
0.0727169
0.0704231
0.0682386
0.0661604
0.064185
0.0623093
0.0605302
0.0588447
0.0572497
0.0557417
0.0543178
0.0529745
0.0517088
0.0505175
0.0493977
0.0483469
0.0473623
0.0464419
0.045584
0.0447871
0.0440504
0.0433752
0.042761
0.0422196
0.0417383
0.0414215
0.0833329
0.0715534
0.0630813
0.0566893
0.051706
0.0477214
0.0444668
0.0417578
0.0394632
0.0374877
0.0357611
0.0342319
0.0328632
0.0316295
0.0305139
0.0295056
0.0285982
0.027787
0.0270682
0.0264375
0.02589
0.0254196
0.0250198
0.0246837
0.0244042
0.0241746
0.0239886
0.0238391
0.0237206
0.0236293
0.0235648
0.0235339
0.0235496
0.0236451
0.0238608
0.0242879
0.024779
0.0265726
0.0596988
0.10829
0.146272
0.163167
0.164626
0.158261
0.150015
0.143142
0.138554
0.135072
0.131841
0.128431
0.124718
0.120747
0.116623
0.112455
0.108331
0.104312
0.100436
0.0967207
0.0931743
0.089796
0.0865808
0.0835222
0.0806135
0.0778479
0.0752194
0.0727222
0.0703511
0.0681017
0.0659691
0.0639494
0.0620383
0.0602319
0.0585263
0.0569173
0.055401
0.0539734
0.0526306
0.0513689
0.050185
0.0490755
0.0480375
0.0470683
0.0461658
0.0453284
0.0445549
0.0438462
0.0432016
0.0426328
0.0421271
0.0417908
0.0833319
0.0715511
0.0630777
0.0566843
0.0516995
0.0477133
0.0444568
0.0417456
0.0394485
0.0374701
0.03574
0.0342069
0.0328336
0.0315944
0.0304722
0.0294564
0.02854
0.0277185
0.026988
0.0263439
0.0257811
0.0252938
0.0248756
0.0245198
0.02422
0.0239702
0.0237636
0.0235927
0.0234494
0.0233283
0.0232306
0.0231722
0.0231903
0.02339
0.0239558
0.0252001
0.0264581
0.0283209
0.0557011
0.0999384
0.136243
0.154405
0.157085
0.151752
0.144268
0.137817
0.133655
0.130865
0.128435
0.125817
0.122816
0.119438
0.115785
0.111977
0.108121
0.104297
0.100559
0.0969386
0.0934541
0.0901128
0.086916
0.083862
0.0809478
0.0781692
0.0755228
0.0730046
0.0706105
0.068337
0.0661804
0.0641371
0.0622034
0.0603759
0.0586506
0.0570236
0.0554908
0.0540485
0.0526924
0.051419
0.0502247
0.0491061
0.0480601
0.0470839
0.0461755
0.045333
0.0445551
0.0438427
0.043195
0.0426238
0.0421161
0.041779
0.0833314
0.0715499
0.0630755
0.0566811
0.0516951
0.0477074
0.0444492
0.0417359
0.0394365
0.0374553
0.0357219
0.0341848
0.0328068
0.031562
0.030433
0.0294089
0.0284828
0.0276498
0.0269058
0.026246
0.0256653
0.0251578
0.0247172
0.0243377
0.0240138
0.02374
0.0235111
0.0233173
0.0231467
0.0229921
0.0228582
0.0227854
0.0228807
0.0234665
0.0251945
0.0287848
0.0315566
0.033195
0.035097
0.0411083
0.0541134
0.0691325
0.0821873
0.0924523
0.0995904
0.104431
0.107825
0.110075
0.111303
0.111561
0.110919
0.109498
0.107459
0.104973
0.102193
0.0992439
0.0962174
0.0931788
0.0901711
0.0872234
0.0843541
0.0815741
0.0788908
0.0763086
0.0738297
0.0714558
0.0691869
0.0670227
0.0649622
0.0630041
0.0611467
0.0593878
0.0577248
0.0561546
0.0546738
0.0532794
0.0519676
0.0507353
0.0495792
0.0484962
0.0474834
0.0465384