/*--------------------------------*- C++ -*----------------------------------*\
| =========                 |                                                 |
| \\      /  F ield         | OpenFOAM: The Open Source CFD Toolbox           |
|  \\    /   O peration     | Version:  v2012                                 |
|   \\  /    A nd           | Website:  www.openfoam.com                      |
|    \\/     M anipulation  |                                                 |
\*---------------------------------------------------------------------------*/
FoamFile
{
    version     2.0;
    format      ascii;
    class       volScalarField;
    location    "50/air";
    object      nut;
}
// * * * * * * * * * * * * * * * * * * * * * * * * * * * * * * * * * * * * * //

dimensions      [0 2 -1 0 0 0 0];


internalField   nonuniform List<scalar> 
287104
(
0.00648446
0.00601125
0.00564686
0.00535595
0.00511815
0.00492026
0.00475314
0.00461015
0.0044863
0.00437773
0.00428139
0.0041949
0.00411642
0.00404459
0.0039785
0.00391756
0.00386153
0.00381033
0.00376402
0.00372267
0.00368631
0.00365489
0.00362831
0.0036063
0.00358859
0.00357462
0.00356383
0.00355569
0.00354974
0.00354556
0.00354281
0.0035412
0.00354048
0.00354045
0.00354092
0.00354176
0.00354283
0.00354404
0.0035453
0.00354656
0.00354777
0.0035489
0.00354995
0.00355094
0.00355187
0.00355279
0.00355373
0.00355473
0.00355582
0.00355705
0.00355845
0.00356005
0.00356189
0.00356401
0.00356643
0.00356921
0.00357239
0.00357599
0.00358004
0.00358456
0.00358954
0.00359498
0.00360086
0.00360714
0.00361379
0.00362075
0.00362798
0.00363543
0.00364306
0.00365084
0.00365875
0.0036668
0.00367503
0.00368341
0.0036919
0.00370055
0.00370943
0.00371851
0.00372775
0.0037372
0.00374689
0.0037568
0.0037669
0.00377725
0.00378788
0.00379887
0.00381027
0.00382237
0.0038353
0.00384948
0.00648433
0.00601099
0.00564646
0.00535546
0.00511756
0.00491958
0.00475237
0.00460929
0.00448533
0.00437663
0.00428015
0.00419352
0.00411491
0.004043
0.00397689
0.00391603
0.00386016
0.00380921
0.00376323
0.00372227
0.00368633
0.00365533
0.00362914
0.00360747
0.00359001
0.00357621
0.00356552
0.00355741
0.00355144
0.00354721
0.00354438
0.00354268
0.00354185
0.00354169
0.00354203
0.00354273
0.00354366
0.00354471
0.00354578
0.00354682
0.00354778
0.00354863
0.00354939
0.00355007
0.00355071
0.00355133
0.00355198
0.00355272
0.00355357
0.00355458
0.00355579
0.00355725
0.00355907
0.00356114
0.00356347
0.0035661
0.00356909
0.00357248
0.00357632
0.00358062
0.00358538
0.00359062
0.00359629
0.00360236
0.00360879
0.00361552
0.00362249
0.00362967
0.00363702
0.00364453
0.00365219
0.00365999
0.00366792
0.003676
0.00368424
0.00369271
0.00370137
0.00371021
0.00371925
0.00372852
0.00373801
0.00374767
0.00375752
0.00376761
0.00377796
0.0037886
0.00379963
0.00381135
0.00382385
0.00383754
0.00648428
0.00601086
0.00564629
0.00535521
0.00511726
0.00491922
0.00475196
0.00460882
0.0044848
0.00437604
0.0042795
0.00419281
0.00411417
0.00404223
0.00397611
0.00391525
0.0038594
0.0038085
0.00376258
0.0037217
0.00368585
0.00365496
0.00362889
0.00360737
0.00359004
0.00357634
0.00356572
0.00355767
0.00355174
0.00354753
0.00354473
0.00354305
0.00354224
0.00354212
0.00354249
0.00354321
0.00354415
0.00354521
0.00354632
0.00354739
0.0035484
0.00354931
0.0035501
0.00355081
0.00355146
0.00355211
0.00355278
0.00355352
0.00355439
0.00355541
0.00355656
0.00355788
0.00355942
0.00356121
0.0035633
0.00356574
0.00356857
0.00357182
0.00357553
0.00357971
0.00358438
0.00358952
0.00359511
0.0036011
0.00360745
0.0036141
0.00362101
0.00362813
0.00363545
0.00364291
0.00365051
0.00365822
0.00366606
0.00367406
0.00368227
0.00369066
0.00369922
0.003708
0.00371703
0.0037263
0.00373579
0.00374554
0.00375557
0.0037659
0.00377655
0.0037876
0.00379915
0.00381148
0.00382459
0.00383904
0.00648422
0.00601074
0.00564607
0.0053549
0.00511686
0.00491874
0.00475139
0.00460816
0.00448404
0.00437518
0.00427855
0.00419178
0.00411307
0.00404107
0.00397489
0.003914
0.00385814
0.00380726
0.00376139
0.00372058
0.00368481
0.00365403
0.00362808
0.00360673
0.00358957
0.00357603
0.00356555
0.00355764
0.00355184
0.00354777
0.0035451
0.00354354
0.00354287
0.00354287
0.00354338
0.00354423
0.00354531
0.0035465
0.00354772
0.0035489
0.00355
0.00355101
0.0035519
0.00355271
0.00355344
0.00355414
0.00355484
0.00355558
0.00355639
0.00355731
0.00355837
0.0035596
0.00356104
0.00356274
0.00356473
0.00356705
0.00356976
0.00357289
0.00357648
0.00358054
0.00358509
0.00359013
0.00359562
0.00360154
0.00360782
0.00361442
0.00362129
0.00362837
0.00363563
0.00364303
0.00365056
0.00365824
0.00366606
0.00367404
0.00368219
0.00369053
0.00369909
0.0037079
0.00371696
0.00372627
0.00373585
0.00374573
0.00375594
0.00376649
0.00377744
0.00378887
0.00380084
0.0038136
0.00382715
0.00384222
0.00648417
0.00601061
0.00564587
0.00535463
0.0051165
0.0049183
0.00475087
0.00460754
0.00448333
0.00437437
0.00427765
0.00419081
0.00411202
0.00403996
0.00397373
0.00391281
0.00385694
0.00380607
0.00376023
0.00371947
0.00368377
0.00365309
0.00362727
0.00360614
0.00358919
0.00357583
0.00356551
0.00355774
0.00355208
0.00354813
0.00354558
0.00354414
0.00354358
0.00354369
0.00354431
0.00354527
0.00354645
0.00354774
0.00354904
0.0035503
0.00355146
0.0035525
0.00355342
0.00355423
0.00355496
0.00355563
0.00355629
0.00355697
0.00355771
0.00355855
0.00355951
0.00356064
0.00356197
0.00356354
0.0035654
0.0035676
0.00357018
0.00357319
0.00357667
0.00358063
0.0035851
0.00359005
0.00359547
0.00360132
0.00360754
0.00361408
0.00362089
0.00362791
0.00363511
0.00364247
0.00364997
0.0036576
0.00366538
0.00367331
0.00368142
0.00368976
0.00369832
0.00370713
0.0037162
0.00372553
0.00373515
0.00374509
0.00375536
0.003766
0.00377707
0.00378864
0.00380075
0.00381368
0.00382737
0.00384275
0.00648411
0.00601047
0.00564565
0.00535433
0.00511611
0.00491781
0.00475026
0.00460682
0.00448249
0.00437343
0.00427661
0.00418969
0.00411085
0.00403875
0.0039725
0.00391157
0.00385571
0.00380486
0.00375905
0.00371834
0.0036827
0.0036521
0.0036264
0.00360541
0.00358857
0.00357532
0.0035651
0.00355743
0.00355186
0.00354802
0.00354557
0.00354425
0.00354381
0.00354405
0.00354479
0.00354588
0.00354718
0.00354859
0.00355001
0.00355137
0.00355262
0.00355375
0.00355473
0.00355559
0.00355634
0.00355702
0.00355767
0.00355832
0.003559
0.00355976
0.00356064
0.00356167
0.00356288
0.00356434
0.00356608
0.00356816
0.00357063
0.00357353
0.00357691
0.00358079
0.00358517
0.00359006
0.00359542
0.00360121
0.00360739
0.00361389
0.00362066
0.00362767
0.00363486
0.00364221
0.00364971
0.00365733
0.00366511
0.00367306
0.0036812
0.00368957
0.00369816
0.00370698
0.00371606
0.0037254
0.00373501
0.0037449
0.00375512
0.00376572
0.00377675
0.00378828
0.00380037
0.00381332
0.003827
0.00384254
0.00648405
0.00601034
0.00564544
0.00535404
0.00511572
0.0049173
0.00474962
0.00460604
0.00448155
0.00437232
0.00427535
0.00418831
0.00410938
0.00403723
0.00397094
0.00390999
0.00385411
0.00380324
0.00375743
0.00371672
0.00368109
0.00365048
0.00362476
0.00360375
0.00358691
0.00357367
0.00356348
0.00355584
0.00355033
0.00354656
0.0035442
0.00354298
0.00354265
0.00354302
0.00354388
0.0035451
0.00354654
0.00354808
0.00354963
0.00355111
0.00355247
0.00355369
0.00355475
0.00355567
0.00355647
0.00355717
0.00355781
0.00355844
0.00355908
0.00355979
0.00356058
0.00356152
0.00356264
0.00356399
0.00356562
0.00356759
0.00356996
0.00357278
0.00357607
0.00357988
0.00358421
0.00358905
0.00359439
0.00360016
0.00360633
0.00361284
0.00361962
0.00362663
0.00363383
0.00364118
0.00364866
0.0036563
0.00366409
0.00367207
0.00368025
0.00368863
0.00369725
0.00370612
0.00371523
0.00372459
0.00373417
0.00374401
0.00375416
0.00376469
0.00377565
0.00378714
0.00379922
0.00381218
0.00382583
0.00384151
0.006484
0.00601021
0.00564523
0.00535374
0.00511532
0.00491678
0.00474895
0.00460521
0.00448054
0.00437114
0.00427407
0.004187
0.00410807
0.00403593
0.00396964
0.00390865
0.00385272
0.00380178
0.00375587
0.00371503
0.00367926
0.00364848
0.00362257
0.00360136
0.00358434
0.00357093
0.00356061
0.00355289
0.00354733
0.00354355
0.00354123
0.00354008
0.00353986
0.00354036
0.00354138
0.00354278
0.00354441
0.00354615
0.0035479
0.00354958
0.00355113
0.00355252
0.00355373
0.00355478
0.00355568
0.00355645
0.00355715
0.0035578
0.00355844
0.00355911
0.00355985
0.00356071
0.00356174
0.003563
0.00356454
0.00356642
0.00356869
0.00357143
0.00357465
0.00357841
0.00358271
0.00358752
0.00359284
0.00359862
0.00360479
0.0036113
0.0036181
0.00362511
0.0036323
0.00363966
0.00364718
0.00365484
0.00366267
0.00367068
0.00367889
0.00368732
0.00369599
0.0037049
0.00371402
0.00372332
0.00373277
0.00374244
0.00375245
0.00376286
0.00377374
0.00378519
0.00379728
0.00381028
0.00382397
0.0038399
0.00648395
0.00601009
0.00564503
0.00535343
0.00511489
0.00491619
0.00474816
0.00460413
0.00447907
0.00436917
0.00427223
0.00418603
0.00410833
0.00403738
0.00397201
0.00391151
0.0038556
0.00380424
0.00375754
0.00371562
0.0036786
0.00364647
0.00361917
0.0035967
0.00357863
0.00356444
0.00355362
0.00354567
0.00354014
0.00353662
0.00353473
0.00353416
0.0035346
0.0035358
0.00353755
0.00353963
0.00354189
0.00354418
0.00354639
0.00354843
0.00355023
0.00355177
0.00355304
0.00355406
0.00355486
0.00355549
0.00355599
0.00355641
0.00355681
0.00355723
0.00355772
0.00355835
0.00355916
0.00356023
0.00356161
0.00356338
0.00356558
0.00356828
0.00357152
0.00357532
0.00357971
0.00358465
0.00359011
0.00359606
0.00360242
0.00360912
0.00361612
0.00362337
0.0036308
0.00363837
0.00364607
0.00365387
0.0036618
0.00366988
0.00367814
0.00368658
0.00369522
0.00370402
0.00371292
0.00372171
0.00373043
0.0037394
0.00374885
0.00375887
0.00376949
0.0037808
0.00379284
0.0038059
0.00381965
0.00383595
0.0064839
0.00600997
0.00564483
0.00535313
0.00511447
0.00491562
0.00474739
0.00460311
0.00447767
0.00436749
0.00432889
0.00430569
0.00427383
0.00422876
0.0041726
0.00410926
0.00404264
0.003976
0.00391191
0.00385232
0.00379864
0.00375181
0.00371235
0.00368066
0.00365662
0.00363989
0.00362985
0.00362558
0.00362597
0.00362987
0.00363619
0.00364399
0.00365245
0.00366092
0.0036689
0.003676
0.00368194
0.00368653
0.00368967
0.00369132
0.0036915
0.00369034
0.00368799
0.00368468
0.00368065
0.00367618
0.00367154
0.003667
0.00366282
0.00365922
0.00365641
0.00365456
0.00365379
0.00365419
0.00365582
0.0036587
0.00366283
0.00366816
0.00367466
0.0036822
0.00369067
0.00369994
0.00370983
0.00372016
0.00373082
0.00374158
0.00375235
0.00376306
0.00377358
0.00378385
0.00379384
0.00380354
0.0038129
0.00382187
0.00383034
0.00383812
0.00384485
0.00384973
0.00385139
0.00384502
0.00382932
0.00381753
0.00381032
0.00380709
0.00380723
0.00381025
0.0038157
0.00382357
0.003833
0.00384666
0.00648386
0.00600986
0.00564463
0.00535282
0.00511401
0.00491495
0.00474634
0.00460138
0.00447413
0.00437035
0.00766315
0.00836635
0.00833438
0.00805449
0.00770677
0.00736078
0.00704336
0.00676423
0.00652622
0.00632931
0.00617222
0.00605295
0.00596895
0.00591672
0.00589608
0.00590328
0.00593067
0.00597008
0.00601514
0.00606162
0.00610697
0.00614986
0.00618963
0.00622605
0.00625913
0.00628897
0.00631572
0.00633954
0.00636057
0.00637893
0.00639477
0.00640827
0.00641961
0.00642904
0.00643677
0.0064431
0.00644827
0.00645259
0.00645636
0.00645994
0.00646365
0.0064678
0.00647266
0.00647841
0.00648523
0.00649315
0.00650226
0.00651246
0.0065237
0.00653588
0.0065488
0.00656237
0.00657649
0.00659097
0.00660582
0.00662101
0.00663646
0.00665225
0.0066685
0.00668525
0.00670259
0.00672069
0.00673969
0.00675982
0.00678142
0.0068051
0.00683217
0.00686504
0.00691217
0.00698262
0.00589799
0.00528464
0.00491475
0.00467885
0.00452084
0.00441061
0.00433107
0.0042726
0.00422732
0.00419527
0.00648382
0.00600976
0.00564445
0.00535255
0.00511363
0.00491442
0.00474562
0.00460042
0.00447283
0.0043687
0.00766249
0.00836705
0.00833309
0.00804876
0.00769514
0.00734236
0.00701764
0.00673107
0.0064857
0.00628178
0.00611828
0.00599348
0.00590501
0.00584991
0.00582415
0.00582694
0.00585344
0.00589547
0.00594531
0.00599737
0.00604828
0.00609623
0.00614039
0.00618055
0.00621675
0.00624919
0.00627813
0.00630379
0.00632637
0.00634604
0.00636299
0.00637738
0.00638945
0.00639944
0.00640762
0.0064143
0.00641981
0.00642447
0.00642862
0.00643258
0.00643671
0.00644128
0.00644656
0.00645269
0.00645982
0.006468
0.00647723
0.00648752
0.00649871
0.00651073
0.00652347
0.00653675
0.0065505
0.00656464
0.00657907
0.00659383
0.00660894
0.00662437
0.00664025
0.00665668
0.00667378
0.00669167
0.00671053
0.00673059
0.00675224
0.0067761
0.00680346
0.00683659
0.00688374
0.00695314
0.00589073
0.00529313
0.00493484
0.00470757
0.00455594
0.00445042
0.00437435
0.00431844
0.00427503
0.00424455
0.00648378
0.00600966
0.00564428
0.00535229
0.00511326
0.0049139
0.00474491
0.00459943
0.00447146
0.00436682
0.0076547
0.00835951
0.00832698
0.00804401
0.00769131
0.00733892
0.00701408
0.00672695
0.00648072
0.00627575
0.00611116
0.00598535
0.00589607
0.00584045
0.00581429
0.0058183
0.00584563
0.00588798
0.00593793
0.00599017
0.00604144
0.00608992
0.00613474
0.00617563
0.00621257
0.00624574
0.00627533
0.00630154
0.00632454
0.00634447
0.00636148
0.00637571
0.00638742
0.00639683
0.00640431
0.0064102
0.0064149
0.00641875
0.00642213
0.00642538
0.00642885
0.00643284
0.00643755
0.00644322
0.00644989
0.0064577
0.00646663
0.00647666
0.00648774
0.00649969
0.00651245
0.00652586
0.00653973
0.00655405
0.00656872
0.00658367
0.00659899
0.0066147
0.00663086
0.00664758
0.00666498
0.00668323
0.0067025
0.00672308
0.00674543
0.00677025
0.00679895
0.00683393
0.0068836
0.00695571
0.00589695
0.00530212
0.0049456
0.00471927
0.00456803
0.00446258
0.00438639
0.0043303
0.00428674
0.00425635
0.00648374
0.00600956
0.00564412
0.00535206
0.00511294
0.00491348
0.00474437
0.00459876
0.00447063
0.00436583
0.00765171
0.00835647
0.00832412
0.00804118
0.00768833
0.00733564
0.00701041
0.00672286
0.00647624
0.00627095
0.00610616
0.0059803
0.00589115
0.00583585
0.00581019
0.005815
0.00584309
0.00588611
0.00593672
0.00598968
0.00604174
0.00609109
0.0061369
0.00617882
0.00621683
0.00625105
0.00628159
0.00630865
0.00633232
0.00635269
0.00636985
0.00638396
0.00639525
0.00640397
0.0064105
0.00641526
0.00641868
0.00642121
0.00642324
0.00642525
0.00642754
0.0064305
0.00643434
0.00643927
0.00644539
0.00645274
0.00646138
0.0064712
0.00648216
0.00649414
0.00650695
0.00652051
0.00653464
0.00654921
0.00656417
0.00657948
0.00659511
0.00661111
0.0066276
0.00664467
0.00666243
0.00668104
0.00670074
0.00672179
0.00674466
0.00677005
0.00679935
0.00683491
0.00688503
0.00695722
0.00589875
0.00530409
0.00494764
0.00472132
0.00457006
0.00446459
0.0043884
0.00433233
0.00428893
0.00425897
0.0064837
0.00600947
0.00564397
0.00535184
0.00511264
0.00491309
0.00474388
0.00459815
0.00446988
0.00436493
0.00764814
0.00835225
0.00831975
0.00803682
0.00768399
0.00733129
0.00700602
0.0067184
0.00647171
0.0062664
0.00610168
0.00597601
0.00588721
0.00583242
0.00580743
0.00581319
0.0058422
0.00588609
0.00593756
0.00599142
0.00604443
0.00609484
0.00614181
0.00618498
0.00622431
0.00625983
0.00629164
0.00631981
0.00634435
0.00636531
0.00638268
0.00639661
0.00640727
0.00641497
0.0064201
0.00642322
0.00642485
0.00642553
0.00642578
0.0064261
0.00642692
0.00642855
0.00643132
0.00643533
0.00644076
0.0064476
0.00645586
0.00646549
0.00647632
0.00648828
0.00650119
0.00651487
0.00652923
0.00654412
0.0065594
0.00657506
0.0065911
0.00660753
0.00662442
0.00664189
0.00666007
0.00667913
0.00669927
0.00672079
0.00674417
0.00677012
0.00680004
0.00683625
0.00688708
0.00695989
0.00590096
0.00530605
0.00494943
0.00472296
0.00457157
0.00446598
0.00438968
0.00433353
0.00429017
0.00426047
0.00648365
0.00600936
0.00564381
0.00535162
0.00511236
0.00491275
0.00474346
0.00459765
0.00446931
0.00436426
0.00764549
0.0083488
0.00831579
0.00803243
0.00767923
0.00732621
0.00700067
0.00671288
0.00646614
0.00626092
0.00609644
0.00597122
0.00588307
0.00582912
0.0058056
0.00581264
0.00584298
0.00588812
0.00594073
0.00599567
0.00604976
0.00610132
0.00614954
0.0061941
0.00623492
0.00627199
0.00630533
0.00633488
0.00636059
0.00638236
0.00640011
0.00641394
0.00642393
0.00643035
0.00643373
0.00643473
0.00643407
0.00643239
0.00643039
0.0064286
0.00642757
0.00642761
0.00642903
0.006432
0.0064366
0.00644291
0.00645081
0.00646027
0.00647112
0.00648316
0.00649624
0.00651021
0.00652487
0.00654011
0.00655586
0.00657196
0.00658842
0.00660531
0.00662267
0.00664057
0.00665916
0.0066786
0.00669912
0.00672099
0.00674469
0.00677095
0.00680119
0.00683769
0.00688878
0.00696185
0.00590208
0.00530665
0.0049497
0.00472303
0.00457151
0.00446583
0.00438949
0.00433335
0.00429013
0.00426079
0.00648361
0.00600925
0.00564364
0.00535141
0.0051121
0.00491243
0.00474311
0.00459727
0.00446891
0.00436383
0.00764388
0.00834633
0.00831249
0.00802834
0.00767441
0.00732076
0.00699475
0.00670665
0.00645981
0.00625472
0.00609065
0.00596612
0.00587897
0.00582625
0.00580497
0.00581405
0.00584644
0.00589336
0.00594747
0.00600368
0.00605899
0.00611181
0.0061614
0.00620752
0.00625007
0.00628904
0.00632431
0.00635571
0.006383
0.00640588
0.00642414
0.00643771
0.00644657
0.00645107
0.00645197
0.00645013
0.00644647
0.00644189
0.00643714
0.00643295
0.00642978
0.00642809
0.00642807
0.00642995
0.00643376
0.00643948
0.00644711
0.00645641
0.00646728
0.0064795
0.0064928
0.00650707
0.0065221
0.00653772
0.00655388
0.00657049
0.00658747
0.00660485
0.00662268
0.00664106
0.00666009
0.00667992
0.00670076
0.00672291
0.00674682
0.00677321
0.00680347
0.00683993
0.00689094
0.00696394
0.00590249
0.00530597
0.00494834
0.00472125
0.0045695
0.00446371
0.00438735
0.00433127
0.00428825
0.00425931
0.00648355
0.00600914
0.00564347
0.00535118
0.00511183
0.00491214
0.00474279
0.00459694
0.00446856
0.00436345
0.00764142
0.00834231
0.00830724
0.00802226
0.00766782
0.00731393
0.00698789
0.00669999
0.00645355
0.00624912
0.006086
0.00596275
0.00587723
0.00582643
0.00580829
0.00582082
0.00585623
0.00590545
0.00596117
0.00601853
0.00607472
0.00612834
0.00617881
0.00622598
0.00626978
0.00631017
0.00634698
0.00637992
0.00640861
0.00643265
0.00645168
0.00646526
0.00647308
0.00647554
0.00647352
0.00646827
0.00646097
0.00645282
0.00644476
0.00643763
0.00643199
0.00642823
0.00642664
0.00642732
0.00643037
0.00643565
0.00644309
0.0064525
0.00646361
0.00647622
0.00649007
0.00650487
0.00652049
0.00653672
0.00655342
0.00657056
0.00658809
0.00660601
0.00662433
0.00664314
0.00666253
0.00668265
0.00670369
0.00672595
0.00674987
0.0067762
0.00680633
0.00684264
0.0068936
0.00696679
0.00590215
0.0053035
0.00494449
0.00471654
0.00456428
0.00445824
0.0043818
0.00432578
0.00428298
0.00425446
0.0064835
0.00600903
0.00564331
0.00535098
0.00511161
0.00491193
0.00474264
0.0045969
0.00446875
0.00436396
0.00764419
0.00834347
0.00830615
0.00801912
0.00766318
0.00730855
0.00698272
0.00669614
0.00645227
0.00625171
0.00609369
0.00597654
0.00589777
0.00585364
0.00584454
0.00586501
0.00590567
0.00595734
0.00601342
0.0060699
0.00612461
0.0061766
0.00622554
0.0062714
0.00631421
0.00635387
0.00639014
0.00642258
0.00645073
0.00647409
0.00649238
0.00650434
0.00650954
0.00650849
0.00650242
0.0064929
0.00648153
0.00646966
0.0064585
0.00644885
0.00644137
0.00643636
0.00643406
0.00643451
0.00643764
0.00644334
0.00645137
0.00646148
0.00647339
0.00648679
0.0065014
0.00651697
0.00653324
0.00655005
0.00656727
0.00658481
0.00660264
0.00662077
0.00663927
0.00665823
0.00667771
0.00669787
0.00671889
0.00674105
0.00676469
0.00679045
0.00681967
0.00685458
0.00690345
0.00697417
0.00589892
0.00529287
0.00492904
0.00469813
0.0045442
0.00443737
0.00436071
0.00430488
0.00426261
0.00423495
0.00648346
0.00600892
0.00564314
0.00535077
0.00511138
0.00491171
0.00474246
0.0045968
0.00446879
0.0043641
0.00763831
0.00833442
0.00829827
0.00801531
0.00766583
0.00732202
0.00701241
0.00674758
0.00653033
0.00635976
0.00623306
0.00614622
0.00609439
0.00607405
0.00608103
0.00610849
0.00614842
0.00619453
0.00624268
0.00629046
0.00633649
0.00638004
0.00642044
0.00645824
0.00649274
0.00652278
0.00654669
0.00656231
0.00656763
0.00655964
0.00654638
0.0065299
0.00651238
0.00649615
0.00648281
0.00647208
0.00646347
0.00645669
0.00645171
0.00644865
0.00644757
0.0064486
0.00645172
0.00645695
0.00646421
0.00647338
0.00648428
0.00649671
0.00651041
0.00652518
0.00654076
0.00655694
0.00657356
0.00659047
0.00660757
0.00662484
0.00664234
0.00666006
0.0066781
0.00669657
0.00671557
0.00673524
0.00675571
0.00677726
0.00680027
0.00682531
0.00685368
0.00688789
0.00693642
0.00700678
0.00589792
0.00526985
0.00489094
0.00464981
0.0044893
0.00437859
0.00430005
0.00424379
0.00420217
0.004176
0.00648341
0.00600881
0.00564299
0.0053506
0.00511123
0.00491164
0.00474261
0.00459746
0.00447111
0.00435987
0.00428147
0.00421242
0.00414091
0.00406748
0.00399781
0.00393195
0.0038703
0.00381334
0.00376155
0.00371531
0.00367486
0.00364028
0.00361146
0.00358822
0.0035702
0.00355702
0.00354804
0.00354262
0.00354021
0.00354033
0.00354257
0.00354659
0.0035521
0.00355889
0.00356676
0.00357555
0.00358507
0.00359506
0.00360515
0.00361322
0.00363442
0.00367216
0.0037193
0.00376933
0.00381693
0.00385841
0.00389161
0.00391575
0.00393107
0.00393851
0.00393936
0.00393507
0.00392712
0.00391671
0.00390468
0.00389169
0.00387816
0.00386444
0.00385077
0.0038374
0.00382454
0.00381233
0.00380092
0.00379046
0.00378104
0.00377273
0.0037656
0.0037597
0.00375508
0.00375176
0.00374972
0.00374895
0.0037494
0.00375097
0.00375348
0.00375666
0.00376005
0.00376266
0.00376274
0.00376437
0.00376295
0.00376231
0.00376367
0.00376727
0.00377303
0.00378084
0.00379051
0.00380221
0.003815
0.00383282
0.00648336
0.00600871
0.00564284
0.00535042
0.00511103
0.00491143
0.00474243
0.00459734
0.00447112
0.00435995
0.00426113
0.0041724
0.00409182
0.00401798
0.00394997
0.00388728
0.00382968
0.00377718
0.00372986
0.00368783
0.00365112
0.00361967
0.00359328
0.00357171
0.00355464
0.0035417
0.00353238
0.0035262
0.00352273
0.00352159
0.00352251
0.00352528
0.00352967
0.00353556
0.00354282
0.00355132
0.00356099
0.00357159
0.00358281
0.00359403
0.00360443
0.00361336
0.00362086
0.00362678
0.00363104
0.00363348
0.00363398
0.0036324
0.00362878
0.00362327
0.00361619
0.00360797
0.00359913
0.00359019
0.00358163
0.00357384
0.00356714
0.00356176
0.00355779
0.0035553
0.00355437
0.00355495
0.003557
0.00356048
0.00356505
0.00357057
0.00357692
0.00358397
0.00359162
0.00359978
0.00360841
0.00361746
0.00362689
0.00363675
0.00364704
0.00365774
0.0036688
0.00368017
0.00369181
0.00370363
0.00371556
0.0037277
0.00374019
0.00375306
0.00376634
0.00378009
0.00379431
0.00380932
0.00382441
0.00384284
0.00648331
0.00600859
0.00564268
0.00535022
0.0051108
0.0049112
0.00474224
0.00459724
0.00447121
0.00436031
0.00426162
0.00417282
0.00409205
0.004018
0.00394978
0.0038869
0.00382917
0.00377659
0.00372925
0.00368725
0.00365062
0.00361927
0.00359303
0.00357164
0.00355486
0.00354219
0.0035331
0.0035271
0.00352376
0.00352277
0.00352385
0.00352681
0.00353153
0.00353791
0.00354591
0.00355552
0.00356674
0.00357947
0.00359346
0.00360788
0.00362152
0.00363306
0.00364142
0.00364614
0.00364708
0.00364458
0.0036391
0.00363125
0.00362164
0.00361089
0.00359959
0.00358822
0.00357731
0.00356736
0.00355846
0.00355095
0.00354504
0.00354087
0.00353853
0.00353801
0.00353928
0.00354228
0.00354684
0.00355283
0.00356008
0.00356839
0.00357761
0.00358761
0.00359828
0.00360952
0.00362121
0.00363332
0.00364575
0.00365845
0.00367143
0.00368464
0.00369804
0.00371157
0.00372519
0.0037388
0.00375233
0.00376578
0.00377918
0.00379258
0.00380602
0.00381961
0.00383339
0.00384775
0.00386207
0.00387965
0.00648325
0.00600846
0.00564248
0.00534996
0.00511049
0.00491083
0.00474182
0.00459677
0.00447067
0.00435968
0.00426081
0.00417175
0.00409069
0.00401632
0.0039478
0.00388465
0.00382666
0.00377384
0.00372628
0.0036841
0.0036473
0.0036158
0.00358942
0.00356792
0.00355094
0.00353812
0.00352891
0.00352281
0.00351941
0.0035184
0.00351953
0.00352265
0.00352766
0.00353452
0.00354329
0.00355408
0.00356708
0.00358243
0.00360013
0.00361907
0.00363733
0.00365274
0.0036637
0.00366953
0.00367024
0.00366634
0.00365861
0.00364797
0.00363533
0.00362158
0.00360749
0.00359358
0.00358046
0.00356872
0.00355874
0.00355084
0.00354531
0.00354229
0.00354192
0.00354426
0.00354929
0.00355695
0.0035671
0.00357954
0.00359403
0.00361026
0.00362821
0.00364741
0.00366743
0.00368786
0.00370836
0.00372863
0.00374844
0.00376759
0.00378595
0.00380343
0.00381998
0.00383556
0.00385019
0.00386386
0.0038766
0.00388847
0.00389958
0.00391007
0.0039201
0.0039299
0.00393961
0.00394979
0.0039599
0.00397369
0.00648319
0.00600831
0.00564224
0.00534964
0.00511009
0.00491036
0.00474127
0.00459616
0.00446999
0.00435892
0.00425994
0.0041707
0.00408942
0.0040148
0.003946
0.00388253
0.00382423
0.00377109
0.00372322
0.00368072
0.00364362
0.00361184
0.00358518
0.00356339
0.00354611
0.00353298
0.00352346
0.00351708
0.00351342
0.00351217
0.00351313
0.00351615
0.00352119
0.00352825
0.00353746
0.00354915
0.00356376
0.00358194
0.00360467
0.00363078
0.00365698
0.00367907
0.00369425
0.00370228
0.00370338
0.0036985
0.00368892
0.00367613
0.00366155
0.00364654
0.00363234
0.00361986
0.00361037
0.0036049
0.0036044
0.0036096
0.00362102
0.00363888
0.00366303
0.00369287
0.00372739
0.00376532
0.00380514
0.00384544
0.00388489
0.00392238
0.0039574
0.0039891
0.00401713
0.00404141
0.00406199
0.00407911
0.00409304
0.0041041
0.00411266
0.00411903
0.00412352
0.00412641
0.00412797
0.00412843
0.004128
0.00412689
0.00412532
0.00412351
0.00412166
0.00412006
0.00411891
0.00411882
0.00411932
0.00412462
0.00648311
0.00600812
0.00564195
0.00534924
0.00510959
0.00490975
0.00474055
0.00459531
0.00446902
0.00435779
0.00425862
0.00416915
0.0040876
0.00401269
0.00394358
0.0038798
0.00382116
0.00376767
0.00371944
0.00367658
0.00363911
0.00360695
0.00357989
0.00355769
0.00353997
0.0035263
0.00351629
0.00350944
0.00350536
0.00350374
0.00350437
0.00350713
0.00351199
0.00351902
0.0035284
0.0035407
0.00355669
0.00357826
0.00361209
0.00366048
0.00371566
0.00376163
0.00378664
0.00380389
0.00381514
0.00382293
0.00383015
0.00383959
0.00385369
0.00387433
0.00390301
0.00394075
0.00398644
0.00403842
0.00409454
0.00415266
0.00421073
0.00426684
0.00431946
0.00436737
0.00440967
0.00444588
0.00447577
0.00449938
0.004517
0.00452899
0.00453553
0.00453773
0.00453603
0.00453101
0.00452317
0.00451307
0.00450115
0.00448777
0.00447329
0.00445802
0.00444221
0.00442606
0.00440978
0.00439352
0.00437745
0.00436171
0.00434645
0.00433182
0.00431798
0.00430516
0.00429353
0.00428372
0.00427521
0.00427263
0.00648302
0.00600791
0.00564162
0.00534879
0.00510902
0.00490906
0.00473973
0.00459435
0.00446791
0.00435653
0.00425717
0.00416748
0.00408569
0.00401051
0.00394109
0.00387698
0.00381798
0.0037641
0.00371545
0.00367214
0.0036342
0.00360153
0.00357396
0.00355119
0.00353288
0.00351861
0.00350794
0.00350044
0.00349572
0.00349349
0.00349354
0.00349576
0.00350009
0.0035066
0.00351544
0.00352737
0.00354335
0.00356901
0.00365857
0.00384432
0.00408946
0.00431085
0.00446741
0.0045898
0.00470055
0.00479309
0.00486595
0.0049215
0.00496396
0.00499792
0.0050272
0.00505424
0.00507887
0.00510086
0.00511994
0.00513564
0.00514757
0.00515529
0.00515852
0.00515712
0.00515109
0.00514059
0.00512588
0.00510734
0.00508538
0.00506044
0.00503303
0.00500339
0.00497213
0.00493974
0.00490656
0.0048729
0.00483918
0.0048055
0.00477211
0.00473916
0.00470682
0.00467522
0.00464447
0.00461468
0.00458593
0.00455832
0.00453194
0.00450691
0.00448334
0.00446143
0.00444131
0.00442364
0.00440788
0.00439902
0.00648292
0.00600769
0.00564126
0.00534831
0.00510841
0.00490832
0.00473885
0.00459332
0.00446671
0.00435513
0.00425555
0.00416562
0.00408355
0.00400806
0.00393832
0.00387383
0.00381443
0.00376012
0.003711
0.00366717
0.00362865
0.00359539
0.00356718
0.00354373
0.00352468
0.00350962
0.00349814
0.00348981
0.00348428
0.00348125
0.00348053
0.00348201
0.00348563
0.00349148
0.00349957
0.00351079
0.00352554
0.00356806
0.00401082
0.00483913
0.00565703
0.00622169
0.00652121
0.00664534
0.00665678
0.00660462
0.00652625
0.00644443
0.00637175
0.00630667
0.00624743
0.00619253
0.00614054
0.00609045
0.00604145
0.00599286
0.00594425
0.0058952
0.00584546
0.0057949
0.0057434
0.00569104
0.00563788
0.00558403
0.00552973
0.00547513
0.00542049
0.00536604
0.00531195
0.00525848
0.00520579
0.00515406
0.00510335
0.00505387
0.00500575
0.00495908
0.00491392
0.00487032
0.00482838
0.00478811
0.00474955
0.00471275
0.00467779
0.00464471
0.00461363
0.0045847
0.00455804
0.00453433
0.00451299
0.00449933
0.00648283
0.00600747
0.00564093
0.00534785
0.00510783
0.0049076
0.00473799
0.0045923
0.00446551
0.00435373
0.00425393
0.00416375
0.00408139
0.00400559
0.00393548
0.0038706
0.00381075
0.00375594
0.00370627
0.00366182
0.00362262
0.00358861
0.00355962
0.00353534
0.00351541
0.00349943
0.00348697
0.00347763
0.00347105
0.00346693
0.00346512
0.00346551
0.00346808
0.00347292
0.00347965
0.00348891
0.00349868
0.00360983
0.00532981
0.00707832
0.00816989
0.00864272
0.008644
0.00840658
0.00809866
0.00781464
0.00758998
0.0074311
0.00730724
0.00719994
0.00709946
0.00700145
0.00690444
0.00680817
0.00671301
0.00661927
0.00652724
0.00643707
0.00634875
0.00626229
0.0061776
0.00609462
0.00601331
0.00593362
0.00585558
0.00577917
0.00570446
0.00563155
0.00556045
0.00549127
0.00542403
0.00535881
0.00529568
0.00523467
0.00517581
0.00511913
0.00506464
0.00501235
0.00496221
0.00491428
0.00486856
0.00482508
0.00478385
0.00474494
0.0047084
0.00467439
0.00464299
0.00461492
0.00458957
0.00457252
0.00648276
0.00600728
0.00564063
0.00534745
0.0051073
0.00490695
0.0047372
0.00459135
0.00446439
0.0043524
0.00425237
0.00416192
0.00407926
0.0040031
0.0039326
0.00386726
0.00380691
0.00375152
0.0037012
0.00365602
0.00361602
0.00358113
0.00355117
0.00352588
0.0035049
0.00348782
0.00347423
0.0034637
0.00345584
0.0034504
0.00344722
0.00344641
0.00344823
0.00345328
0.00346179
0.00347541
0.00349058
0.00361625
0.00549286
0.00735622
0.00850357
0.00895388
0.0089648
0.00875643
0.00848528
0.00824085
0.00807092
0.00794408
0.00783475
0.00772788
0.00761698
0.00750094
0.00738085
0.00725884
0.00713672
0.00701601
0.00689774
0.00678246
0.00667049
0.00656191
0.00645667
0.00635466
0.00625575
0.00615978
0.00606673