/*--------------------------------*- C++ -*----------------------------------*\
| =========                 |                                                 |
| \\      /  F ield         | OpenFOAM: The Open Source CFD Toolbox           |
|  \\    /   O peration     | Version:  v2012                                 |
|   \\  /    A nd           | Website:  www.openfoam.com                      |
|    \\/     M anipulation  |                                                 |
\*---------------------------------------------------------------------------*/
FoamFile
{
    version     2.0;
    format      ascii;
    class       volScalarField;
    location    "50/air";
    object      qin;
}
// * * * * * * * * * * * * * * * * * * * * * * * * * * * * * * * * * * * * * //

dimensions      [1 0 -3 0 0 0 0];


internalField   uniform 0;

boundaryField
{
    inlet
    {
        type            calculated;
        value           nonuniform List<scalar> 
3200
(
519.008
521.672
520.076
518.687
517.408
516.156
514.933
513.752
512.616
511.527
510.486
509.488
508.528
507.597
506.669
505.678
504.521
503.104
501.408
499.525
497.613
495.798
494.075
492.341
490.493
488.524
486.506
484.546
482.752
481.196
479.865
478.749
478.096
478.56
480.669
483.789
486.141
486.416
484.863
482.718
481.425
481.675
482.514
482.894
483.139
483.504
483.813
484.117
484.416
484.727
485.07
485.459
485.88
486.294
486.665
487
487.392
488.003
488.992
490.421
492.196
494.07
495.725
496.874
497.349
497.151
496.496
495.825
495.726
496.696
498.741
501.31
503.604
505.238
506.577
508.422
511.223
514.379
516.116
513.25
511.358
519.275
518.71
517.145
515.697
514.35
513.087
511.891
510.744
509.638
508.572
507.542
506.544
505.57
504.596
503.562
502.378
500.959
499.289
497.449
495.586
493.827
492.198
490.624
489.003
487.28
485.474
483.679
482.027
480.624
479.487
478.592
478.075
478.364
479.807
481.967
483.652
484.008
483.208
482.062
481.492
481.897
482.626
483.041
483.38
483.787
484.146
484.493
484.834
485.183
485.561
485.981
486.425
486.851
487.217
487.53
487.888
488.463
489.425
490.842
492.616
494.496
496.162
497.339
497.877
497.797
497.318
496.865
496.981
498.093
500.15
502.571
504.588
505.865
506.764
508
509.921
512.062
513.002
509.525
503.879
514.088
515.552
514.494
513.126
511.714
510.328
509.009
507.765
506.585
505.458
504.371
503.316
502.288
501.267
500.201
499.009
497.616
496.008
494.266
492.522
490.898
489.422
488.03
486.607
485.068
483.409
481.718
480.143
478.819
477.795
477.059
476.664
476.837
477.768
479.176
480.339
480.742
480.474
479.996
479.852
480.272
480.869
481.29
481.671
482.077
482.445
482.805
483.162
483.526
483.903
484.286
484.645
484.934
485.127
485.263
485.482
485.994
486.995
488.555
490.553
492.706
494.658
496.105
496.876
496.977
496.608
496.174
496.204
497.117
498.884
500.969
502.659
503.647
504.283
505.273
507.083
509.443
510.611
507.265
497.903
508.232
511.421
511.174
510.162
508.898
507.49
506.05
504.656
503.339
502.113
500.964
499.866
498.811
497.793
496.776
495.686
494.451
493.043
491.513
489.953
488.452
487.042
485.678
484.274
482.766
481.155
479.521
478
476.723
475.76
475.12
474.805
474.871
475.343
476.067
476.748
477.196
477.434
477.61
477.903
478.363
478.839
479.261
479.701
480.156
480.576
480.907
481.087
481.146
481.256
481.705
482.788
484.645
487.175
490.042
492.803
495.053
496.553
497.264
497.333
497.003
496.526
496.074
495.689
495.322
494.946
494.704
494.927
495.945
497.729
499.776
501.404
502.319
502.897
503.937
506.012
508.659
509.538
505.978
492.463
502.032
506.408
506.896
506.221
505.217
503.998
502.665
501.326
500.042
498.859
497.771
496.753
495.787
494.858
493.93
492.936
491.809
490.518
489.096
487.613
486.141
484.702
483.267
481.785
480.222
478.596
476.985
475.504
474.264
473.338
472.752
472.484
472.487
472.685
472.995
473.381
473.848
474.377
474.927
475.465
475.945
476.365
476.804
477.281
477.765
478.238
478.642
478.919
479.091
479.315
479.863
481.021
482.931
485.503
488.417
491.243
493.583
495.193
496.025
496.201
495.949
495.507
495.045
494.626
494.23
493.865
493.697
494.054
495.221
497.106
499.148
500.659
501.419
501.944
503.156
505.521
508.075
508.224
504.87
488.046
496.484
501.611
502.785
502.386
501.651
500.768
499.791
498.791
497.816
496.853
495.885
494.94
494.032
493.132
492.193
491.17
490.038
488.809
487.523
486.247
485.002
483.717
482.304
480.719
478.988
477.196
475.476
473.95
472.706
471.787
471.2
470.919
470.865
470.937
471.082
471.353
471.812
472.427
473.101
473.732
474.249
474.702
475.21
475.773
476.364
476.969
477.524
477.966
478.313
478.715
479.436
480.754
482.802
485.48
488.462
491.312
493.631
495.179
495.916
495.977
495.604
495.054
494.523
494.093
493.761
493.528
493.522
494.004
495.186
496.932
498.711
499.951
500.595
501.274
502.832
505.351
507.412
506.766
503.89
485.272
492.539
498.192
500.209
500.187
499.675
499.04
498.329
497.612
496.951
496.206
495.272
494.244
493.226
492.204
491.134
490.015
488.891
487.833
486.877
486.065
485.317
484.394
483.088
481.363
479.346
477.261
475.335
473.719
472.461
471.543
470.935
470.609
470.516
470.576
470.744
471.046
471.514
472.12
472.796
473.464
474.068
474.65
475.284
475.976
476.713
477.467
478.165
478.734
479.185
479.662
480.427
481.751
483.765
486.369
489.236
491.936
494.083
495.453
496.026
495.958
495.504
494.932
494.434
494.084
493.847
493.686
493.682
494.06
495.03
496.505
498.056
499.229
500.037
501.058
502.889
505.222
506.517
505.263
503.048
483.636
490.045
496.199
499.344
499.925
499.577
498.947
498.154
497.346
496.706
496.036
495.081
493.917
492.716
491.516
490.304
489.13
488.098
487.315
486.782
486.473
486.207
485.592
484.317
482.367
480.009
477.625
475.544
473.923
472.742
471.9
471.32
470.989
470.912
471.061
471.384
471.839
472.403
473.055
473.774
474.526
475.277
476.025
476.784
477.566
478.376
479.169
479.865
480.39
480.759
481.121
481.743
482.905
484.74
487.154
489.828
492.341
494.322
495.562
496.055
495.962
495.535
495.022
494.589
494.277
494.023
493.769
493.603
493.781
494.564
495.933
497.511
498.862
499.96
501.252
503.096
504.951
505.461
503.888
502.374
481.883
487.895
494.508
498.948
500.339
500.126
499.333
498.253
497.111
496.233
495.512
494.6
493.442
492.185
490.905
489.632
488.465
487.549
487.001
486.781
486.778
486.733
486.179
484.745
482.445
479.672
476.972
474.774
473.239
472.265
471.645
471.236
471.029
471.079
471.41
471.968
472.664
473.429
474.241
475.1
475.989
476.88
477.738
478.544
479.316
480.066
480.748
481.29
481.629
481.796
481.958
482.391
483.379
485.058
487.335
489.897
492.327
494.26
495.49
496.009
495.967
495.595
495.114
494.665
494.271
493.875
493.451
493.137
493.241
494.054
495.555
497.339
498.929
500.24
501.609
503.22
504.461
504.313
502.663
501.784
479.509
485.379
492.178
497.763
500.043
499.988
499.013
497.718
496.35
495.253
494.458
493.653
492.661
491.532
490.336
489.129
488.032
487.212
486.797
486.724
486.809
486.732
486.013
484.262
481.51
478.246
475.162
472.805
471.361
470.659
470.378
470.287
470.343
470.625
471.188
471.993
472.935
473.926
474.934
475.945
476.934
477.874
478.733
479.5
480.193
480.822
481.348
481.711
481.867
481.871
481.902
482.241
483.164
484.804
487.063
489.626
492.079
494.051
495.329
495.892
495.873
495.484
494.936
494.37
493.831
493.302
492.802
492.505
492.724
493.721
495.423
497.39
499.127
500.519
501.807
503.046
503.664
503.048
501.487
501.127
477.165
482.812
489.327
495.602
498.706
498.867
497.737
496.343
495.003
493.919
493.142
492.453
491.649
490.708
489.683
488.635
487.678
486.974
486.643
486.623
486.676
486.444
485.47
483.384
480.228
476.542
473.121
470.612
469.236
468.781
468.84
469.093
469.445
469.964
470.721
471.693
472.787
473.914
475.027
476.091
477.07
477.945
478.716
479.398
480.012
480.558
480.995
481.265
481.339
481.285
481.291
481.636
482.587
484.267
486.574
489.188
491.691
493.704
495.003
495.552
495.476
494.988
494.312
493.62
492.994
492.45
492.027
491.887
492.305
493.493
495.345
497.416
499.22
500.603
501.695
502.478
502.525
501.614
500.222
500.24
475.59
480.831
486.646
493.059
496.829
497.29
496.005
494.468
493.24
492.378
491.781
491.231
490.55
489.717
488.807
487.908
487.128
486.592
486.381
486.417
486.434
486.054
484.86
482.538
479.149
475.243
471.654
469.08
467.767
467.486
467.779
468.268
468.818
469.474
470.314
471.331
472.452
473.593
474.696
475.716
476.614
477.378
478.029
478.607
479.142
479.635
480.043
480.302
480.378
480.337
480.371
480.761
481.77
483.513
485.88
488.544
491.076
493.088
494.348
494.819
494.631
494.021
493.245
492.505
491.905
491.465
491.202
491.239
491.816
493.118
495.045
497.17
498.998
500.304
501.121
501.427
501.015
499.977
498.783
499.045
474.785
479.538
484.437
490.501
494.704
495.558
494.188
492.407
491.192
490.611
490.346
490.037
489.474
488.655
487.722
486.85
486.177
485.793
485.713
485.818
485.824
485.349
484.02
481.601
478.184
474.304
470.766
468.26
467.03
466.845
467.237
467.812
468.418
469.091
469.909
470.883
471.955
473.046
474.1
475.073
475.92
476.614
477.163
477.607
477.997
478.367
478.702
478.944
479.043
479.047
479.141
479.601
480.69
482.513
484.945
487.644
490.172
492.139
493.318
493.689
493.406
492.731
491.942
491.252
490.756
490.452
490.327
490.485
491.152
492.524
494.513
496.684
498.498
499.651
500.127
499.98
499.242
498.201
497.189
497.572
474.218
478.617
482.664
488.105
492.51
493.843
492.562
490.512
489.1
488.625
488.67
488.684
488.32
487.521
486.484
485.503
484.81
484.505
484.566
484.842
485.019
484.675
483.415
481.028
477.63
473.753
470.203
467.683
466.458
466.296
466.713
467.295
467.877
468.499
469.249
470.157
471.175
472.229
473.268
474.258
475.142
475.855
476.36
476.665
476.831
476.953
477.089
477.231
477.329
477.402
477.601
478.179
479.379
481.292
483.779
486.489
488.982
490.878
491.971
492.266
491.943
491.279
490.549
489.951
489.558
489.342
489.283
489.488
490.203
491.639
493.696
495.898
497.643
498.578
498.702
498.196
497.292
496.344
495.482
495.894
473.583
477.976
481.475
486.278
490.688
492.503
491.503
489.26
487.458
486.754
486.857
487.121
487.025
486.374
485.336
484.281
483.536
483.238
483.354
483.716
483.989
483.717
482.489
480.123
476.771
472.967
469.484
467.003
465.78
465.593
465.969
466.505
467.035
467.598
468.286
469.141
470.126
471.168
472.223
473.262
474.232
475.05
475.626
475.894
475.86
475.648
475.446
475.418
475.629
476.065
476.674
477.392
478.148
478.874
479.514
480.028
480.393
480.6
480.66
480.601
480.463
480.296
480.148
480.049
479.991
479.948
479.94
480.14
480.864
482.398
484.727
487.449
490.01
492.037
493.442
494.285
494.663
494.711
494.332
494.729
472.874
477.278
480.29
484.273
488.307
490.43
489.949
487.931
486.01
485.104
485.164
485.6
485.799
485.416
484.513
483.428
482.497
481.871
481.526
481.324
480.999
480.211
478.7
476.42
473.562
470.532
467.857
465.974
465.03
464.851
465.108
465.523
465.98
466.499
467.142
467.948
468.894
469.925
470.985
472.039
473.074
474.049
474.846
475.293
475.283
474.901
474.416
474.132
474.212
474.64
475.298
476.055
476.802
477.471
478.026
478.451
478.743
478.905
478.949
478.899
478.788
478.658
478.548
478.482
478.45
478.43
478.458
478.716
479.524
481.141
483.502
486.154
488.532
490.298
491.451
492.173
492.619
492.815
492.504
492.836
472.113
475.857
477.939
480.574
483.654
485.798
486.118
485.039
483.756
483.152
483.369
483.97
484.379
484.184
483.316
481.995
480.514
479.06
477.699
476.418
475.109
473.642
471.964
470.156
468.364
466.745
465.448
464.575
464.136
464.053
464.211
464.515
464.916
465.407
466.013
466.758
467.645
468.652
469.698
470.723
471.783
472.947
474.102
474.949
475.202
474.832
474.141
473.578
473.431
473.709
474.248
474.871
475.46
475.964
476.373
476.694
476.932
477.081
477.139
477.112
477.021
476.904
476.801
476.74
476.719
476.725
476.799
477.128
478.015
479.686
482.03
484.574
486.762
488.311
489.303
490.009
490.58
490.9
490.625
490.882
471.375
473.845
474.701
475.742
477.574
479.494
480.641
480.82
480.555
480.468
480.803
481.338
481.663
481.413
480.428
478.795
476.748
474.542
472.389
470.42
468.653
467.071
465.693
464.591
463.812
463.329
463.066
462.944
462.922
462.997
463.189
463.511
463.948
464.477
465.101
465.83
466.68
467.668
468.703
469.691
470.76
472.108
473.643
474.944
475.538
475.261
474.413
473.56
473.106
473.1
473.361
473.706
474.037
474.332
474.598
474.842
475.051
475.202
475.271
475.251
475.158
475.03
474.917
474.857
474.856
474.903
475.041
475.441
476.382
478.056
480.332
482.743
484.766
486.164
487.087
487.853
488.56
488.961
488.695
488.886
471.014
472.433
472.447
472.353
473.162
474.695
476.258
477.235
477.552
477.533
477.507
477.522
477.422
476.973
475.992
474.44
472.447
470.26
468.138
466.263
464.681
463.387
462.381
461.685
461.3
461.17
461.203
461.319
461.488
461.727
462.077
462.557
463.166
463.89
464.716
465.598
466.516
467.505
468.499
469.418
470.462
471.919
473.701
475.289
476.08
475.817
474.799
473.666
472.893
472.557
472.482
472.505
472.568
472.678
472.844
473.046
473.242
473.386
473.445
473.409
473.293
473.143
473.017
472.963
472.994
473.1
473.308
473.765
474.713
476.326
478.484
480.753
482.646
483.963
484.891
485.76
486.584
487.015
486.744
486.885
471.372
472.437
472.266
471.734
471.913
472.93
474.354
475.448
475.749
475.343
474.609
473.866
473.219
472.587
471.802
470.724
469.345
467.791
466.235
464.798
463.513
462.388
461.442
460.71
460.214
459.939
459.843
459.893
460.085
460.434
460.949
461.639
462.544
463.694
465.032
466.366
467.524
468.502
469.306
469.992
470.888
472.333
474.182
475.817
476.568
476.169
474.949
473.58
472.552
471.937
471.56
471.287
471.109
471.065
471.154
471.321
471.491
471.604
471.628
471.559
471.419
471.251
471.119
471.079
471.149
471.318
471.59
472.075
472.978
474.47
476.468
478.593
480.399
481.703
482.7
483.689
484.596
485.019
484.742
484.854
472.885
474.016
474.031
473.47
473.281
473.713
474.662
475.563
475.783
475.145
473.921
472.589
471.469
470.61
469.88
469.109
468.214
467.216
466.17
465.101
464.014
462.926
461.895
461.003
460.317
459.855
459.59
459.508
459.634
459.983
460.536
461.339
462.576
464.387
466.613
468.758
470.328
471.163
471.392
471.412
471.873
473.185
475.034
476.607
477.175
476.535
475.096
473.552
472.357
471.518
470.843
470.248
469.804
469.592
469.593
469.702
469.813
469.863
469.833
469.733
469.582
469.42
469.304
469.292
469.408
469.633
469.943
470.403
471.187
472.477
474.255
476.219
477.965
479.311
480.425
481.539
482.493
482.884
482.623
482.737
475.256
476.384
476.579
476.067
475.673
475.609
476.028
476.697
477.03
476.598
475.364
473.769
472.257
470.99
469.921
468.937
467.986
467.086
466.247
465.424
464.583
463.687
462.768
461.925
461.256
460.797
460.514
460.38
460.43
460.673
461.071
461.754
463.123
465.471
468.528
471.446
473.342
473.849
473.235
472.347
472.266
473.477
475.43
477.055
477.542
476.767
475.228
473.628
472.335
471.263
470.208
469.19
468.406
467.986
467.879
467.925
467.984
467.996
467.95
467.85
467.709
467.557
467.449
467.445
467.572
467.805
468.098
468.476
469.088
470.137
471.677
473.493
475.221
476.662
477.923
479.154
480.145
480.537
480.348
480.51
478.239
479.195
479.474
479.001
478.549
478.195
478.157
478.514
478.9
478.783
477.791
476.17
474.367
472.646
471.081
469.663
468.404
467.354
466.532
465.87
465.317
464.762
464.16
463.583
463.134
462.859
462.72
462.668
462.723
462.865
463.041
463.453
464.667
467.102
470.44
473.629
475.536
475.652
474.362
472.847
472.448
473.646
475.711
477.428
477.977
477.3
475.923
474.468
473.162
471.844
470.371
468.907
467.768
467.116
466.87
466.84
466.88
466.918
466.918
466.85
466.707
466.517
466.351
466.286
466.361
466.553
466.805
467.113
467.595
468.452
469.788
471.46
473.155
474.664
476.025
477.306
478.278
478.665
478.569
478.821
481.241
481.929
482.243
481.785
481.339
480.823
480.384
480.296
480.488
480.511
479.773
478.275
476.356
474.328
472.386
470.631
469.13
467.945
467.103
466.537
466.223
466.009
465.781
465.563
465.433
465.431
465.522
465.653
465.816
465.951
465.974
466.107
466.972
469.063
472.112
475.065
476.729
476.532
474.921
473.211
472.757
473.936
475.956
477.637
478.264
477.849
476.862
475.732
474.51
473.002
471.186
469.372
467.942
467.062
466.648
466.534
466.591
466.724
466.833
466.821
466.647
466.35
466.041
465.835
465.797
465.911
466.117
466.392
466.827
467.601
468.821
470.381
472.018
473.537
474.935
476.213
477.144
477.536
477.543
477.896
483.791
484.21
484.548
484.08
483.635
483.022
482.259
481.684
481.483
481.416
480.853
479.593
477.808
475.759
473.703
471.828
470.248
469.029
468.192
467.675
467.501
467.525
467.593
467.688
467.851
468.109
468.444
468.824
469.213
469.487
469.501
469.416
469.817
471.246
473.584
475.961
477.281
476.96
475.402
473.839
473.465
474.535
476.307
477.782
478.415
478.275
477.72
476.968
475.908
474.361
472.417
470.463
468.883
467.827
467.24
467.023
467.094
467.341
467.584
467.636
467.405
466.952
466.446
466.064
465.902
465.947
466.132
466.429
466.915
467.731
468.94
470.425
471.968
473.43
474.802
476.034
476.904
477.294
477.387
477.822
485.533
485.782
486.158
485.671
485.195
484.522
483.548
482.568
481.92
481.593
481.077
480.089
478.64
476.868
474.993
473.236
471.747
470.602
469.819
469.34
469.226
469.358
469.57
469.821
470.137
470.556
471.106
471.788
472.53
473.114
473.277
473.054
472.93
473.488
474.845
476.448
477.417
477.176
475.966
474.753
474.476
475.32
476.7
477.862
478.415
478.436
478.17
477.69
476.819
475.411
473.598
471.752
470.197
469.06
468.332
468.006
468.073
468.429
468.82
468.948
468.654
468.018
467.296
466.751
466.508
466.542
466.765
467.156
467.785
468.742
470.006
471.424
472.828
474.162
475.442
476.582
477.367
477.739
477.889
478.374
486.465
486.713
487.156
486.67
486.155
485.461
484.408
483.187
482.169
481.516
480.908
480.103
479.028
477.69
476.205
474.754
473.49
472.498
471.807
471.367
471.26
471.39
471.59
471.813
472.106
472.554
473.257
474.254
475.425
476.429
476.859
476.585
475.964
475.607
475.889
476.638
477.258
477.21
476.505
475.734
475.544
476.096
477.021
477.816
478.21
478.241
478.056
477.676
476.956
475.789
474.285
472.725
471.345
470.235
469.427
469.015
469.097
469.601
470.199
470.452
470.102
469.248
468.269
467.555
467.278
467.382
467.74
468.315
469.158
470.287
471.596
472.904
474.114
475.261
476.386
477.382
478.049
478.377
478.555
479.054
486.811
487.196
487.724
487.279
486.75
486.085
485.069
483.782
482.543
481.595
480.795
480.007
479.168
478.216
477.164
476.104
475.14
474.345
473.758
473.35
473.219
473.29
473.393
473.482
473.639
474.016
474.793
476.045
477.607
479.026
479.758
479.521
478.54
477.426
476.765
476.727
477.007
477.134
476.911
476.561
476.446
476.708
477.18
477.59
477.764
477.693
477.445
477.036
476.391
475.452
474.288
473.072
471.934
470.916
470.079
469.628
469.793
470.549
471.469
471.93
471.536
470.409
469.092
468.151
467.842
468.083
468.685
469.546
470.647
471.92
473.195
474.315
475.274
476.188
477.107
477.907
478.419
478.675
478.852
479.336
486.933
487.486
488.097
487.733
487.23
486.636
485.73
484.499
483.187
482.041
481.018
480.081
479.237
478.457
477.713
477.009
476.358
475.773
475.285
474.89
474.714
474.715
474.723
474.681
474.69
474.95
475.706
477.071
478.86
480.555
481.529
481.392
480.262
478.718
477.458
476.875
476.877
477.076
477.158
477.091
477.021
477.049
477.14
477.198
477.138
476.927
476.569
476.08
475.442
474.645
473.735
472.801
471.876
470.943
470.092
469.64
469.951
471.04
472.368
473.101
472.687
471.264
469.548
468.314
467.942
468.353
469.276
470.493
471.857
473.204
474.351
475.218
475.901
476.565
477.247
477.816
478.146
478.306
478.458
478.905
487.01
487.665
488.354
488.103
487.664
487.16
486.378
485.257
483.978
482.747
481.538
480.356
479.298
478.446
477.823
477.381
477.017
476.639
476.233
475.822
475.581
475.52
475.485
475.387
475.305
475.449
476.095
477.393
479.176
480.929
482.004
481.969
480.878
479.261
477.823
477.029
476.883
477.063
477.237
477.272
477.198
477.07
476.908
476.71
476.461
476.127
475.681
475.121
474.46
473.722
472.953
472.192
471.397
470.504
469.626
469.168
469.593
470.945
472.602
473.574
473.183
471.559
469.533
468.05
467.622
468.205
469.462
471.03
472.607
473.949
474.903
475.497
475.918
476.344
476.784
477.112
477.251
477.306
477.419
477.819
487.047
487.715
488.481
488.36
488.003
487.577
486.891
485.876
484.683
483.465
482.153
480.734
479.375
478.304
477.657
477.381
477.259
477.063
476.706
476.238
475.898
475.777
475.742
475.666
475.566
475.617
476.094
477.177
478.747
480.339
481.351
481.365
480.416
478.982
477.698
476.981
476.832
476.969
477.106
477.116
477.003
476.795
476.514
476.186
475.827
475.418
474.922
474.327
473.653
472.948
472.259
471.594
470.867
469.99
469.079
468.566
468.942
470.28
471.971
473.018
472.706
471.12
469.078
467.567
467.176
467.92
469.436
471.248
472.932
474.196
474.945
475.304
475.511
475.727
475.935
476.031
475.992
475.945
476.017
476.375
486.93
487.571
488.424
488.439
488.162
487.783
487.154
486.224
485.137
484.001
482.684
481.117
479.506
478.213
477.5
477.333
477.4
477.336
476.979
476.401
475.918
475.712
475.686
475.668
475.599
475.589
475.886
476.679
477.903
479.176
479.983
479.973
479.191
478.054
477.088
476.6
476.545
476.672
476.756
476.717
476.573
476.347
476.047
475.69
475.292
474.849
474.33
473.728
473.072
472.42
471.815
471.24
470.592
469.77
468.867
468.253
468.369
469.322
470.649
471.528
471.329
470.069
468.402
467.186
466.99
467.881
469.522
471.404
473.053
474.179
474.75
474.945
474.998
475.034
475.026
474.907
474.707
474.571
474.606
474.941
486.599
487.226
488.165
488.308
488.094
487.735
487.134
486.273
485.295
484.279
483.037
481.444
479.713
478.299
477.56
477.482
477.682
477.685
477.267
476.529
475.863
475.535
475.491
475.523
475.503
475.469
475.619
476.129
476.973
477.861
478.395
478.317
477.689
476.859
476.226
475.981
476.045
476.199
476.277
476.235
476.098
475.894
475.624
475.286
474.889
474.431
473.899
473.298
472.677
472.103
471.616
471.181
470.684
470.013
469.201
468.491
468.215
468.515
469.163
469.653
469.543
468.789
467.787
467.132
467.269
468.282
469.901
471.668
473.148
474.105
474.553
474.669
474.634
474.523
474.315
474.001
473.658
473.443
473.443
473.773
486.084
486.731
487.742
487.993
487.825
487.472
486.897
486.106
485.238
484.351
483.228
481.704
479.987
478.573
477.87
477.874
478.15
478.156
477.63
476.706
475.838
475.359
475.25
475.291
475.305
475.273
475.331
475.62
476.131
476.662
476.94
476.805
476.33
475.78
475.427
475.373
475.529
475.723
475.836
475.835
475.739
475.573
475.34
475.031
474.642
474.175
473.625
473.019
472.424
471.93
471.581
471.339
471.078
470.663
470.041
469.307
468.663
468.28
468.168
468.164
468.061
467.786
467.486
467.458
467.959
469.045
470.519
472.027
473.247
474.027
474.412
474.533
474.483
474.282
473.92
473.443
472.979
472.692
472.653
472.977
485.451
486.14
487.193
487.525
487.391
487.05
486.512
485.801
485.038
484.264
483.262
481.849
480.225
478.893
478.268
478.338
478.644
478.608
477.959
476.862
475.808
475.171
474.96
474.959
474.973
474.95
474.97
475.126
475.406
475.682
475.789
475.649
475.335
475.028
474.892
474.97
475.183
475.407
475.556
475.6
475.544
475.409
475.2
474.908
474.524
474.048
473.481
472.859
472.271
471.834
471.617
471.589
471.615
471.52
471.163
470.511
469.654
468.771
468.046
467.58
467.375
467.379
467.58
468.033
468.813
469.904
471.154
472.331
473.251
473.867
474.236
474.426
474.439
474.233
473.803
473.234
472.69
472.344
472.262
472.56
484.824
485.549
486.607
486.999
486.901
486.588
486.108
485.486
484.816
484.127
483.213
481.897
480.378
479.143
478.589
478.69
478.98
478.878
478.125
476.906
475.723
474.955
474.625
474.533
474.499
474.468
474.485
474.595
474.773
474.929
474.977
474.895
474.749
474.654
474.694
474.874
475.128
475.367
475.532
475.591
475.543
475.408
475.196
474.903
474.516
474.032
473.452
472.815
472.222
471.82
471.709
471.88
472.192
472.426
472.363
471.877
470.985
469.861
468.772
467.966
467.583
467.628
468.034
468.724
469.626
470.642
471.632
472.464
473.089
473.551
473.918
474.201
474.329
474.21
473.825
473.268
472.715
472.345
472.223
472.465
484.34
485.078
486.112
486.549
486.495
486.23
485.824
485.291
484.696
484.057
483.189
481.932
480.484
479.311
478.781
478.853
479.075
478.896
478.081
476.828
475.613
474.783
474.355
474.152
474.035
473.973
474.003
474.135
474.313
474.459
474.528
474.534
474.543
474.628
474.824
475.105
475.406
475.66
475.817
475.852
475.772
475.598
475.349
475.028
474.624
474.13
473.541
472.896
472.299
471.917
471.884
472.218
472.776
473.299
473.508
473.217
472.408
471.243
470.008
469
468.428
468.359
468.743
469.457
470.34
471.217
471.945
472.467
472.836
473.16
473.511
473.863
474.105
474.122
473.872
473.429
472.952
472.608
472.466
472.634
484.063
484.782
485.774
486.253
486.26
486.062
485.737
485.284
484.745
484.128
483.271
482.027
480.59
479.397
478.791
478.734
478.822
478.564
477.759
476.59
475.472
474.679
474.206
473.907
473.698
473.595
473.646
473.834
474.072
474.27
474.396
474.489
474.624
474.86
475.199
475.591
475.96
476.245
476.4
476.402
476.274
476.046
475.734
475.353
474.905
474.38
473.776
473.126
472.532
472.162
472.169
472.595
473.304
474.015
474.411
474.276
473.574
472.46
471.212
470.128
469.439
469.253
469.55
470.195
470.975
471.676
472.161
472.434
472.611
472.828
473.148
473.524
473.839
473.978
473.887
473.608
473.265
472.994
472.863
472.98
484.027
484.713
485.663
486.179
486.25
486.124
485.874
485.488
484.987
484.378
483.517
482.267
480.812
479.56
478.827
478.585
478.492
478.139
477.374
476.363
475.435
474.769
474.318
473.962
473.675
473.53
473.593
473.828
474.114
474.34
474.486
474.625
474.852
475.221
475.703
476.213
476.656
476.977
477.126
477.08
476.887
476.587
476.202
475.761
475.271
474.721
474.104
473.451
472.859
472.494
472.521
473.001
473.806
474.644
475.169
475.143
474.52
473.452
472.213
471.095
470.336
470.066
470.281
470.839
471.504
472.043
472.343
472.449
472.511
472.664
472.95
473.315
473.655
473.871
473.911
473.791
473.594
473.418
473.328
473.436
483.765
484.378
485.269
485.862
486.061
486.05
485.889
485.567
485.105
484.514
483.649
482.342
480.707
479.102
477.866
477.096
476.641
476.25
475.784
475.276
474.842
474.497
474.174
473.831
473.525
473.367
473.42
473.646
473.926
474.163
474.351
474.573
474.921
475.436
476.078
476.75
477.346
477.803
478.05
478.071
477.926
477.642
477.21
476.654
476.021
475.348
474.657
473.981
473.386
472.986
472.903
473.193
473.767
474.394
474.777
474.692
474.083
473.083
471.956
471
470.452
470.41
470.798
471.397
471.94
472.253
472.33
472.306
472.341
472.521
472.826
473.187
473.524
473.774
473.901
473.918
473.887
473.877
473.916
474.181
)
;
    }
    outlet
    {
        type            calculated;
        value           nonuniform List<scalar> 
3200
(
538.57
542.054
539.512
537.151
534.753
532.549
530.595
528.813
527.003
524.855
521.531
518.738
516.028
513.423
511.009
508.882
507.105
505.711
504.734
504.196
504.339
503.856
503.124
502.031
500.571
498.867
497.04
495.266
493.754
492.682
492.148
492.156
492.629
493.447
494.471
495.563
496.611
497.535
498.283
498.827
499.189
499.338
499.192
498.692
497.806
496.868
496.083
495.459
494.939
494.414
493.785
493.046
492.281
491.627
491.314
491.734
493.074
495.076
497.418
499.473
500.63
500.64
499.78
498.782
498.515
499.585
501.999
505.13
508.007
509.898
510.618
510.744
511.156
512.602
515.401
519.416
524.097
528.255
530.654
526.283
527.617
538.972
538.345
536.344
534.111
532.033
530.194
528.508
526.741
524.586
521.41
518.491
515.64
512.933
510.483
508.394
506.712
505.438
504.554
504.032
504.01
503.505
502.726
501.619
500.198
498.57
496.85
495.196
493.79
492.792
492.291
492.296
492.74
493.515
494.495
495.552
496.578
497.494
498.252
498.826
499.22
499.38
499.208
498.657
497.769
496.86
496.13
495.562
495.051
494.479
493.784
492.998
492.198
491.499
491.132
491.474
492.717
494.66
496.946
498.94
500.039
500.005
499.139
498.192
498.037
499.239
501.746
504.865
507.61
509.283
509.8
509.802
510.199
511.714
514.595
518.578
522.973
526.609
528.133
521.5
518.626
533.101
535.061
534.057
532.222
530.224
528.32
526.539
524.684
522.479
519.442
516.486
513.581
510.85
508.418
506.387
504.785
503.584
502.741
502.185
501.992
501.436
500.6
499.444
497.995
496.354
494.646
493.042
491.734
490.875
490.534
490.686
491.23
492.037
492.98
493.958
494.896
495.738
496.445
496.985
497.35
497.503
497.377
496.943
496.231
495.444
494.718
494.06
493.427
492.764
492.036
491.246
490.434
489.708
489.314
489.616
490.811
492.75
495.046
497.053
498.164
498.14
497.279
496.33
496.161
497.339
499.811
502.892
505.623
507.326
507.945
508.098
508.629
510.16
512.848
516.439
520.444
523.886
524.922
518.025
516.37
527.837
531.017
530.567
529.408
527.982
526.437
524.803
522.932
520.667
517.66
514.647
511.713
509.01
506.655
504.738
503.257
502.132
501.251
500.463
499.862
499.016
498.149
497.479
497.189
497.281
497.513
497.513
496.954
495.736
494.073
492.417
491.264
490.923
491.395
492.406
493.574
494.592
495.33
495.8
496.08
496.197
496.105
495.767
495.195
494.514
493.806
493.087
492.359
491.616
490.846
490.039
489.206
488.452
488.033
488.304
489.471
491.421
493.754
495.805
496.957
496.958
496.102
495.141
494.962
496.14
498.626
501.733
504.494
506.222
506.854
506.965
507.354
508.63
511.03
514.494
518.653
522.147
522.489
515.824
512.437
522.9
527.129
527.305
526.614
525.659
524.481
523.069
521.287
519.076
516.097
512.983
509.974
507.254
504.903
503.004
501.557
500.48
499.645
498.846
498.205
497.407
496.593
495.967
495.73
495.879
496.176
496.257
495.806
494.719
493.194
491.655
490.571
490.234
490.647
491.558
492.615
493.535
494.199
494.619
494.865
494.967
494.899
494.635
494.172
493.569
492.869
492.099
491.3
490.502
489.705
488.884
488.036
487.268
486.839
487.099
488.264
490.245
492.632
494.751
495.967
496.014
495.185
494.241
494.082
495.295
497.818
500.941
503.666
505.284
505.73
505.601
505.745
506.867
509.336
513.136
517.6
520.71
520.074
513.969
509.663
518.65
523.523
524.128
523.65
523.025
522.214
521.128
519.619
517.656
514.805
511.589
508.443
505.642
503.251
501.339
499.913
498.887
498.107
497.315
496.666
495.956
495.258
494.756
494.662
494.971
495.435
495.675
495.358
494.366
492.891
491.357
490.236
489.83
490.151
490.959
491.911
492.735
493.32
493.68
493.88
493.953
493.879
493.632
493.204
492.629
491.939
491.168
490.365
489.564
488.76
487.925
487.063
486.288
485.86
486.132
487.333
489.386
491.868
494.089
495.396
495.513
494.726
493.808
493.664