/*--------------------------------*- C++ -*----------------------------------*\
| =========                 |                                                 |
| \\      /  F ield         | OpenFOAM: The Open Source CFD Toolbox           |
|  \\    /   O peration     | Version:  v2012                                 |
|   \\  /    A nd           | Website:  www.openfoam.com                      |
|    \\/     M anipulation  |                                                 |
\*---------------------------------------------------------------------------*/
FoamFile
{
    version     2.0;
    format      ascii;
    class       volScalarField;
    location    "50/air";
    object      qr;
}
// * * * * * * * * * * * * * * * * * * * * * * * * * * * * * * * * * * * * * //

dimensions      [1 0 -3 0 0 0 0];


internalField   uniform 0;

boundaryField
{
    inlet
    {
        type            calculated;
        value           nonuniform List<scalar> 
3200
(
10.4971
13.1605
11.5644
10.1756
8.89661
7.64424
6.42196
5.24038
4.10432
3.01591
1.97476
0.97666
0.0161789
-0.914789
-1.84274
-2.83355
-3.99026
-5.40692
-7.10343
-8.98647
-10.8979
-12.7133
-14.4359
-16.1698
-18.018
-19.987
-22.0058
-23.9653
-25.7589
-27.315
-28.6465
-29.7622
-30.4153
-29.9512
-27.8422
-24.7224
-22.3706
-22.0951
-23.6481
-25.7937
-27.0865
-26.8361
-25.9977
-25.617
-25.3727
-25.0077
-24.6984
-24.3945
-24.0955
-23.7841
-23.441
-23.0524
-22.6318
-22.2169
-21.8467
-21.5117
-21.1191
-20.5086
-19.5193
-18.0901
-16.3151
-14.4413
-12.7862
-11.637
-11.1626
-11.3603
-12.0158
-12.6864
-12.7852
-11.8156
-9.77026
-7.20175
-4.90718
-3.27338
-1.93468
-0.089693
2.71161
5.86726
7.60475
4.73836
2.84649
10.7636
10.1983
8.63356
7.1856
5.83859
4.57616
3.38008
2.23248
1.1268
0.0606067
-0.969236
-1.96722
-2.941
-3.91526
-4.94903
-6.13349
-7.5519
-9.22234
-11.0623
-12.9254
-14.6841
-16.3138
-17.887
-19.5083
-21.2316
-23.0373
-24.8321
-26.4844
-27.8871
-29.0244
-29.9193
-30.4362
-30.1476
-28.704
-26.544
-24.8588
-24.5035
-25.303
-26.449
-27.0195
-26.6143
-25.8855
-25.4706
-25.1318
-24.7242
-24.3658
-24.0181
-23.6778
-23.3281
-22.9499
-22.5307
-22.0866
-21.66
-21.2943
-20.9813
-20.6229
-20.0486
-19.0862
-17.6694
-15.8949
-14.0156
-12.3491
-11.172
-10.6339
-10.7139
-11.1932
-11.6465
-11.5303
-10.4184
-8.36144
-5.94041
-3.92294
-2.64666
-1.74689
-0.511613
1.40942
3.55064
4.49071
1.01393
-4.63199
5.57627
7.04031
5.98251
4.61462
3.20237
1.81657
0.497997
-0.746814
-1.92654
-3.05349
-4.1401
-5.19495
-6.22352
-7.24465
-8.31018
-9.50245
-10.8958
-12.5032
-14.2455
-15.9889
-17.6138
-19.0893
-20.4814
-21.9046
-23.4431
-25.1026
-26.7932
-28.368
-29.6926
-30.7159
-31.4519
-31.8478
-31.6747
-30.7437
-29.3356
-28.1724
-27.7692
-28.0375
-28.5149
-28.6591
-28.2388
-27.6419
-27.2209
-26.84
-26.4347
-26.0667
-25.7063
-25.3493
-24.9852
-24.6085
-24.2257
-23.8664
-23.5768
-23.384
-23.2484
-23.0295
-22.5172
-21.5159
-19.9566
-17.9578
-15.8054
-13.8534
-12.4064
-11.6349
-11.5344
-11.9037
-12.337
-12.307
-11.3947
-9.62763
-7.54233
-5.85195
-4.86443
-4.22794
-3.23797
-1.42877
0.931813
2.09921
-1.24674
-10.6086
-0.279224
2.91003
2.66278
1.65064
0.386818
-1.021
-2.46149
-3.85566
-5.1726
-6.39816
-7.54765
-8.64578
-9.70038
-10.7181
-11.7357
-12.8253
-14.0607
-15.4685
-16.9982
-18.5588
-20.0592
-21.4694
-22.8338
-24.2374
-25.7449
-27.3567
-28.9901
-30.511
-31.7888
-32.7516
-33.3915
-33.706
-33.6404
-33.1683
-32.4447
-31.7638
-31.3156
-31.077
-30.9011
-30.6087
-30.1488
-29.6722
-29.2499
-28.8107
-28.3555
-27.9351
-27.6046
-27.4246
-27.365
-27.2555
-26.8058
-25.7234
-23.866
-21.3364
-18.4692
-15.7086
-13.4582
-11.9588
-11.2469
-11.1787
-11.5088
-11.9852
-12.4376
-12.8224
-13.1895
-13.5652
-13.8074
-13.5839
-12.5662
-10.7828
-8.7357
-7.10734
-6.19224
-5.61385
-4.57445
-2.49897
0.147597
1.02654
-2.53324
-16.0486
-6.47952
-2.10364
-1.61491
-2.29045
-3.29416
-4.51345
-5.84593
-7.18548
-8.46925
-9.65276
-10.74
-11.7581
-12.724
-13.6528
-14.5815
-15.5753
-16.7027
-17.9933
-19.4149
-20.8979
-22.3701
-23.8096
-25.2447
-26.7266
-28.289
-29.9149
-31.5259
-33.0073
-34.2477
-35.1729
-35.7596
-36.0272
-36.0239
-35.8266
-35.5167
-35.1302
-34.6633
-34.1345
-33.5842
-33.0462
-32.5663
-32.1463
-31.707
-31.2305
-30.7463
-30.2732
-29.8689
-29.5921
-29.42
-29.1967
-28.6481
-27.4899
-25.5798
-23.008
-20.0941
-17.2684
-14.9281
-13.3183
-12.4868
-12.3103
-12.5622
-13.0046
-13.4658
-13.8852
-14.2817
-14.6467
-14.8145
-14.4578
-13.2905
-11.4057
-9.36344
-7.85221
-7.09279
-6.567
-5.3549
-2.99015
-0.435986
-0.286959
-3.64152
-20.4652
-12.0269
-6.9008
-5.72594
-6.12488
-6.86051
-7.74356
-8.7206
-9.71992
-10.6954
-11.6587
-12.6265
-13.5715
-14.4789
-15.379
-16.3188
-17.3417
-18.4732
-19.7019
-20.9882
-22.2641
-23.5093
-24.7945
-26.2076
-27.7919
-29.5238
-31.3148
-33.0357
-34.5617
-35.8053
-36.7243
-37.3109
-37.5928
-37.6459
-37.5746
-37.4289
-37.1579
-36.6989
-36.0841
-35.4099
-34.7789
-34.2628
-33.8089
-33.3011
-32.7382
-32.147
-31.5423
-30.9877
-30.5453
-30.198
-29.7968
-29.0754
-27.7576
-25.7098
-23.0309
-20.0489
-17.1994
-14.8804
-13.3327
-12.5956
-12.5342
-12.907
-13.4569
-13.9888
-14.4183
-14.7504
-14.9837
-14.9898
-14.5072
-13.3253
-11.5793
-9.8002
-8.56028
-7.91664
-7.23747
-5.67952
-3.15994
-1.0989
-1.74512
-4.62089
-23.2396
-15.9722
-10.3194
-8.30209
-8.32458
-8.83649
-9.47109
-10.1824
-10.899
-11.5606
-12.3048
-13.2396
-14.2674
-15.2856
-16.3074
-17.3772
-18.4961
-19.6203
-20.6785
-21.6347
-22.4467
-23.1944
-24.1173
-25.4228
-27.1484
-29.1653
-31.2501
-33.1759
-34.7924
-36.0504
-36.9683
-37.5764
-37.902
-37.9957
-37.9356
-37.7671
-37.4653
-36.9972
-36.3909
-35.715
-35.0478
-34.4429
-33.8615
-33.2271
-32.5355
-31.7982
-31.0439
-30.3466
-29.7773
-29.3258
-28.8488
-28.0846
-26.7606
-24.7464
-22.1424
-19.2753
-16.575
-14.4281
-13.0583
-12.485
-12.5536
-13.0071
-13.5797
-14.0769
-14.4275
-14.6639
-14.8255
-14.8298
-14.451
-13.4817
-12.0065
-10.4552
-9.28235
-8.47437
-7.45365
-5.6225
-3.28976
-1.99452
-3.24823
-5.46316
-24.8752
-18.4663
-12.3122
-9.16738
-8.58672
-8.9339
-9.56411
-10.3571
-11.1649
-11.8058
-12.4752
-13.43
-14.5942
-15.7949
-16.9949
-18.2074
-19.3816
-20.4134
-21.1961
-21.7296
-22.0381
-22.3046
-22.9191
-24.1947
-26.1439
-28.5022
-30.8859
-32.9671
-34.5886
-35.7694
-36.6117
-37.1915
-37.522
-37.5989
-37.4502
-37.1276
-36.6723
-36.1085
-35.4563
-34.7375
-33.9857
-33.2341
-32.4868
-31.7278
-30.9452
-30.1355
-29.3425
-28.6464
-28.1209
-27.7523
-27.3907
-26.7678
-25.6063
-23.771
-21.3569
-18.6836
-16.1703
-14.1896
-12.9496
-12.4562
-12.549
-12.9763
-13.4898
-13.9221
-14.2343
-14.4886
-14.742
-14.908
-14.73
-13.9469
-12.5784
-11.0005
-9.64929
-8.55129
-7.25938
-5.4157
-3.56
-3.05061
-4.62374
-6.13734
-26.6283
-20.6167
-14.0033
-9.56284
-8.17276
-8.38514
-9.17869
-10.2585
-11.4008
-12.2786
-12.9989
-13.9116
-15.0698
-16.3267
-17.6065
-18.879
-20.0461
-20.9628
-21.5103
-21.7306
-21.7332
-21.7785
-22.3322
-23.7666
-26.0666
-28.8388
-31.5398
-33.7375
-35.2726
-36.2462
-36.8666
-37.2753
-37.4827
-37.4321
-37.1014
-36.5429
-35.8473
-35.0826
-34.2699
-33.4112
-32.5222
-31.6313
-30.7736
-29.9674
-29.1952
-28.4454
-27.7629
-27.2212
-26.8821
-26.7151
-26.5538
-26.1202
-25.1325
-23.4536
-21.1759
-18.6147
-16.184
-14.2513
-13.0216
-12.5027
-12.5448
-12.9166
-13.3973
-13.8463
-14.2406
-14.6367
-15.0603
-15.3745
-15.2707
-14.4575
-12.9564
-11.1724
-9.58247
-8.27111
-6.90221
-5.29084
-4.0508
-4.19845
-5.84878
-6.72771
-29.0022
-23.1326
-16.3332
-10.748
-8.46846
-8.52362
-9.4982
-10.7938
-12.161
-13.2583
-14.0531
-14.8583
-15.8506
-16.9798
-18.1753
-19.3826
-20.4794
-21.2989
-21.7146
-21.7869
-21.7025
-21.7791
-22.4981
-24.249
-27.0017
-30.2654
-33.3495
-35.706
-37.1503
-37.8527
-38.1333
-38.2247
-38.1686
-37.8868
-37.3229
-36.518
-35.5766
-34.5853
-33.5775
-32.5667
-31.5773
-30.6375
-29.7782
-29.0116
-28.3185
-27.6892
-27.1632
-26.8008
-26.6438
-26.6403
-26.6095
-26.2706
-25.347
-23.7078
-21.4485
-18.8852
-16.4323
-14.4606
-13.1825
-12.6192
-12.6386
-13.0271
-13.5756
-14.1414
-14.6802
-15.2096
-15.7089
-16.0061
-15.7871
-14.7908
-13.0881
-11.1216
-9.38435
-7.99191
-6.70461
-5.46579
-4.84696
-5.46335
-7.02475
-7.38435
-31.3461
-25.699
-19.184
-12.9095
-9.80514
-9.64388
-10.7747
-12.1683
-13.5082
-14.5928
-15.3695
-16.058
-16.8628
-17.8034
-18.828
-19.8767
-20.8331
-21.5376
-21.8685
-21.8885
-21.8358
-22.067
-23.0417
-25.1272
-28.2838
-31.9691
-35.3899
-37.8992
-39.2758
-39.7303
-39.6711
-39.4185
-39.0666
-38.5475
-37.7905
-36.8183
-35.7247
-34.5971
-33.4842
-32.4206
-31.4414
-30.566
-29.7955
-29.1134
-28.499
-27.9529
-27.5166
-27.2465
-27.1719
-27.2261
-27.2203
-26.8757
-25.9242
-24.2443
-21.9374
-19.323
-16.82
-14.807
-13.5085
-12.959
-13.0353
-13.5236
-14.1996
-14.8915
-15.5178
-16.0614
-16.4844
-16.6246
-16.2063
-15.0184
-13.1667
-11.0956
-9.29111
-7.90866
-6.81585
-6.03344
-5.98614
-6.89691
-8.289
-8.27101
-32.9216
-27.6804
-21.8655
-15.4522
-11.6821
-11.2216
-12.5066
-14.0434
-15.2712
-16.133
-16.7305
-17.2803
-17.9618
-18.7943
-19.7039
-20.6031
-21.3831
-21.9195
-22.1304
-22.094
-22.0778
-22.4574
-23.6517
-25.973
-29.3628
-33.2682
-36.8571
-39.4313
-40.7447
-41.0258
-40.7328
-40.243
-39.6938
-39.0369
-38.1974
-37.1799
-36.0593
-34.9182
-33.8149
-32.7952
-31.8974
-31.1333
-30.4822
-29.9042
-29.3692
-28.8758
-28.4683
-28.2096
-28.1337
-28.1745
-28.1401
-27.7506
-26.7414
-24.9983
-22.6311
-19.9676
-17.4356
-15.4232
-14.1632
-13.6926
-13.8801
-14.49
-15.2667
-16.0065
-16.6059
-17.0462
-17.3098
-17.2719
-16.6958
-15.3932
-13.4663
-11.3416
-9.51356
-8.20741
-7.3899
-7.08416
-7.49657
-8.53479
-9.72797
-9.46589
-33.7263
-28.9737
-24.0747
-18.0107
-13.807
-12.9531
-14.3237
-16.1041
-17.3197
-17.9002
-18.1653
-18.4738
-19.0374
-19.8568
-20.7892
-21.6617
-22.3339
-22.7178
-22.7985
-22.6929
-22.6873
-23.1623
-24.4911
-26.9101
-30.3269
-34.2074
-37.7453
-40.2518
-41.4814
-41.6663
-41.2747
-40.6991
-40.0934
-39.4202
-38.6021
-37.628
-36.5568
-35.4652
-34.4111
-33.4385
-32.5913
-31.8971
-31.348
-30.9039
-30.5147
-30.1443
-29.8093
-29.5677
-29.4688
-29.464
-29.3705
-28.9099
-27.821
-25.9986
-23.5668
-20.8678
-18.3394
-16.3726
-15.1933
-14.8228
-15.1058
-15.7804
-16.5692
-17.2594
-17.755
-18.0595
-18.1838
-18.0265
-17.3596
-15.9869
-13.9983
-11.8271
-10.0133
-8.86003
-8.38439
-8.53139
-9.26961
-10.3104
-11.3225
-10.9397
-34.2934
-29.8938
-25.8476
-20.4062
-16.0012
-14.6684
-15.9492
-17.9994
-19.4113
-19.8864
-19.8412
-19.8269
-20.1917
-20.9904
-22.0272
-23.0084
-23.7015
-24.0059
-23.9449
-23.6691
-23.4919
-23.8362
-25.0962
-27.4835
-30.8814
-34.7578
-38.3083
-40.8281
-42.0536
-42.2153
-41.7983
-41.2161
-40.6339
-40.0127
-39.2624
-38.3543
-37.3363
-36.2825
-35.2433
-34.2534
-33.3691
-32.6558
-32.1513
-31.8464
-31.6803
-31.5586
-31.422
-31.2806
-31.1828
-31.1094
-30.9106
-30.3326
-29.1319
-27.2192
-24.7323
-22.0228
-19.5294
-17.6332
-16.54
-16.2448
-16.5679
-17.2327
-17.9626
-18.5601
-18.9538
-19.1694
-19.2283
-19.023
-18.3078
-16.8721
-14.8155
-12.6137
-10.8688
-9.93295
-9.80908
-10.3151
-11.2197
-12.1671
-13.0296
-12.6171
-34.9287
-30.5358
-27.036
-22.2335
-17.8229
-16.0084
-17.0081
-19.2515
-21.0533
-21.7568
-21.6539
-21.3904
-21.4863
-22.1374
-23.1755
-24.2299
-24.9756
-25.2737
-25.1577
-24.7955
-24.522
-24.7938
-26.022
-28.3884
-31.74
-35.5448
-39.027
-41.5084
-42.7316
-42.9186
-42.5419
-42.0065
-41.4762
-40.9136
-40.2253
-39.3701
-38.3858
-37.343
-36.2882
-35.2493
-34.2795
-33.4617
-32.8853
-32.6174
-32.6512
-32.8638
-33.0654
-33.0932
-32.8825
-32.4461
-31.8373
-31.1193
-30.3637
-29.6376
-28.9973
-28.4828
-28.1182
-27.9111
-27.8509
-27.9104
-28.0485
-28.2158
-28.3636
-28.4624
-28.5199
-28.5637
-28.571
-28.3709
-27.6474
-26.1132
-23.7847
-21.0628
-18.5018
-16.4741
-15.0693
-14.2266
-13.8485
-13.8003
-14.1789
-13.782
-35.6371
-31.2335
-28.2212
-24.2379
-20.2047
-18.081
-18.562
-20.5808
-22.5014
-23.4077
-23.3471
-22.9109
-22.7127
-23.095
-23.9978
-25.0832
-26.0145
-26.6404
-26.9855
-27.1876
-27.5126
-28.3003
-29.8116
-32.0912
-34.949
-37.979
-40.6539
-42.537
-43.4816
-43.6601
-43.4031
-42.9882
-42.5311
-42.0126
-41.369
-40.5635
-39.6173
-38.5862
-37.5264
-36.4722
-35.4372
-34.462
-33.6652
-33.2182
-33.2283
-33.6104
-34.0956
-34.3789
-34.2991
-33.871
-33.2132
-32.4567
-31.7092
-31.0399
-30.4857
-30.0605
-29.7682
-29.6062
-29.5622
-29.6125
-29.723
-29.8531
-29.9631
-30.0296
-30.0614
-30.0811
-30.0537
-29.7949
-28.9877
-27.3702
-25.0098
-22.3569
-19.9797
-18.2134
-17.0601
-16.3382
-15.8921
-15.6965
-16.007
-15.6755
-36.3984
-32.6543
-30.5725
-27.937
-24.8575
-22.7129
-22.3936
-23.4723
-24.7556
-25.3594
-25.1419
-24.5411
-24.1325
-24.3272
-25.1951
-26.5158
-27.9973
-29.4517
-30.8122
-32.0936
-33.4025
-34.8697
-36.5473
-38.3552
-40.1475
-41.7662
-43.0629
-43.9363
-44.3751
-44.458
-44.3004
-43.9967
-43.5956
-43.1042
-42.4986
-41.7537
-40.8659
-39.8596
-38.813
-37.7885
-36.7286
-35.564
-34.4089
-33.5625
-33.3097
-33.6794
-34.3704
-34.9334
-35.0808
-34.8027
-34.2636
-33.6402
-33.0511
-32.5474
-32.1386
-31.8172
-31.5794
-31.43
-31.3724
-31.3998
-31.4901
-31.6073
-31.7105
-31.7715
-31.792
-31.7867
-31.7127
-31.3837
-30.4967
-28.8256
-26.4809
-23.9376
-21.7496
-20.2008
-19.2083
-18.5019
-17.9314
-17.611
-17.8865
-17.629
-37.1365
-34.6662
-33.8102
-32.7689
-30.9371
-29.0171
-27.8704
-27.6918
-27.9559
-28.043
-27.7085
-27.1736
-26.848
-27.0987
-28.0834
-29.7161
-31.7635
-33.9693
-36.1222
-38.0911
-39.8582
-41.4403
-42.8181
-43.92
-44.6991
-45.1819
-45.4458
-45.5675
-45.5896
-45.5147
-45.322
-45.0003
-44.5638
-44.0343
-43.4099
-42.6817
-41.8317
-40.8434
-39.8081
-38.8204
-37.751
-36.403
-34.8681
-33.5678
-32.973
-33.2499
-34.098
-34.9514
-35.4054
-35.4117
-35.1503
-34.8055
-34.4747
-34.1797
-33.9134
-33.6698
-33.4603
-33.3093
-33.24
-33.26
-33.3531
-33.4809
-33.5942
-33.6546
-33.6558
-33.6081
-33.4707
-33.0699
-32.1294
-30.4557
-28.1793
-25.7681
-23.7454
-22.3472
-21.4247
-20.6582
-19.9509
-19.5501
-19.8159
-19.6252
-37.497
-36.0782
-36.0647
-36.1588
-35.3494
-33.8161
-32.2536
-31.276
-30.9596
-30.9779
-31.0041
-30.989
-31.0889
-31.5384
-32.5196
-34.0717
-36.0642
-38.2516
-40.3729
-42.2479
-43.8303
-45.1245
-46.1306
-46.8261
-47.2112
-47.3412
-47.3085
-47.1923
-47.0237
-46.7843
-46.4348
-45.9541
-45.3454
-44.6215
-43.7955
-42.9129
-41.9954
-41.0065
-40.0128
-39.0934
-38.0492
-36.5926
-34.8105
-33.2221
-32.4311
-32.6946
-33.712
-34.8457
-35.6183
-35.9544
-36.0291
-36.0062
-35.9436
-35.8329
-35.6671
-35.4653
-35.2692
-35.1249
-35.0658
-35.1028
-35.2181
-35.3679
-35.4941
-35.5483
-35.5174
-35.4116
-35.2033
-34.7464
-33.7984
-32.1855
-30.0276
-27.7586
-25.8649
-24.5483
-23.6201
-22.7513
-21.9272
-21.496
-21.7671
-21.6268
-37.1398
-36.074
-36.2453
-36.7777
-36.5984
-35.5818
-34.1575
-33.0635
-32.7625
-33.1688
-33.9019
-34.6456
-35.2925
-35.9244
-36.7098
-37.7874
-39.1663
-40.7201
-42.2764
-43.7129
-44.9983
-46.1231
-47.069
-47.8013
-48.2978
-48.5726
-48.6682
-48.6185
-48.4262
-48.0769
-47.5624
-46.8721
-45.9669
-44.8169
-43.4789
-42.1453
-40.9871
-40.0092
-39.2051
-38.5196
-37.6235
-36.1787
-34.3289
-32.6939
-31.9434
-32.3426
-33.5625
-34.9317
-35.9591
-36.5743
-36.9517
-37.2246
-37.4023
-37.4462
-37.3575
-37.1905
-37.0203
-36.9072
-36.883
-36.9519
-37.0928
-37.2602
-37.3921
-37.4328
-37.3621
-37.1935
-36.921
-36.4367
-35.5334
-34.0416
-32.0438
-29.9184
-28.1123
-26.8087
-25.8114
-24.8219
-23.9152
-23.4924
-23.769
-23.6572
-35.6262
-34.4957
-34.4803
-35.0413
-35.2301
-34.7987
-33.8489
-32.9485
-32.7287
-33.3662
-34.59
-35.9227
-37.0426
-37.9017
-38.6316
-39.4021
-40.2974
-41.2957
-42.3415
-43.4099
-44.4971
-45.585
-46.6165
-47.5083
-48.1944
-48.6568
-48.9211
-49.0031
-48.8773
-48.528
-47.9757
-47.1724
-45.935
-44.1244
-41.8984
-39.753
-38.1835
-37.348
-37.1189
-37.0995
-36.638
-35.3263
-33.4772
-31.9044
-31.3363
-31.9762
-33.4156
-34.959
-36.1546
-36.9932
-37.6685
-38.2634
-38.7073
-38.919
-38.9188
-38.809
-38.698
-38.6486
-38.678
-38.7787
-38.9294
-39.0916
-39.2077
-39.2196
-39.103
-38.8784
-38.568
-38.1082
-37.3244
-36.0345
-34.2568
-32.2928
-30.5464
-29.2
-28.0858
-26.9719
-26.0186
-25.6274
-25.8879
-25.7744
-33.2549
-32.1273
-31.9326
-32.444
-32.8384
-32.9018
-32.4832
-31.8148
-31.4814
-31.9134
-33.1477
-34.7421
-36.2548
-37.5216
-38.5907
-39.5747
-40.5253
-41.4255
-42.2645
-43.0874
-43.9285
-44.8243
-45.7433
-46.5863
-47.2558
-47.7145
-47.9971
-48.1312
-48.0812
-47.8379
-47.4403
-46.7568
-45.3887
-43.0408
-39.9832
-37.0648
-35.1696
-34.6628
-35.2766
-36.1638
-36.2454
-35.0347
-33.0809
-31.4568
-30.9689
-31.7445
-33.2833
-34.8831
-36.176
-37.2487
-38.3034
-39.321
-40.1056
-40.5249
-40.6322
-40.5868
-40.5268
-40.515
-40.5617
-40.6612
-40.8019
-40.954
-41.0626
-41.0667
-40.939
-40.7061
-40.4136
-40.0354
-39.4229
-38.3742
-36.834
-35.0186
-33.2901
-31.8493
-30.5885
-29.3569
-28.3661
-27.9741
-28.1636
-28.0012
-30.2724
-29.3166
-29.0374
-29.5104
-29.962
-30.3166
-30.3542
-29.9975
-29.611
-29.7278
-30.7208
-32.3415
-34.1447
-35.8658
-37.4304
-38.8487
-40.1072
-41.1571
-41.9791
-42.6417
-43.1941
-43.7492
-44.351
-44.928
-45.3777
-45.6519
-45.7913
-45.8429
-45.7886
-45.6464
-45.4707
-45.0579
-43.8444
-41.4096
-38.0713
-34.8823
-32.9752
-32.8595
-34.1496
-35.6642
-36.0629
-34.8656
-32.7999
-31.0835
-30.5346
-31.2114
-32.5879
-34.0437
-35.3493
-36.6669
-38.14
-39.6038
-40.743
-41.3951
-41.6417
-41.6713
-41.631
-41.5928
-41.5935
-41.6609
-41.8046
-41.9944
-42.1605
-42.2255
-42.1501
-41.958
-41.7065
-41.3986
-40.9164
-40.059
-38.7234
-37.0517
-35.3561
-33.8472
-32.4859
-31.2051
-30.2333
-29.8465
-29.9424
-29.69
-27.2699
-26.582
-26.2679
-26.7262
-27.1722
-27.6881
-28.1272
-28.2153
-28.0233
-28.0005
-28.7379
-30.2366
-32.1553
-34.1833
-36.1254
-37.8807
-39.3816
-40.5663
-41.4081
-41.9744
-42.2885
-42.5027
-42.7306
-42.9485
-43.0787
-43.08
-42.9891
-42.8579
-42.6951
-42.5606
-42.537
-42.4042
-41.5392
-39.448
-36.3993
-33.4466
-31.7827
-31.9794
-33.5901
-35.3005
-35.7548
-34.575
-32.5552
-30.8745
-30.2475
-30.662
-31.6498
-32.7789
-34.0017
-35.5094
-37.325
-39.1392
-40.569
-41.449
-41.8629
-41.9771
-41.9204
-41.7877
-41.6787
-41.6899
-41.8647
-42.161
-42.4706
-42.6764
-42.7148
-42.6002
-42.3944
-42.1192
-41.6844
-40.9107
-39.6907
-38.1303
-36.4937
-34.9747
-33.5763
-32.2984
-31.3676
-30.9755
-30.9688
-30.6155
-24.7208
-24.3014
-23.9629
-24.4308
-24.8768
-25.489
-26.252
-26.8277
-27.0284
-27.0956
-27.6584
-28.9181
-30.7036
-32.7521
-34.8085
-36.6837
-38.263
-39.4823
-40.3195
-40.8365
-41.0104
-40.9868
-40.9178
-40.823
-40.6603
-40.4028
-40.0673
-39.6875
-39.2987
-39.0241
-39.01
-39.0953
-38.6938
-37.2652
-34.9276
-32.5508
-31.2301
-31.551
-33.1093
-34.672
-35.046
-33.9764
-32.2043
-30.7291
-30.096
-30.2368
-30.7914
-31.5435
-32.6029
-34.1502
-36.0946
-38.0482
-39.6281
-40.6847
-41.2718
-41.4888
-41.4173
-41.1705
-40.9271
-40.8752
-41.1059
-41.5592
-42.0656
-42.4473
-42.6094
-42.5642
-42.3796
-42.0822
-41.596
-40.7799
-39.5717
-38.0867
-36.5435
-35.0817
-33.7097
-32.4776
-31.6073
-31.2169
-31.1247
-30.6888
-22.9787
-22.7296
-22.3529
-22.8406
-23.3167
-23.9897
-24.9635
-25.9435
-26.5916
-26.9179
-27.4341
-28.4219
-29.8712
-31.643
-33.5179
-35.2751
-36.764
-37.9097
-38.6926
-39.1714
-39.285
-39.1532
-38.941
-38.6905
-38.374
-37.9554
-37.4054
-36.7237
-35.9814
-35.3975
-35.2341
-35.4577
-35.5815
-35.023
-33.6665
-32.0631
-31.0939
-31.3352
-32.5453
-33.7583
-34.0354
-33.1918
-31.8109
-30.6497
-30.0966
-30.0758
-30.3412
-30.8215
-31.6919
-33.1007
-34.913
-36.7598
-38.3145
-39.4514
-40.1789
-40.5058
-40.4379
-40.0821
-39.6917
-39.5637
-39.8572
-40.493
-41.2152
-41.7607
-42.0028
-41.9693
-41.7459
-41.3556
-40.7265
-39.7697
-38.5056
-37.0878
-35.6837
-34.3493
-33.0698
-31.9298
-31.1441
-30.7724
-30.6222
-30.1375
-22.0461
-21.7986
-21.3553
-21.8414
-22.3563
-23.0503
-24.1037
-25.3243
-26.3422
-26.9951
-27.6035
-28.4078
-29.4834
-30.8214
-32.3061
-33.7568
-35.0213
-36.0135
-36.7044
-37.1446
-37.2514
-37.1209
-36.9211
-36.6985
-36.405
-35.9571
-35.2544
-34.2575
-33.0867
-32.0819
-31.6519
-31.9261
-32.5476
-32.9046
-32.6224
-31.8737
-31.2537
-31.3014
-32.0059
-32.777
-32.9675
-32.4158
-31.4902
-30.6953
-30.3015
-30.2708
-30.4556
-30.8351
-31.5554
-32.7228
-34.2263
-35.786
-37.1666
-38.2766
-39.0839
-39.4962
-39.4141
-38.9099
-38.312
-38.0591
-38.4096
-39.2637
-40.2423
-40.9563
-41.2332
-41.1294
-40.7709
-40.1959
-39.3537
-38.224
-36.9153
-35.6069
-34.3974
-33.2503
-32.1249
-31.1292
-30.4619
-30.134
-29.9562
-29.4574
-21.7008
-21.3156
-20.7875
-21.232
-21.7616
-22.4264
-23.4419
-24.7293
-25.9686
-26.9161
-27.7168
-28.504
-29.3436
-30.2953
-31.3469
-32.4069
-33.3712
-34.1663
-34.7529
-35.1613
-35.2925
-35.2213
-35.1183
-35.0297
-34.8721
-34.4949
-33.7186
-32.466
-30.9043
-29.4854
-28.7534
-28.9903
-29.9715
-31.0851
-31.7464
-31.7839
-31.5041
-31.3774
-31.5999
-31.9504
-32.065
-31.8029
-31.331
-30.9214
-30.7474
-30.8181
-31.0668
-31.4758
-32.1202
-33.059
-34.2229
-35.4394
-36.5769
-37.5958
-38.4325
-38.883
-38.7182
-37.9625
-37.0421
-36.5813
-36.9755
-38.1024
-39.4193
-40.3601
-40.6694
-40.4279
-39.8261
-38.965
-37.8645
-36.5917
-35.3163
-34.1961
-33.2368
-32.323
-31.4041
-30.604
-30.092
-29.8361
-29.6594
-29.1757
-21.5781
-21.0257
-20.4143
-20.778
-21.2817
-21.875
-22.7815
-24.0122
-25.3242
-26.4699
-27.4932
-28.4302
-29.274
-30.0544
-30.7985
-31.5019
-32.1533
-32.7381
-33.2266
-33.6218
-33.7975
-33.7967
-33.7883
-33.8302
-33.8217
-33.5612
-32.8053
-31.4399
-29.6516
-27.9563
-26.9827
-27.1194
-28.2493
-29.7929
-31.0534
-31.6364
-31.6339
-31.4352
-31.3531
-31.42
-31.4901
-31.4628
-31.3716
-31.3134
-31.373
-31.5847
-31.9424
-32.4316
-33.0691
-33.8663
-34.7765
-35.7108
-36.6351
-37.5679
-38.4194
-38.8712
-38.5604
-37.4712
-36.1434
-35.4106
-35.8242
-37.2472
-38.9632
-40.1969
-40.5696
-40.1587
-39.2349
-38.0179
-36.6545
-35.3074
-34.1601
-33.2935
-32.6103
-31.9461
-31.2639
-30.6949
-30.3656
-30.2051
-30.0529
-29.606
-21.5009
-20.8462
-20.1573
-20.4085
-20.8477
-21.3512
-22.1334
-23.2547
-24.5337
-25.7641
-26.9732
-28.1555
-29.2135
-30.0654
-30.6887
-31.1307
-31.4939
-31.8718
-32.278
-32.6889
-32.9307
-32.991
-33.0267
-33.1247
-33.2065
-33.0626
-32.4163
-31.1181
-29.3349
-27.5826
-26.5078
-26.5422
-27.6331
-29.25
-30.6879
-31.4821
-31.6279
-31.4482
-31.2739
-31.239
-31.3134
-31.4413
-31.6037
-31.8011
-32.0507
-32.3843
-32.8306
-33.3899
-34.0515
-34.7895
-35.5581
-36.3196
-37.1142
-38.0069
-38.8855
-39.3436
-38.9187
-37.5662
-35.9093
-34.9372
-35.3281
-36.9526
-38.9786
-40.4611
-40.8898
-40.3061
-39.049
-37.4818
-35.9044
-34.5628
-33.6084
-33.0142
-32.5932
-32.1673
-31.727
-31.3993
-31.2603
-31.2058
-31.0922
-30.6922
-21.4648
-20.7963
-20.0299
-20.1511
-20.5083
-20.9347
-21.6207
-22.6354
-23.8285
-25.0462
-26.3579
-27.7773
-29.1367
-30.207
-30.8538
-31.1302
-31.2521
-31.4487
-31.8049
-32.2733
-32.6134
-32.7348
-32.7689
-32.8454
-32.9452
-32.8946
-32.4171
-31.3339
-29.7644
-28.172
-27.1607
-27.1461
-28.0949
-29.5295
-30.8131
-31.5304
-31.6795
-31.5421
-31.4052
-31.3951
-31.5086
-31.7161
-31.9972
-32.3249
-32.6847
-33.0936
-33.5898
-34.1848
-34.8585
-35.5635
-36.252
-36.9176
-37.6443
-38.5218
-39.4321
-39.9452
-39.5692
-38.2317
-36.5403
-35.493
-35.8054
-37.3915
-39.4332
-40.9446
-41.3358
-40.5912
-39.0753
-37.263
-35.579
-34.3157
-33.5668
-33.2074
-33.0005
-32.7848
-32.5759
-32.4799
-32.5198
-32.5668
-32.4945
-32.136
-21.5812
-20.94
-20.0876
-20.0724
-20.3495
-20.728
-21.3575
-22.2875
-23.3747
-24.5101
-25.8271
-27.394
-29.0056
-30.2979
-31.011
-31.1781
-31.1112
-31.1752
-31.5322
-32.1107
-32.5933
-32.7995
-32.8253
-32.8435
-32.9123
-32.922
-32.6254
-31.8321
-30.6087
-29.3356
-28.5282
-28.5379
-29.3206
-30.4576
-31.4235
-31.9118
-31.9663
-31.8396
-31.7555
-31.794
-31.9383
-32.1645
-32.4642
-32.8213
-33.2189
-33.6623
-34.1811
-34.783
-35.4391
-36.0912
-36.6964
-37.271
-37.9197
-38.7415
-39.6446
-40.2586
-40.1423
-39.1893
-37.8622
-36.9832
-37.1825
-38.4425
-40.1094
-41.3254
-41.5215
-40.6307
-38.9892
-37.107
-35.4584
-34.3323
-33.7614
-33.5663
-33.5128
-33.4773
-33.4858
-33.6044
-33.8044
-33.9407
-33.9057
-33.5706
-21.9122
-21.2857
-20.3465
-20.2037
-20.4175
-20.7765
-21.3771
-22.2384
-23.2159
-24.2325
-25.4743
-27.0678
-28.7983
-30.2118
-30.9514
-31.0289
-30.8292
-30.8261
-31.2441
-31.9825
-32.6488
-32.976
-33.0207
-32.9884
-33.0087
-33.0423
-32.8926
-32.3821
-31.5388
-30.6506
-30.1163
-30.1947
-30.8225
-31.6519
-32.2856
-32.5301
-32.4664
-32.3126
-32.2342
-32.2766
-32.413
-32.6173
-32.8878
-33.2249
-33.6224
-34.08
-34.6128
-35.2129
-35.8346
-36.4081
-36.8954
-37.3303
-37.8276
-38.4981
-39.3105
-40.0202
-40.2966
-39.9961
-39.3479
-38.8588
-38.9685
-39.7227
-40.7241
-41.3788
-41.242
-40.2296
-38.6105
-36.8437
-35.3637
-34.4065
-33.9587
-33.8427
-33.8774
-33.9887
-34.196
-34.5105
-34.853
-35.0682
-35.0679
-34.7386
-22.4278
-21.7802
-20.769
-20.5185
-20.6866
-21.0389
-21.6144
-22.4057
-23.2731
-24.1606
-25.2831
-26.8074
-28.5246
-29.9381
-30.6411
-30.6376
-30.3608
-30.3553
-30.881
-31.8051
-32.6736
-33.1527
-33.2617
-33.2206
-33.2062
-33.2382
-33.18
-32.8909
-32.3805
-31.8494
-31.571
-31.7064
-32.1812
-32.731
-33.0848
-33.1386
-32.9824
-32.7882
-32.6754
-32.6767
-32.7726
-32.9382
-33.171
-33.4801
-33.8691
-34.3367
-34.8861
-35.4923
-36.0875
-36.5817
-36.93
-37.1723
-37.433
-37.8482
-38.4705
-39.2041
-39.8481
-40.2314
-40.3431
-40.3473
-40.4505
-40.7254
-41.0249
-41.0538
-40.5526
-39.4662
-37.9926
-36.484
-35.2648
-34.484
-34.099
-33.9786
-34.028
-34.2298
-34.5917
-35.0679
-35.5321
-35.8194
-35.8581
-35.5339
-23.0604
-22.371
-21.3187
-20.9863
-21.1199
-21.4614
-21.9989
-22.7107
-23.4737
-24.2469
-25.2493
-26.6626
-28.286
-29.6179
-30.2433
-30.1732
-29.8676
-29.9037
-30.5522
-31.6494
-32.7031
-33.34
-33.5512
-33.5527
-33.5379
-33.5615
-33.5413
-33.3857
-33.1049
-32.8293
-32.7221
-32.8621
-33.176
-33.4832
-33.6194
-33.5413
-33.328
-33.1045
-32.9548
-32.9109
-32.967
-33.1026
-33.3114
-33.6031
-33.987
-34.4631
-35.0301
-35.6519
-36.24
-36.6769
-36.8939
-36.9223
-36.8965
-36.9918
-37.3479
-38.0001
-38.8575
-39.7406
-40.4658
-40.9312
-41.1366
-41.1319
-40.9314
-40.4779
-39.6985
-38.6072
-37.3571
-36.18
-35.2599
-34.6447
-34.2754
-34.0853
-34.0725
-34.2782
-34.7082
-35.2769
-35.8216
-36.1671
-36.2498
-35.9518
-23.6877
-22.9621
-21.9041
-21.5122
-21.6104
-21.9237
-22.403
-23.0258
-23.6958
-24.3847
-25.2988
-26.614
-28.1333
-29.3684
-29.9222
-29.8208
-29.5317
-29.633
-30.3864
-31.6052
-32.788
-33.5559
-33.8865
-33.9787
-34.0119
-34.0435
-34.0265
-33.9161
-33.7386
-33.5826
-33.5345
-33.6163
-33.7621
-33.8577
-33.8176
-33.6374
-33.3834
-33.1441
-32.9796
-32.9208
-32.9679
-33.103
-33.3149
-33.6088
-33.9958
-34.4795
-35.0596
-35.6966
-36.289
-36.6917
-36.8025
-36.631
-36.3189
-36.0857
-36.1482
-36.6345
-37.5263
-38.6502
-39.7394
-40.5449
-40.9283
-40.8831
-40.4774
-39.7875
-38.8849
-37.869
-36.8796
-36.0472
-35.4221
-34.9604
-34.593
-34.3099
-34.1828
-34.3017
-34.6865
-35.2435
-35.7967
-36.1664
-36.2881
-36.0467
-24.1711
-23.4337
-22.3996
-21.9627
-22.0165
-22.2813
-22.687
-23.2202
-23.8153
-24.4544
-25.3226
-26.5791
-28.0269
-29.1999
-29.73
-29.6579
-29.4365
-29.615
-30.4299
-31.6838
-32.8988
-33.7285
-34.1568
-34.3591
-34.4766
-34.5388
-34.5083
-34.3766
-34.1984
-34.0521
-33.9832
-33.977
-33.9685
-33.8834
-33.6876
-33.4063
-33.1052
-32.8518
-32.694
-32.6592
-32.7396
-32.913
-33.1624
-33.4838
-33.8871
-34.3811
-34.9699
-35.6157
-36.2122
-36.5946
-36.6276
-36.2931
-35.7349
-35.2124
-35.0035
-35.2943
-36.1037
-37.2687
-38.5037
-39.511
-40.0835
-40.1528
-39.7688
-39.0545
-38.1718
-37.2946
-36.5666
-36.0441
-35.6756
-35.3517
-35.0005
-34.6486
-34.4062
-34.3895
-34.6391
-35.0824
-35.5595
-35.9032
-36.045
-35.8776
-24.4479
-23.729
-22.7372
-22.2587
-22.2516
-22.4491
-22.7746
-23.2269
-23.7666
-24.3832
-25.2408
-26.4839
-27.9212
-29.1141
-29.7207
-29.7771
-29.6897
-29.9473
-30.7528
-31.921
-33.0394
-33.8321
-34.3054
-34.6041
-34.8135
-34.9161
-34.8654
-34.6774
-34.4392
-34.2415
-34.1155
-34.0222
-33.8871
-33.6517
-33.3125
-32.9205
-32.5517
-32.2664
-32.1117
-32.1098
-32.2369
-32.4658
-32.7777
-33.1578
-33.6067
-34.1311
-34.7352
-35.3848
-35.9789
-36.3496
-36.3426
-35.916
-35.2069
-34.4963
-34.0999
-34.2353
-34.9373
-36.0511
-37.2992
-38.3829
-39.0723
-39.2581
-38.9609
-38.3165
-37.5361
-36.8357
-36.3503
-36.0774
-35.9007
-35.6831
-35.3632
-34.9873
-34.6722
-34.5335
-34.6246
-34.9037
-35.2468
-35.5174
-35.6487
-35.5312
-24.4844
-23.7979
-22.8487
-22.3325
-22.2609
-22.3873
-22.6378
-23.0236
-23.5246
-24.1329
-24.9947
-26.244
-27.699
-28.951
-29.6844
-29.9261
-30.0197
-30.3719
-31.1374
-32.1482
-33.0768
-33.7427
-34.1934
-34.5494
-34.8365
-34.9815
-34.9187
-34.6832
-34.3976
-34.1718
-34.0253
-33.8867
-33.6591
-33.2904
-32.8086
-32.2984
-31.8556
-31.5343
-31.3852
-31.431
-31.6241
-31.924
-32.3091
-32.7505
-33.2404
-33.79
-34.4076
-35.0604
-35.6522
-36.0171
-35.9901
-35.5102
-34.7049
-33.8678
-33.3419
-33.3683
-33.9914
-35.0591
-36.2986
-37.4163
-38.1754
-38.4454
-38.2301
-37.672
-37.0078
-36.4682
-36.1683
-36.0618
-36.0003
-35.8473
-35.5609
-35.1962
-34.8568
-34.6401
-34.5999
-34.7205
-34.9177
-35.093
-35.1833
-35.075
-24.7463
-24.1332
-23.2428
-22.6491
-22.4501
-22.4614
-22.6226
-22.9446
-23.4062
-23.9968
-24.862
-26.1695
-27.8039
-29.4088
-30.6454
-31.4154
-31.8702
-32.2611
-32.7278
-33.2353
-33.6698
-34.0141
-34.3377
-34.6806
-34.9862
-35.1445
-35.091
-34.8654
-34.5857
-34.3488
-34.16
-33.9386
-33.5904
-33.075
-32.4331
-31.7615
-31.1654
-30.7083
-30.461
-30.4398
-30.5858
-30.8695
-31.3014
-31.8573
-32.49
-33.163
-33.8545
-34.5306
-35.1252
-35.525
-35.6082
-35.3187
-34.7442
-34.1176
-33.7342
-33.8191
-34.4279
-35.4279
-36.555
-37.5108
-38.0591
-38.1013
-37.7129
-37.1145
-36.5709
-36.2581
-36.1815
-36.2058
-36.1699
-35.9907
-35.6852
-35.3246
-34.9874
-34.7373
-34.6103
-34.5933
-34.6242
-34.634
-34.5951
-34.3302
)
;
    }
    outlet
    {
        type            calculated;
        value           nonuniform List<scalar> 
3200
(
11.1348
15.0683
13.4338
12.4574
11.6619
10.9968
10.4202
9.82624
9.07698
8.22667
6.22309
4.59335
2.93476
1.31477
-0.120016
-1.29243
-2.1575
-2.70772
-3.02368
-3.12695
-2.01468
-2.50218
-2.85287
-3.35788
-4.45196
-5.96874
-7.54689
-8.94146
-10.0067
-10.6439
-10.8083
-10.5092
-9.7898
-8.75955
-7.50834
-6.11691
-4.68453
-3.35787
-2.25553
-1.41465
-0.972306
-0.892005
-1.11806
-2.19291
-4.79114
-7.65371
-9.66723
-10.9404
-11.7647
-12.3979
-13.0146
-13.6117
-14.0149
-13.8779
-12.643
-9.90104
-6.54648