/*--------------------------------*- C++ -*----------------------------------*\
| =========                 |                                                 |
| \\      /  F ield         | OpenFOAM: The Open Source CFD Toolbox           |
|  \\    /   O peration     | Version:  v2012                                 |
|   \\  /    A nd           | Website:  www.openfoam.com                      |
|    \\/     M anipulation  |                                                 |
\*---------------------------------------------------------------------------*/
FoamFile
{
    version     2.0;
    format      ascii;
    class       volScalarField;
    location    "50/air";
    object      rho;
}
// * * * * * * * * * * * * * * * * * * * * * * * * * * * * * * * * * * * * * //

dimensions      [1 -3 0 0 0 0 0];


internalField   nonuniform List<scalar> 
287104
(
0.999278
0.998635
0.9981
0.997641
0.997233
0.99686
0.996514
0.996191
0.995886
0.995598
0.995324
0.995064
0.994816
0.994581
0.994358
0.994147
0.993949
0.993764
0.993593
0.993433
0.993286
0.99315
0.993026
0.992912
0.992809
0.992714
0.992625
0.992541
0.992461
0.992386
0.992317
0.992252
0.992193
0.992139
0.992091
0.992047
0.992007
0.991971
0.991938
0.991908
0.99188
0.991854
0.991829
0.991805
0.991783
0.991762
0.991742
0.991723
0.991705
0.991688
0.991672
0.991657
0.991643
0.991632
0.991621
0.991613
0.991607
0.991603
0.9916
0.991599
0.991599
0.991598
0.991598
0.991596
0.991593
0.991588
0.991581
0.991572
0.991562
0.99155
0.991536
0.991521
0.991506
0.99149
0.991474
0.991458
0.991443
0.991427
0.991412
0.991398
0.991385
0.991372
0.99136
0.991347
0.991333
0.991313
0.991279
0.991223
0.991137
0.99103
0.999292
0.998661
0.998138
0.997691
0.997293
0.99693
0.996594
0.99628
0.995985
0.995705
0.99544
0.995188
0.994948
0.994721
0.994506
0.994304
0.994115
0.993938
0.993775
0.993623
0.993484
0.993355
0.993237
0.99313
0.993032
0.992941
0.992855
0.992775
0.992699
0.992628
0.992562
0.992501
0.992446
0.992396
0.992351
0.992311
0.992275
0.992243
0.992214
0.992188
0.992164
0.992142
0.992122
0.992102
0.992083
0.992065
0.992047
0.992029
0.992012
0.991995
0.991979
0.991964
0.99195
0.991938
0.991927
0.991917
0.991909
0.991903
0.991898
0.991894
0.99189
0.991886
0.991882
0.991876
0.991869
0.99186
0.991849
0.991837
0.991823
0.991807
0.99179
0.991772
0.991754
0.991735
0.991717
0.991698
0.99168
0.991662
0.991644
0.991627
0.991611
0.991595
0.99158
0.991565
0.991547
0.991524
0.991486
0.991427
0.991339
0.991229
0.999306
0.998689
0.998178
0.997743
0.997356
0.997004
0.996678
0.996373
0.996086
0.995815
0.995558
0.995315
0.995083
0.994864
0.994658
0.994464
0.994282
0.994114
0.993959
0.993815
0.993683
0.993562
0.993452
0.993353
0.993263
0.99318
0.993102
0.99303
0.992963
0.992901
0.992844
0.992793
0.992748
0.992709
0.992675
0.992647
0.992622
0.992601
0.992583
0.992567
0.992554
0.992541
0.99253
0.992519
0.992509
0.992499
0.992488
0.992478
0.992468
0.992457
0.992446
0.992435
0.992425
0.992415
0.992406
0.992398
0.992391
0.992384
0.992379
0.992375
0.99237
0.992365
0.992359
0.992352
0.992343
0.992332
0.992319
0.992304
0.992287
0.992268
0.992249
0.992228
0.992207
0.992185
0.992164
0.992143
0.992121
0.992101
0.99208
0.99206
0.992041
0.992023
0.992005
0.991987
0.991967
0.991941
0.9919
0.991837
0.991746
0.991633
0.999321
0.998719
0.998221
0.997798
0.997424
0.997082
0.996767
0.996472
0.996195
0.995933
0.995685
0.995451
0.995228
0.995019
0.994821
0.994636
0.994465
0.994305
0.994159
0.994025
0.993902
0.99379
0.993689
0.993599
0.993519
0.993446
0.993379
0.993318
0.993263
0.993214
0.993171
0.993134
0.993104
0.993081
0.993063
0.993051
0.993042
0.993038
0.993036
0.993035
0.993037
0.99304
0.993043
0.993046
0.993048
0.99305
0.993051
0.993051
0.99305
0.993048
0.993044
0.99304
0.993035
0.99303
0.993025
0.993021
0.993017
0.993013
0.99301
0.993007
0.993004
0.993
0.992995
0.992988
0.992979
0.992967
0.992954
0.992939
0.992921
0.992902
0.992882
0.992861
0.992839
0.992817
0.992795
0.992774
0.992752
0.992731
0.992711
0.992691
0.992672
0.992653
0.992635
0.992616
0.992594
0.992566
0.992523
0.992458
0.992365
0.992251
0.999337
0.99875
0.998266
0.997856
0.997494
0.997164
0.996859
0.996575
0.996308
0.996056
0.995818
0.995594
0.995382
0.995182
0.994994
0.99482
0.994658
0.994509
0.994373
0.994248
0.994136
0.994034
0.993945
0.993868
0.993799
0.993739
0.993684
0.993636
0.993595
0.99356
0.993532
0.993512
0.993499
0.993492
0.993492
0.993497
0.993507
0.99352
0.993535
0.993552
0.99357
0.993589
0.993608
0.993625
0.993642
0.993657
0.99367
0.993681
0.99369
0.993697
0.993702
0.993705
0.993707
0.993707
0.993708
0.993707
0.993707
0.993707
0.993706
0.993705
0.993704
0.993701
0.993697
0.993691
0.993683
0.993672
0.99366
0.993645
0.993628
0.993609
0.993589
0.993568
0.993546
0.993524
0.993503
0.993481
0.99346
0.993439
0.993418
0.993399
0.993379
0.993361
0.993343
0.993324
0.993303
0.993275
0.993233
0.993168
0.993075
0.992962
0.999353
0.998781
0.998311
0.997914
0.997564
0.997246
0.996952
0.996678
0.996421
0.996179
0.995952
0.995737
0.995535
0.995345
0.995168
0.995003
0.994852
0.994713
0.994586
0.994472
0.994369
0.994278
0.9942
0.994133
0.994076
0.994027
0.993984
0.993948
0.993919
0.993897
0.993883
0.993877
0.993879
0.993888
0.993904
0.993926
0.993952
0.993981
0.994011
0.994044
0.994076
0.99411
0.994143
0.994174
0.994204
0.994231
0.994255
0.994276
0.994295
0.99431
0.994323
0.994334
0.994342
0.994349
0.994354
0.994358
0.994362
0.994365
0.994368
0.994369
0.99437
0.994369
0.994367
0.994362
0.994355
0.994346
0.994335
0.99432
0.994304
0.994286
0.994267
0.994246
0.994225
0.994204
0.994183
0.994161
0.99414
0.994119
0.994099
0.994079
0.994059
0.994041
0.994022
0.994003
0.993982
0.993954
0.993911
0.993846
0.993754
0.993643
0.999368
0.998811
0.998355
0.997971
0.997633
0.997325
0.997042
0.996777
0.99653
0.996298
0.996079
0.995874
0.995682
0.995501
0.995334
0.995178
0.995036
0.994906
0.994789
0.994683
0.994589
0.994507
0.994438
0.99438
0.994332
0.994292
0.99426
0.994234
0.994216
0.994205
0.994202
0.994207
0.994222
0.994244
0.994274
0.994309
0.994349
0.994391
0.994435
0.994481
0.994526
0.994572
0.994617
0.99466
0.994701
0.994738
0.994772
0.994802
0.994829
0.994852
0.994871
0.994888
0.994903
0.994915
0.994925
0.994934
0.994941
0.994948
0.994953
0.994957
0.99496
0.994961
0.99496
0.994957
0.994952
0.994943
0.994933
0.99492
0.994904
0.994887
0.994868
0.994849
0.994828
0.994807
0.994786
0.994765
0.994745
0.994724
0.994703
0.994683
0.994663
0.994644
0.994626
0.994607
0.994586
0.994558
0.994516
0.994451
0.994361
0.994252
0.999383
0.998841
0.998398
0.998025
0.997698
0.997401
0.997127
0.996872
0.996634
0.996411
0.996201
0.996004
0.99582
0.995648
0.995489
0.995342
0.995208
0.995086
0.994977
0.994879
0.994792
0.994717
0.994655
0.994604
0.994564
0.994532
0.994507
0.99449
0.994479
0.994476
0.994481
0.994495
0.994519
0.994551
0.994591
0.994638
0.99469
0.994744
0.994799
0.994856
0.994913
0.994971
0.995027
0.995081
0.995131
0.995178
0.99522
0.995258
0.995292
0.995322
0.995348
0.995372
0.995392
0.995409
0.995424
0.995437
0.995447
0.995457
0.995465
0.995471
0.995476
0.995478
0.995478
0.995476
0.995472
0.995464
0.995454
0.995442
0.995427
0.995411
0.995393
0.995374
0.995354
0.995333
0.995313
0.995292
0.995272
0.995252
0.995231
0.995212
0.995192
0.995173
0.995154
0.995135
0.995114
0.995086
0.995043
0.994978
0.994887
0.994779
0.999398
0.998869
0.998438
0.998077
0.997761
0.997474
0.997209
0.996963
0.996733
0.996518
0.996315
0.996126
0.995948
0.995781
0.995626
0.995482
0.995351
0.995231
0.995122
0.995025
0.99494
0.994865
0.994803
0.994753
0.994715
0.994686
0.994666
0.994653
0.994647
0.994649
0.994659
0.994678
0.994709
0.994749
0.9948
0.994858
0.994922
0.99499
0.995059
0.995131
0.995203
0.995276
0.995347
0.995416
0.99548
0.99554
0.995594
0.995643
0.995687
0.995728
0.995764
0.995797
0.995825
0.99585
0.995871
0.995888
0.995903
0.995916
0.995927
0.995935
0.995941
0.995945
0.995946
0.995944
0.99594
0.995933
0.995923
0.995911
0.995896
0.995879
0.995861
0.995841
0.995821
0.9958
0.995779
0.995759
0.995738
0.995718
0.995698
0.995679
0.995661
0.995643
0.995625
0.995606
0.995585
0.995557
0.995513
0.995448
0.995357
0.995247
0.999412
0.998896
0.998477
0.998127
0.997821
0.997543
0.997288
0.99705
0.996828
0.99662
0.996418
0.996218
0.996021
0.995828
0.995641
0.995464
0.995297
0.995144
0.995004
0.994878
0.994767
0.99467
0.99459
0.99453
0.994485
0.994455
0.994438
0.994431
0.994434
0.994447
0.994471
0.994506
0.994556
0.99462
0.994697
0.994786
0.994882
0.994984
0.99509
0.995198
0.995307
0.995416
0.995524
0.995627
0.995725
0.995816
0.9959
0.995978
0.99605
0.996117
0.996178
0.996233
0.996282
0.996324
0.996359
0.996389
0.996414
0.996434
0.99645
0.996461
0.996469
0.996474
0.996475
0.996472
0.996465
0.996456
0.996444
0.996428
0.996411
0.996391
0.996371
0.996349
0.996327
0.996305
0.996284
0.996263
0.996244
0.996228
0.996216
0.99621
0.996205
0.996199
0.996191
0.99618
0.996165
0.996142
0.996102
0.996038
0.995948
0.995838
0.999425
0.998921
0.998514
0.998174
0.997878
0.99761
0.997363
0.997134
0.996919
0.996711
0.996341
0.99594
0.995539
0.995152
0.994787
0.994449
0.994143
0.99387
0.993633
0.993433
0.993272
0.993149
0.993064
0.993017
0.993015
0.993054
0.993118
0.993199
0.993288
0.993382
0.99348
0.993586
0.993706
0.99384
0.99399
0.994149
0.99431
0.994468
0.99462
0.994767
0.99491
0.995047
0.995179
0.995299
0.995405
0.995497
0.995578
0.995655
0.99573
0.995805
0.995877
0.995943
0.996002
0.996053
0.996097
0.996136
0.996169
0.996199
0.996225
0.996247
0.996266
0.996282
0.996294
0.996302
0.996307
0.996308
0.996306
0.996299
0.996289
0.996276
0.99626
0.99624
0.996218
0.996193
0.996166
0.996138
0.996109
0.996084
0.996071
0.99612
0.996236
0.996336
0.99642
0.996491
0.996548
0.996589
0.996604
0.996587
0.996537
0.996454
0.999437
0.998945
0.998549
0.998219
0.997932
0.997673
0.997436
0.997215
0.997008
0.996808
0.996455
0.99607
0.995684
0.99531
0.994957
0.994629
0.99433
0.994064
0.993833
0.993638
0.993481
0.993363
0.993284
0.993243
0.993238
0.993277
0.99335
0.993443
0.993547
0.993656
0.993767
0.993883
0.994009
0.994152
0.994312
0.994484
0.99466
0.994834
0.995002
0.995163
0.995319
0.995469
0.995611
0.995738
0.99585
0.995947
0.996035
0.996122
0.996211
0.9963
0.996387
0.996466
0.996536
0.996596
0.996648
0.996692
0.996731
0.996765
0.996795
0.99682
0.996842
0.99686
0.996874
0.996884
0.99689
0.996891
0.996888
0.996882
0.996871
0.996856
0.996838
0.996817
0.996793
0.996766
0.996737
0.996707
0.996677
0.99665
0.996636
0.996681
0.996788
0.99688
0.996957
0.997023
0.997076
0.997113
0.997125
0.997105
0.997054
0.99697
0.999449
0.998968
0.998582
0.998262
0.997985
0.997735
0.997506
0.997294
0.997096
0.996904
0.996567
0.996199
0.99583
0.995473
0.995135
0.994822
0.994538
0.994285
0.994067
0.993885
0.99374
0.993633
0.993565
0.993535
0.993541
0.993593
0.993676
0.993779
0.993893
0.994011
0.994129
0.994249
0.994378
0.994521
0.994683
0.99486
0.995045
0.995229
0.995407
0.995577
0.995742
0.995899
0.996046
0.996177
0.996292
0.996392
0.996486
0.996581
0.99668
0.996781
0.996877
0.996965
0.997041
0.997107
0.997164
0.997213
0.997256
0.997292
0.997323
0.99735
0.997373
0.997392
0.997407
0.997417
0.997423
0.997424
0.997421
0.997413
0.9974
0.997384
0.997364
0.997341
0.997315
0.997288
0.997258
0.997227
0.997196
0.997169
0.997153
0.997196
0.997297
0.997383
0.997455
0.997516
0.997564
0.997596
0.997603
0.997579
0.997523
0.997435
0.99946
0.998991
0.998615
0.998305
0.998037
0.997796
0.997576
0.997373
0.997184
0.997
0.996681
0.996331
0.99598
0.995641
0.99532
0.995023
0.994755
0.994517
0.994313
0.994144
0.994013
0.993919
0.993864
0.993845
0.993862
0.993923
0.994015
0.994127
0.994251
0.994379
0.994507
0.994635
0.994768
0.994914
0.995078
0.995259
0.995449
0.995642
0.995828
0.996007
0.996179
0.996342
0.996492
0.996626
0.996743
0.996846
0.996947
0.99705
0.997159
0.997269
0.997372
0.997465
0.997546
0.997616
0.997676
0.997728
0.997773
0.997811
0.997844
0.997871
0.997893
0.997912
0.997926
0.997936
0.99794
0.99794
0.997935
0.997925
0.997911
0.997893
0.997872
0.997847
0.99782
0.997791
0.997761
0.997729
0.997697
0.997669
0.997651
0.997688
0.99778
0.997858
0.997923
0.997978
0.998021
0.998048
0.998051
0.998022
0.997962
0.997872
0.999472
0.999014
0.998649
0.998349
0.998091
0.99786
0.997649
0.997455
0.997274
0.9971
0.996798
0.996467
0.996135
0.995813
0.99551
0.99523
0.994977
0.994754
0.994565
0.994411
0.994294
0.994214
0.994171
0.994165
0.994194
0.994264
0.994364
0.994484
0.994616
0.994755
0.994895
0.995034
0.995176
0.995327
0.995493
0.995675
0.99587
0.996069
0.996264
0.99645
0.996629
0.996797
0.99695
0.997085
0.997204
0.997312
0.997421
0.997534
0.997651
0.997768
0.997876
0.997973
0.998057
0.998129
0.998192
0.998245
0.998291
0.99833
0.998363
0.99839
0.998412
0.998429
0.998442
0.99845
0.998453
0.998451
0.998444
0.998432
0.998416
0.998396
0.998373
0.998348
0.99832
0.99829
0.998259
0.998227
0.998194
0.998164
0.998144
0.998176
0.998257
0.998328
0.998387
0.998436
0.998474
0.998497
0.998497
0.998464
0.998401
0.998308
0.999485
0.999039
0.998685
0.998396
0.998148
0.997927
0.997726
0.997541
0.99737
0.997204
0.99692
0.996608
0.996295
0.995992
0.995707
0.995444
0.995207
0.995
0.994825
0.994685
0.994583
0.994517
0.994489
0.994496
0.994537
0.994617
0.994724
0.99485
0.994989
0.995136
0.995287
0.995439
0.995591
0.99575
0.995921
0.996105
0.996302
0.996505
0.996707
0.996901
0.997085
0.997257
0.997411
0.997546
0.997668
0.997783
0.9979
0.998021
0.998145
0.998265
0.998375
0.998474
0.99856
0.998635
0.998699
0.998755
0.998801
0.99884
0.998873
0.998899
0.998921
0.998936
0.998947
0.998953
0.998953
0.998949
0.99894
0.998926
0.998909
0.998888
0.998864
0.998837
0.998809
0.998778
0.998746
0.998713
0.998679
0.998647
0.998625
0.998651
0.998723
0.998786
0.998839
0.998883
0.998917
0.998936
0.998932
0.998896
0.99883
0.998735
0.999499
0.999067
0.998725
0.998448
0.99821
0.997999
0.997808
0.997633
0.99747
0.997314
0.997048
0.996755
0.996461
0.996177
0.99591
0.995665
0.995444
0.995252
0.995091
0.994966
0.994877
0.994827
0.994813
0.994835
0.99489
0.994981
0.995096
0.995226
0.995367
0.995519
0.995677
0.995839
0.996003
0.996171
0.996348
0.996534
0.996731
0.996937
0.997145
0.997346
0.997535
0.997709
0.997863
0.997999
0.998124
0.998245
0.998368
0.998493
0.998618
0.998738
0.998848
0.998947
0.999036
0.999114
0.999181
0.999238
0.999285
0.999324
0.999357
0.999383
0.999403
0.999418
0.999426
0.999429
0.999428
0.999421
0.99941
0.999395
0.999376
0.999354
0.999329
0.999302
0.999273
0.999242
0.999209
0.999174
0.999139
0.999105
0.999081
0.999102
0.999165
0.999222
0.999269
0.999309
0.999339
0.999355
0.999348
0.999309
0.999241
0.999144
0.999515
0.999097
0.998768
0.998502
0.998276
0.998076
0.997894
0.997728
0.997575
0.997427
0.997179
0.996904
0.996629
0.996364
0.996116
0.995888
0.995684
0.995506
0.99536
0.995247
0.995172
0.995136
0.995138
0.995175
0.995248
0.995351
0.995473
0.995605
0.995746
0.995896
0.996054
0.99622
0.996391
0.996566
0.996747
0.996934
0.99713
0.997336
0.997547
0.997753
0.997947
0.998122
0.998274
0.998412
0.998541
0.998667
0.998793
0.998918
0.99904
0.999156
0.999265
0.999367
0.99946
0.999543
0.999614
0.999673
0.999723
0.999763
0.999796
0.999822
0.999842
0.999856
0.999863
0.999865
0.999861
0.999852
0.999839
0.999823
0.999803
0.99978
0.999754
0.999726
0.999695
0.999663
0.999628
0.999592
0.999555
0.99952
0.999494
0.999511
0.999566
0.999617
0.99966
0.999697
0.999725
0.999738
0.999729
0.999689
0.999619
0.999521
0.99953
0.999127
0.998812
0.998558
0.998343
0.998153
0.997981
0.997824
0.997679
0.99754
0.997309
0.997052
0.996796
0.99655
0.996321
0.996112
0.995925
0.995763
0.995631
0.995533
0.995472
0.995452
0.995472
0.995527
0.99562
0.995738
0.995866
0.995998
0.996131
0.996269
0.996415
0.99657
0.996734
0.996905
0.997081
0.997263
0.997452
0.997652
0.997861
0.998069
0.998264
0.998437
0.998589
0.998728
0.99886
0.998987
0.999111
0.999232
0.99935
0.999463
0.999574
0.999681
0.999782
0.999872
0.99995
1.00001
1.00007
1.00011
1.00014
1.00017
1.00019
1.0002
1.00021
1.00021
1.00021
1.0002
1.00018
1.00017
1.00014
1.00012
1.00009
1.00006
1.00003
0.999994
0.999957
0.999919
0.999881
0.999844
0.999816
0.999828
0.999875
0.99992
0.99996
0.999994
1.00002
1.00003
1.00002
0.999983
0.999914
0.999816
0.999546
0.999157
0.998855
0.998613
0.998409
0.998228
0.998065
0.997917
0.99778
0.997648
0.997433
0.997195
0.996958
0.996733
0.996527
0.996345
0.996186
0.996054
0.995952
0.995883
0.995851
0.995858
0.995903
0.995982
0.996089
0.996209
0.996329
0.996444
0.996554
0.996662
0.996776
0.996899
0.997031
0.997173
0.997324
0.997483
0.997646
0.997819
0.997998
0.998177
0.998349
0.998505
0.998648
0.998789
0.998931
0.999071
0.999206
0.999338
0.999467
0.999595
0.999724
0.99985
0.999969
1.00008
1.00017
1.00024
1.0003
1.00035
1.00039
1.00042
1.00044
1.00046
1.00046
1.00046
1.00046
1.00045
1.00043
1.00041
1.00039
1.00036
1.00034
1.0003
1.00027
1.00023
1.00019
1.00015
1.00011
1.00007
1.00004
1.00005
1.00009
1.00013
1.00017
1.0002
1.00022
1.00023
1.00022
1.00018
1.00011
1.00001
0.99956
0.999185
0.998895
0.998665
0.99847
0.998299
0.998145
0.998005
0.997876
0.997758
0.997648
0.997547
0.997456
0.997376
0.997307
0.997249
0.997201
0.997164
0.997138
0.997125
0.997127
0.997146
0.997184
0.997238
0.997307
0.997386
0.997471
0.997559
0.99765
0.997745
0.997845
0.997954
0.998072
0.998198
0.998334
0.998478
0.998627
0.998782
0.998938
0.999091
0.999229
0.999352
0.999464
0.999567
0.999662
0.999751
0.999835
0.999917
1
1.00009
1.00018
1.00028
1.00038
1.00048
1.00058
1.00067
1.00075
1.00083
1.0009
1.00096
1.00102
1.00106
1.00111
1.00114
1.00117
1.00119
1.00121
1.00122
1.00123
1.00123
1.00123
1.00122
1.00121
1.0012
1.00118
1.00116
1.00114
1.00112
1.00109
1.00107
1.00105
1.00102
1.001
1.00097
1.00093
1.00089
1.00083
1.00074
1.00062
1.00048
0.999574
0.999213
0.998934
0.998715
0.998531
0.998369
0.998223
0.99809
0.997969
0.997859
0.99776
0.997671
0.997595
0.99753
0.997478
0.997437
0.997407
0.997387
0.997377
0.997379
0.997394
0.997426
0.997476
0.997542
0.997624
0.997716
0.997814
0.997915
0.998017
0.998121
0.998229
0.998342
0.998461
0.998588
0.998724
0.998868
0.999019
0.999174
0.999327
0.999476
0.999613
0.999734
0.99985
0.999958
1.00006
1.00015
1.00024
1.00032
1.0004
1.00049
1.00057
1.00066
1.00074
1.00083
1.0009
1.00097
1.00103
1.00109
1.00114
1.00119
1.00123
1.00126
1.00129
1.00131
1.00133
1.00135
1.00135
1.00136
1.00135
1.00135
1.00134
1.00132
1.00131
1.00129
1.00127
1.00124
1.00122
1.00119
1.00116
1.00113
1.0011
1.00107
1.00104
1.001
1.00096
1.00091
1.00084
1.00075
1.00063
1.00049
0.999589
0.999241
0.998976
0.998768
0.998594
0.998442
0.998305
0.998181
0.998069
0.997967
0.997877
0.997798
0.997731
0.997678
0.997637
0.997609
0.997593
0.997586
0.997588
0.997601
0.997626
0.997668
0.997727
0.997806
0.9979
0.998006
0.998118
0.998233
0.99835
0.998469
0.998589
0.99871
0.998835
0.998965
0.999103
0.999249
0.999401
0.999557
0.999708
0.999851
0.999981
1.0001
1.00021
1.00031
1.00041
1.0005
1.00059
1.00067
1.00075
1.00083
1.00092
1.001
1.00108
1.00115
1.00121
1.00127
1.00132
1.00136
1.0014
1.00144
1.00147
1.00149
1.00151
1.00152
1.00153
1.00153
1.00153
1.00152
1.00151
1.0015
1.00148
1.00147
1.00145
1.00143
1.0014
1.00138
1.00135
1.00133
1.0013
1.00127
1.00124
1.00121
1.00118
1.00114
1.00111
1.00106
1.001
1.00091
1.0008
1.00066
0.999606
0.999275
0.999024
0.998829
0.998668
0.998527
0.998401
0.998288
0.998185
0.998094
0.998013
0.997945
0.997889
0.997846
0.997818
0.997803
0.9978
0.997807
0.997824
0.997849
0.997885
0.997937
0.998006
0.998094
0.998198
0.998315
0.998439
0.998567
0.998698
0.998831
0.998965
0.999098
0.999233
0.999371
0.999516
0.999668
0.999823
0.999981
1.00013
1.00027
1.00039
1.00049
1.0006
1.0007
1.0008
1.0009
1.00099
1.00107
1.00115
1.00123
1.00132
1.00139
1.00147
1.00154
1.00159
1.00165
1.00169
1.00173
1.00176
1.00178
1.0018
1.00182
1.00182
1.00182
1.00182
1.00181
1.0018
1.00178
1.00176
1.00173
1.00171
1.00168
1.00165
1.00162
1.0016
1.00157
1.00154
1.00151
1.00148
1.00146
1.00143
1.0014
1.00138
1.00135
1.00132
1.00128
1.00123
1.00115
1.00105
1.00092
0.999627
0.999316
0.999083
0.998905
0.998759
0.998632
0.99852
0.998419
0.998328
0.998248
0.998179
0.998123
0.998079
0.998049
0.998033
0.998032
0.998043
0.998066
0.998097
0.998137
0.998186
0.998249
0.998328
0.998425
0.998539
0.998665
0.998798
0.998937
0.99908
0.999226
0.999372
0.999518
0.999665
0.999815
0.999971
1.00013
1.00029
1.00045
1.00059
1.00071
1.00082
1.00092
1.00102
1.00111
1.00121
1.00131
1.00141
1.00149
1.00158
1.00166
1.00174
1.00181
1.00188
1.00193
1.00198
1.00201
1.00203
1.00204
1.00204
1.00203
1.002
1.00198
1.00194
1.0019
1.00186
1.00181
1.00176
1.00172
1.00167
1.00163
1.00159
1.00156
1.00153
1.0015
1.00147
1.00145
1.00143
1.00142
1.0014
1.00139
1.00138
1.00137
1.00136
1.00136
1.00135
1.00134
1.0013
1.00125
1.00117
1.00106
0.999652
0.999365
0.999154
0.998996
0.998869
0.998759
0.998663
0.998577
0.998501
0.998435
0.99838
0.998336
0.998306
0.998289
0.998287
0.998299
0.998324
0.998361
0.998408
0.998462
0.998526
0.9986
0.998689
0.998795
0.998916
0.999049
0.999191
0.999338
0.99949
0.999645
0.999803
0.999961
1.00012
1.00029
1.00046
1.00063
1.00079
1.00094
1.00107
1.00117
1.00125
1.00132
1.00141
1.0015
1.0016
1.00169
1.00178
1.00185
1.00191
1.00196
1.002
1.00202
1.00203
1.00203
1.00201
1.00197
1.00193
1.00187
1.00181
1.00175
1.00168
1.00161
1.00155
1.00148
1.00142
1.00137
1.00132
1.00128
1.00124
1.00121
1.00119
1.00117
1.00115
1.00115
1.00114
1.00115
1.00115
1.00116
1.00117
1.00118
1.0012
1.00122
1.00124
1.00126
1.00128
1.00129
1.00129
1.00126
1.0012
1.00112
0.999681
0.999421
0.999235
0.9991
0.998993
0.998904
0.998826
0.998757
0.998698
0.998648
0.998609
0.998581
0.998565
0.998563
0.998574
0.998599
0.998638
0.998688
0.998748
0.998817
0.998893
0.99898
0.999079
0.999193
0.99932
0.99946
0.999608
0.999762
0.99992
1.00008
1.00025
1.00041
1.00059
1.00077
1.00095
1.00114
1.0013
1.00146
1.00155
1.00159
1.0016
1.00161
1.00165
1.00169
1.00173
1.00177
1.00178
1.00178
1.00177
1.00175
1.00172
1.00169
1.00165
1.00161
1.00155
1.0015
1.00143
1.00137
1.0013
1.00124
1.00118
1.00113
1.00108
1.00104
1.001
1.00097
1.00095
1.00093
1.00092
1.00092
1.00092
1.00092
1.00094
1.00095
1.00097
1.001
1.00102
1.00105
1.00108
1.00111
1.00115
1.00119
1.00123
1.00127
1.0013
1.00133
1.00134
1.00133
1.00129
1.00123
0.999711
0.999479
0.999319
0.999207
0.999123
0.999054
0.998996
0.998946
0.998905
0.998873
0.99885
0.998839
0.998839
0.998852
0.998878
0.998916
0.998966
0.999027
0.999099
0.999179
0.999267
0.999365
0.999474
0.999595
0.999728
0.999873
1.00003
1.00019
1.00035
1.00051
1.00068
1.00086
1.00104
1.00124
1.00144
1.00164
1.0018
1.00194
1.00191
1.00178
1.00161
1.00149
1.00147
1.00146
1.00147
1.00147
1.00146
1.00144
1.00141
1.00137
1.00132
1.00128
1.00123
1.00118
1.00114
1.00109
1.00104
1.00099
1.00094
1.0009
1.00087
1.00084
1.00082
1.0008
1.00079
1.00079
1.0008
1.0008
1.00082
1.00084
1.00086
1.00089
1.00092
1.00095
1.00099
1.00103
1.00107
1.00111
1.00115
1.0012
1.00125
1.00129
1.00134
1.00139
1.00144
1.00148
1.0015
1.00149
1.00146
1.00141
0.999739
0.999535
0.999398
0.999309
0.999245
0.999196
0.999157
0.999126
0.999102
0.999087
0.999081
0.999086
0.999102
0.999131
0.99917
0.999221
0.999281
0.999351
0.99943
0.999519
0.999616
0.999722
0.999839
0.999967
1.00011
1.00025
1.00041
1.00058
1.00074
1.00091
1.00109
1.00127
1.00146
1.00167
1.00188
1.00207
1.00222
1.0023
1.00214
1.00192
1.00172
1.0016
1.00156
1.00152
1.0015
1.00148
1.00144
1.00139
1.00133
1.00126
1.0012
1.00113
1.00107
1.00102
1.00097
1.00092
1.00088
1.00084
1.00081
1.00078
1.00077
1.00076
1.00076
1.00076
1.00077
1.00079
1.00081
1.00083
1.00086
1.00089
1.00093
1.00097
1.00102
1.00106
1.00111
1.00116
1.00121
1.00126
1.00131
1.00136
1.00141
1.00147
1.00152
1.00158
1.00163
1.00167
1.0017
1.0017
1.00167
1.00162
0.999763
0.999582
0.999466
0.999396
0.99935
0.999318
0.999294
0.999278
0.99927
0.999269
0.999278
0.999297
0.999327
0.99937
0.999422
0.999484
0.999553
0.999629
0.999713
0.999806
0.999908
1.00002
1.00014
1.00028
1.00042
1.00057
1.00073
1.0009
1.00107
1.00124
1.00142
1.0016
1.00179
1.002
1.0022
1.00239
1.00253
1.00258
1.00252
1.0024
1.00232
1.00231
1.00216
1.00205
1.00196
1.00186
1.00174
1.00162
1.0015
1.00139
1.00128
1.00118
1.00109
1.00102
1.00096
1.00091
1.00087
1.00083
1.00081
1.00079
1.00078
1.00079
1.0008
1.00081
1.00084
1.00086
1.00089
1.00092
1.00096
1.001
1.00105
1.0011
1.00115
1.00121
1.00126
1.00132
1.00137
1.00143
1.00148
1.00154
1.00159
1.00165
1.00171
1.00177
1.00182
1.00187
1.0019
1.0019
1.00188
1.00183
0.999782
0.999617
0.999517
0.999461
0.999429
0.999409
0.999397
0.999393
0.999395
0.999405
0.999424
0.999454
0.999495
0.999548
0.99961
0.999681
0.999757
0.999839
0.999926
1.00002
1.00012
1.00024
1.00036
1.0005
1.00064
1.00079
1.00095
1.00112
1.00128
1.00145
1.00162
1.0018
1.00199
1.00219
1.00238
1.00256
1.0027
1.00273
1.00281
1.00281
1.00283
1.00291
1.00269
1.0025
1.00235
1.00219
1.00202
1.00186
1.00169
1.00154
1.00139
1.00127
1.00116
1.00107
1.001
1.00095
1.0009
1.00087
1.00085
1.00084
1.00084
1.00085
1.00086
1.00089
1.00091
1.00094
1.00098
1.00102
1.00106
1.00111
1.00116
1.00121
1.00127
1.00133
1.00139
1.00145
1.00151
1.00157
1.00163
1.00168
1.00174
1.0018
1.00187
1.00193
1.00198
1.00203
1.00207
1.00207
1.00205
1.002
0.999794
0.999641
0.999551
0.999504
0.99948
0.999468
0.999464
0.999466
0.999474
0.999491
0.999515
0.999551
0.999597
0.999655
0.999724
0.999801
0.999883
0.999969
1.00006
1.00015
1.00026
1.00037
1.00049
1.00063
1.00077
1.00091
1.00106
1.00122
1.00137
1.00153
1.00169
1.00187
1.00205
1.00223
1.0024
1.00255
1.00266
1.00271
1.00294
1.00306
1.00317
1.0033
1.00302
1.00279
1.0026
1.00241
1.00222
1.00204
1.00185
1.00167
1.00151
1.00136
1.00124
1.00114
1.00106
1.001
1.00095
1.00092
1.0009
1.00089
1.00089
1.0009
1.00092
1.00095
1.00098
1.00101
1.00104
1.00108
1.00113
1.00118
1.00124
1.0013
1.00136
1.00142
1.00148
1.00155
1.00161
1.00167
1.00173
1.00179
1.00186
1.00192
1.00198
1.00205
1.00211
1.00216
1.00219
1.0022
1.00218
1.00214
0.9998
0.999653
0.999568
0.999526
0.999506
0.999498
0.999497
0.999501
0.999512
0.999531
0.999557
0.999594
0.999642
0.999702
0.999773
0.999853
0.999939
1.00003
1.00012
1.00022
1.00032
1.00043
1.00055
1.00067
1.00081
1.00094
1.00108
1.00121
1.00135
1.00149
1.00165
1.00181
1.00198
1.00214
1.00227
1.00235
1.00239
1.00243
1.00289
1.00326
1.00351
1.00368
1.00338
1.00312
1.0029
1.00269
1.00248
1.00228
1.00207
1.00187
1.00168
1.0015
1.00135
1.00122
1.00113
1.00105
1.001
1.00095
1.00093
1.00092
1.00093
1.00094
1.00096
1.00099
1.00101
1.00104
1.00108
1.00112
1.00117
1.00122
1.00128
1.00135
1.00141
1.00148
1.00154
1.00161
1.00167
1.00174
1.0018
1.00187
1.00193
1.002
1.00207
1.00213
1.0022
1.00225
1.00229
1.0023
1.00229
1.00224
0.999801
0.999655
0.999571
0.99953
0.999511
0.999503
0.999502
0.999507
0.999518
0.999536
0.999563
0.999599
0.999647
0.999706
0.999778
0.999859
0.999948
1.00004
1.00014
1.00023
1.00034
1.00044
1.00056
1.00068
1.00079
1.00091
1.00103
1.00114
1.00125
1.00137
1.00152
1.00168
1.00183
1.00196
1.00202
1.00201
1.00197
1.00191
1.00231
1.00269
1.00305
1.00336
1.00321
1.00307
1.00295
1.00283
1.0027
1.00254
1.00236
1.00215
1.00194
1.00174
1.00156
1.00141
1.00129
1.00119
1.00112
1.00107
1.00103
1.00102
1.00101
1.00102
1.00103
1.00105
1.00107
1.0011
1.00113
1.00117
1.00122
1.00127
1.00133
1.00139
1.00146
1.00153
1.00159
1.00166
1.00173
1.00179
1.00186
1.00193
1.002
1.00207
1.00214
1.00221
1.00228
1.00233
1.00237
1.00239
1.00237
1.00233
0.999798
0.999648
0.999562
0.999519
0.999498
0.999488
0.999486
0.99949
0.9995
0.999517
0.999543
0.999579
0.999625
0.999684
0.999755
0.999838
0.999929
1.00003
1.00012
1.00023
1.00033
1.00044
1.00055
1.00065
1.00075
1.00085
1.00093
1.00101
1.0011
1.0012
1.00133
1.00148
1.00161
1.00171
1.00172
1.00168
1.00154
1.00135
1.00175
1.0021
1.00243
1.00273
1.00251
1.00238
1.00236
1.00238
1.00242
1.00243
1.00238
1.00227
1.00212
1.00195
1.00178
1.00162
1.00149
1.00138
1.0013
1.00123
1.00119
1.00116
1.00114
1.00113
1.00114
1.00115
1.00116
1.00118
1.0012
1.00124
1.00129
1.00134
1.0014
1.00146
1.00153
1.00159
1.00166
1.00173
1.0018
1.00187
1.00194
1.00201
1.00208
1.00215
1.00222
1.00229
1.00236
1.00242
1.00247
1.00248
1.00247
1.00243
0.999792
0.999637
0.999546
0.999498
0.999473
0.999461
0.999456
0.999458
0.999467
0.999483
0.999507
0.999542
0.999588
0.999646
0.999716
0.999799
0.999891
0.99999
1.00009
1.0002
1.00031
1.00042
1.00052
1.00062
1.0007
1.00077
1.00082
1.00085
1.00089
1.00097
1.00109
1.00124
1.00138
1.00148
1.00148
1.0015
1.00119
1.00064
1.0012
1.00172
1.00212
1.00239
1.00159
1.00116
1.0013
1.00156
1.00185
1.00207
1.0022
1.00222
1.00216
1.00206
1.00194
1.00181
1.00168
1.00158
1.00149
1.00142
1.00137
1.00133
1.00131
1.0013
1.00129
1.00129
1.00129
1.00131
1.00133
1.00137
1.00141
1.00146
1.00152
1.00158
1.00164
1.00171
1.00178
1.00185
1.00192
1.00199
1.00206
1.00213
1.0022
1.00227
1.00235
1.00242
1.00249
1.00255
1.0026
1.00261
1.0026
1.00256
0.999787
0.999626
0.99953
0.999478
0.999449
0.999433
0.999425
0.999424
0.999431
0.999445
0.999469
0.999502
0.999547
0.999603
0.999672
0.999753
0.999845
0.999944
1.00005
1.00016
1.00027
1.00038
1.00049
1.00058
1.00064
1.00069
1.00069
1.00067
1.00067
1.00073
1.00086
1.00103
1.0012
1.00134
1.00134
1.00153
1.00136
1.00137
1.00175
1.00201
1.00214
1.00218
1.00214
1.00206
1.00196
1.00186
1.00175
1.00166
1.00159
1.00153
1.00149
1.00147
1.00145
1.00144
1.00144
1.00144
1.00145
1.00147
1.0015
1.00154
1.00159
1.00164
1.0017
1.00177
1.00184
1.0019
1.00197
1.00205
1.00212
1.00219
1.00226
1.00233
1.0024
1.00247
1.00255
1.00262
1.00269
1.00274
1.00278
1.0028
1.00278
1.00274
0.999784
0.999621
0.999521
0.999466
0.999434
0.999415
0.999405
0.999402
0.999407
0.99942
0.999441
0.999473
0.999517
0.999572
0.999639
0.999717
0.999806
0.999903
1.00001
1.00012
1.00023
1.00035
1.00046
1.00055
1.00061
1.00064
1.00056
1.00047
1.00044
1.0005
1.00071
1.00094
1.00117
1.00133
1.00132
1.00155
1.00133
1.00143
1.00163
1.00179
1.00191
1.00189
1.00184
1.00178
1.00171
1.00164
1.00157
1.00152
1.00149
1.00147
1.00147
1.00148
1.0015
1.00152
1.00155
1.00158
1.00161
1.00165
1.0017
1.00176
1.00182
1.00189
1.00196
1.00203
1.00211
1.00218
1.00226
1.00233
1.0024
1.00247
1.00254
1.00261
1.00268
1.00274
1.00281
1.00287
1.00293
1.00298
1.00301
1.00302
1.00299
1.00293
0.999784
0.99962
0.999521
0.999465
0.999432
0.999413