/*--------------------------------*- C++ -*----------------------------------*\
| =========                 |                                                 |
| \\      /  F ield         | OpenFOAM: The Open Source CFD Toolbox           |
|  \\    /   O peration     | Version:  v2012                                 |
|   \\  /    A nd           | Website:  www.openfoam.com                      |
|    \\/     M anipulation  |                                                 |
\*---------------------------------------------------------------------------*/
FoamFile
{
    version     2.0;
    format      ascii;
    class       volScalarField;
    location    "50/air";
    object      specHum;
}
// * * * * * * * * * * * * * * * * * * * * * * * * * * * * * * * * * * * * * //

dimensions      [1 -3 0 0 0 0 0];


internalField   nonuniform List<scalar> 
287104
(
0.016
0.016
0.016
0.016
0.016
0.016
0.016
0.016
0.016
0.016
0.016
0.016
0.016
0.016
0.016
0.016
0.016
0.016
0.016
0.016
0.0159999
0.0159999
0.0159998
0.0159998
0.0159997
0.0159995
0.0159994
0.0159992
0.0159989
0.0159987
0.0159983
0.015998
0.0159976
0.0159972
0.0159968
0.0159964
0.015996
0.0159957
0.0159954
0.0159952
0.0159951
0.0159951
0.0159953
0.0159955
0.0159959
0.0159964
0.015997
0.0159977
0.0159984
0.0159992
0.016
0.0160008
0.0160016
0.0160022
0.0160028
0.0160032
0.0160035
0.0160036
0.0160037
0.0160036
0.0160034
0.0160031
0.0160027
0.0160023
0.0160019
0.0160015
0.0160011
0.0160007
0.0160004
0.0160001
0.0159998
0.0159996
0.0159996
0.0159996
0.0159997
0.0159997
0.0159999
0.0160002
0.0160005
0.0160008
0.0160011
0.0160014
0.0160017
0.0160019
0.0160022
0.0160024
0.0160026
0.0160027
0.0160028
0.0160029
0.016
0.016
0.016
0.016
0.016
0.016
0.016
0.016
0.016
0.016
0.016
0.016
0.016
0.016
0.016
0.016
0.016
0.016
0.016
0.016
0.0159999
0.0159999
0.0159998
0.0159998
0.0159997
0.0159995
0.0159993
0.0159991
0.0159988
0.0159985
0.0159981
0.0159977
0.0159973
0.0159968
0.0159964
0.0159959
0.0159955
0.0159951
0.0159947
0.0159945
0.0159943
0.0159943
0.0159944
0.0159946
0.015995
0.0159955
0.0159962
0.0159969
0.0159977
0.0159986
0.0159995
0.0160004
0.0160013
0.016002
0.0160027
0.0160032
0.0160036
0.0160039
0.016004
0.0160039
0.0160037
0.0160033
0.0160029
0.0160024
0.0160018
0.0160013
0.0160007
0.0160002
0.0159997
0.0159993
0.0159991
0.015999
0.015999
0.0159991
0.0159993
0.0159997
0.0160001
0.0160006
0.0160012
0.0160018
0.0160025
0.016003
0.0160035
0.016004
0.0160045
0.0160048
0.0160051
0.0160053
0.0160054
0.0160054
0.016
0.016
0.016
0.016
0.016
0.016
0.016
0.016
0.016
0.016
0.016
0.016
0.016
0.016
0.016
0.016
0.016
0.016
0.016
0.016
0.0159999
0.0159999
0.0159998
0.0159998
0.0159996
0.0159995
0.0159993
0.0159991
0.0159988
0.0159984
0.0159981
0.0159976
0.0159972
0.0159967
0.0159961
0.0159956
0.0159951
0.0159946
0.0159942
0.0159938
0.0159936
0.0159935
0.0159935
0.0159937
0.015994
0.0159944
0.015995
0.0159957
0.0159965
0.0159974
0.0159983
0.0159992
0.0160001
0.0160009
0.0160017
0.0160023
0.0160028
0.0160031
0.0160033
0.0160034
0.0160033
0.0160031
0.0160027
0.0160023
0.0160019
0.0160014
0.0160009
0.0160005
0.0160002
0.016
0.0159999
0.0159999
0.0160001
0.0160003
0.0160008
0.0160013
0.0160019
0.0160026
0.0160033
0.016004
0.0160047
0.0160054
0.016006
0.0160065
0.0160069
0.0160071
0.0160073
0.0160074
0.0160074
0.0160072
0.016
0.016
0.016
0.016
0.016
0.016
0.016
0.016
0.016
0.016
0.016
0.016
0.016
0.016
0.016
0.016
0.016
0.016
0.016
0.016
0.016
0.0159999
0.0159999
0.0159998
0.0159997
0.0159996
0.0159994
0.0159992
0.0159989
0.0159986
0.0159983
0.0159978
0.0159974
0.0159969
0.0159963
0.0159958
0.0159952
0.0159947
0.0159942
0.0159938
0.0159935
0.0159933
0.0159932
0.0159933
0.0159936
0.015994
0.0159945
0.0159952
0.015996
0.0159968
0.0159978
0.0159987
0.0159996
0.0160005
0.0160014
0.0160021
0.0160027
0.0160031
0.0160034
0.0160036
0.0160037
0.0160036
0.0160034
0.0160032
0.016003
0.0160028
0.0160025
0.0160024
0.0160023
0.0160023
0.0160023
0.0160026
0.0160029
0.0160034
0.016004
0.0160046
0.0160053
0.0160062
0.016007
0.0160078
0.0160085
0.0160092
0.0160098
0.0160102
0.0160105
0.0160107
0.0160107
0.0160106
0.0160104
0.01601
0.016
0.016
0.016
0.016
0.016
0.016
0.016
0.016
0.016
0.016
0.016
0.016
0.016
0.016
0.016
0.016
0.016
0.016
0.016
0.016
0.016
0.016
0.0159999
0.0159999
0.0159998
0.0159997
0.0159996
0.0159994
0.0159991
0.0159988
0.0159984
0.015998
0.0159975
0.015997
0.0159964
0.0159957
0.0159951
0.0159945
0.0159939
0.0159934
0.0159929
0.0159926
0.0159924
0.0159923
0.0159924
0.0159927
0.0159931
0.0159936
0.0159943
0.0159951
0.015996
0.0159969
0.0159978
0.0159987
0.0159995
0.0160003
0.016001
0.0160015
0.0160019
0.0160022
0.0160024
0.0160025
0.0160025
0.0160024
0.0160023
0.0160022
0.0160021
0.0160021
0.0160021
0.0160022
0.0160024
0.0160028
0.0160033
0.0160038
0.0160044
0.0160052
0.016006
0.0160069
0.0160077
0.0160085
0.0160093
0.01601
0.0160105
0.0160109
0.0160112
0.0160113
0.0160112
0.0160109
0.0160105
0.01601
0.016
0.016
0.016
0.016
0.016
0.016
0.016
0.016
0.016
0.016
0.016
0.016
0.016
0.016
0.016
0.016
0.016
0.016
0.016
0.016
0.016
0.016
0.016
0.016
0.0159999
0.0159999
0.0159998
0.0159996
0.0159994
0.0159992
0.0159988
0.0159984
0.015998
0.0159974
0.0159969
0.0159962
0.0159956
0.0159949
0.0159943
0.0159937
0.0159932
0.0159927
0.0159925
0.0159923
0.0159923
0.0159925
0.0159928
0.0159933
0.015994
0.0159947
0.0159956
0.0159965
0.0159974
0.0159983
0.0159993
0.0160001
0.0160009
0.0160015
0.0160021
0.0160025
0.0160028
0.0160031
0.0160032
0.0160033
0.0160033
0.0160033
0.0160033
0.0160034
0.0160035
0.0160038
0.0160041
0.0160045
0.016005
0.0160057
0.0160064
0.0160073
0.0160081
0.016009
0.0160099
0.0160108
0.0160116
0.0160123
0.0160129
0.0160133
0.0160135
0.0160136
0.0160135
0.0160131
0.0160127
0.0160121
0.016
0.016
0.016
0.016
0.016
0.016
0.016
0.016
0.016
0.016
0.016
0.016
0.016
0.016
0.016
0.016
0.016
0.016
0.016
0.0160001
0.0160001
0.0160001
0.0160001
0.0160001
0.0160001
0.016
0.016
0.0159999
0.0159997
0.0159995
0.0159992
0.0159989
0.0159984
0.0159979
0.0159973
0.0159966
0.0159959
0.0159952
0.0159945
0.0159938
0.0159931
0.0159926
0.0159922
0.0159919
0.0159917
0.0159918
0.015992
0.0159923
0.0159928
0.0159935
0.0159942
0.015995
0.0159959
0.0159968
0.0159976
0.0159985
0.0159992
0.0159999
0.0160004
0.0160009
0.0160012
0.0160015
0.0160017
0.0160018
0.0160019
0.0160021
0.0160022
0.0160023
0.0160026
0.0160028
0.0160032
0.0160037
0.0160043
0.016005
0.0160058
0.0160066
0.0160075
0.0160085
0.0160094
0.0160103
0.0160112
0.0160119
0.0160125
0.0160129
0.0160132
0.0160132
0.0160131
0.0160128
0.0160123
0.0160116
0.016
0.016
0.016
0.016
0.016
0.016
0.016
0.016
0.016
0.016
0.016
0.016
0.016
0.016
0.016
0.016
0.016
0.0160001
0.0160001
0.0160001
0.0160002
0.0160002
0.0160002
0.0160003
0.0160003
0.0160003
0.0160004
0.0160003
0.0160003
0.0160001
0.0159999
0.0159997
0.0159993
0.0159988
0.0159983
0.0159976
0.0159969
0.0159962
0.0159955
0.0159947
0.015994
0.0159933
0.0159928
0.0159923
0.015992
0.0159919
0.0159919
0.0159921
0.0159924
0.0159929
0.0159935
0.0159942
0.015995
0.0159958
0.0159965
0.0159973
0.015998
0.0159987
0.0159992
0.0159997
0.0160001
0.0160004
0.0160007
0.0160009
0.0160011
0.0160012
0.0160014
0.0160016
0.0160018
0.0160021
0.0160026
0.0160031
0.0160037
0.0160045
0.0160053
0.0160062
0.0160071
0.0160081
0.016009
0.01601
0.0160108
0.0160115
0.0160121
0.0160126
0.0160128
0.0160129
0.0160127
0.0160124
0.0160118
0.0160111
0.016
0.016
0.016
0.016
0.016
0.016
0.016
0.016
0.016
0.016
0.016
0.016
0.0160001
0.0160001
0.0160002
0.0160003
0.0160004
0.0160006
0.0160008
0.016001
0.0160013
0.0160016
0.0160019
0.0160022
0.0160025
0.0160029
0.0160032
0.0160035
0.0160038
0.016004
0.0160042
0.0160043
0.0160042
0.0160041
0.0160038
0.0160035
0.016003
0.0160024
0.0160017
0.016001
0.0160002
0.0159994
0.0159986
0.0159979
0.0159973
0.0159969
0.0159965
0.0159963
0.0159962
0.0159963
0.0159965
0.0159968
0.0159972
0.0159976
0.0159981
0.0159986
0.0159991
0.0159996
0.0160001
0.0160004
0.0160008
0.0160011
0.0160013
0.0160015
0.0160017
0.0160018
0.016002
0.0160022
0.0160025
0.0160029
0.0160033
0.0160039
0.0160045
0.0160052
0.016006
0.0160069
0.0160078
0.0160088
0.0160097
0.0160105
0.0160112
0.0160118
0.0160123
0.0160127
0.0160128
0.0160128
0.0160126
0.0160122
0.0160116
0.0160108
0.016
0.016
0.016
0.016
0.016
0.016
0.016
0.016
0.016
0.016
0.0160004
0.0160011
0.0160022
0.0160036
0.0160053
0.0160071
0.0160092
0.0160114
0.0160137
0.016016
0.0160184
0.0160208
0.0160232
0.0160256
0.0160279
0.0160301
0.0160324
0.0160346
0.0160367
0.0160386
0.0160405
0.0160421
0.0160435
0.0160446
0.0160454
0.0160458
0.0160459
0.0160457
0.0160452
0.0160444
0.0160433
0.0160421
0.0160407
0.0160392
0.0160376
0.0160361
0.0160347
0.0160333
0.0160321
0.016031
0.0160301
0.0160294
0.0160288
0.0160284
0.0160281
0.016028
0.016028
0.016028
0.0160281
0.0160283
0.0160285
0.0160287
0.016029
0.0160293
0.0160296
0.0160299
0.0160303
0.0160308
0.0160313
0.0160319
0.0160325
0.0160332
0.016034
0.0160348
0.0160356
0.0160364
0.0160371
0.0160376
0.0160378
0.0160372
0.0160361
0.0160349
0.0160337
0.0160325
0.0160311
0.0160296
0.016028
0.0160263
0.0160244
0.0160225
0.016
0.016
0.016
0.016
0.016
0.016
0.016
0.016
0.016
0.0160001
0.0160228
0.016045
0.0160669
0.0160887
0.0161103
0.0161315
0.0161522
0.0161723
0.0161914
0.0162094
0.016226
0.016241
0.0162542
0.0162655
0.0162745
0.0162812
0.0162862
0.0162899
0.0162928
0.016295
0.0162967
0.0162979
0.0162986
0.0162986
0.0162982
0.0162972
0.016296
0.0162946
0.0162932
0.0162916
0.01629
0.0162883
0.0162865
0.016285
0.0162837
0.0162827
0.0162819
0.0162813
0.0162806
0.01628
0.0162795
0.016279
0.0162786
0.0162783
0.016278
0.0162777
0.0162773
0.0162769
0.0162764
0.0162759
0.0162753
0.0162746
0.0162739
0.0162732
0.0162726
0.016272
0.0162714
0.0162709
0.0162706
0.0162704
0.0162704
0.0162706
0.0162711
0.0162717
0.0162725
0.0162734
0.0162742
0.0162748
0.0162747
0.0162713
0.0162402
0.0162157
0.0161955
0.0161784
0.0161635
0.01615
0.0161379
0.0161267
0.0161163
0.0161067
0.016
0.016
0.016
0.016
0.016
0.016
0.016
0.016
0.016
0.0160001
0.0160226
0.0160447
0.0160666
0.0160885
0.0161102
0.0161317
0.0161528
0.0161732
0.0161929
0.0162114
0.0162286
0.0162441
0.0162579
0.0162696
0.0162794
0.0162868
0.0162922
0.016296
0.0162988
0.0163009
0.0163025
0.0163036
0.0163043
0.0163043
0.0163037
0.0163026
0.0163012
0.0162996
0.0162979
0.0162961
0.0162942
0.0162923
0.0162904
0.0162886
0.0162872
0.016286
0.016285
0.016284
0.016283
0.016282
0.016281
0.01628
0.0162792
0.0162785
0.0162779
0.0162773
0.0162766
0.0162759
0.0162752
0.0162744
0.0162736
0.0162728
0.0162719
0.016271
0.0162702
0.0162693
0.0162687
0.0162681
0.0162676
0.0162674
0.0162673
0.0162675
0.016268
0.0162686
0.0162693
0.0162701
0.0162709
0.0162715
0.0162713
0.016268
0.0162371
0.0162128
0.0161929
0.0161759
0.0161611
0.0161478
0.0161357
0.0161246
0.0161143
0.0161048
0.016
0.016
0.016
0.016
0.016
0.016
0.016
0.016
0.016
0.0160001
0.0160224
0.0160443
0.016066
0.0160876
0.0161091
0.0161303
0.0161511
0.0161714
0.0161908
0.0162091
0.0162261
0.0162414
0.016255
0.0162666
0.0162762
0.0162832
0.0162883
0.0162919
0.0162946
0.0162966
0.0162981
0.0162993
0.0163
0.0163002
0.0162997
0.0162987
0.0162973
0.0162956
0.0162938
0.016292
0.0162901
0.0162881
0.0162862
0.0162845
0.0162831
0.0162819
0.0162808
0.0162797
0.0162785
0.0162772
0.016276
0.0162749
0.0162739
0.016273
0.0162722
0.0162714
0.0162707
0.0162699
0.0162691
0.0162682
0.0162672
0.0162662
0.0162652
0.0162642
0.0162632
0.0162622
0.0162614
0.0162607
0.0162603
0.01626
0.0162599
0.0162601
0.0162604
0.0162609
0.0162616
0.0162624
0.0162631
0.0162636
0.0162633
0.0162599
0.0162295
0.0162056
0.016186
0.0161694
0.0161548
0.0161418
0.0161299
0.0161191
0.0161091
0.0160998
0.016
0.016
0.016
0.016
0.016
0.016
0.016
0.016
0.016
0.0160001
0.0160221
0.0160438
0.0160653
0.0160866
0.0161078
0.0161288
0.0161493
0.0161693
0.0161884
0.0162065
0.0162231
0.0162382
0.0162515
0.0162629
0.0162722
0.0162791
0.0162839
0.0162874
0.0162898
0.0162916
0.0162929
0.016294
0.0162947
0.0162948
0.0162944
0.0162934
0.0162919
0.0162901
0.0162882
0.0162863
0.0162843
0.0162823
0.0162804
0.0162787
0.0162773
0.0162761
0.0162749
0.0162737
0.0162723
0.016271
0.0162696
0.0162684
0.0162673
0.0162664
0.0162655
0.0162646
0.0162637
0.0162628
0.0162618
0.0162609
0.0162598
0.0162587
0.0162576
0.0162564
0.0162553
0.0162543
0.0162534
0.0162527
0.0162522
0.0162519
0.0162517
0.0162518
0.0162521
0.0162526
0.0162532
0.0162539
0.0162545
0.016255
0.0162548
0.0162515
0.0162216
0.0161983
0.0161791
0.0161628
0.0161485
0.0161359
0.0161244
0.0161138
0.0161041
0.0160951
0.016
0.016
0.016
0.016
0.016
0.016
0.016
0.016
0.016
0.0160001
0.0160219
0.0160433
0.0160645
0.0160856
0.0161066
0.0161272
0.0161475
0.0161672
0.016186
0.0162038
0.0162201
0.0162349
0.0162479
0.016259
0.0162681
0.0162747
0.0162793
0.0162826
0.0162848
0.0162864
0.0162875
0.0162883
0.0162888
0.0162889
0.0162884
0.0162873
0.0162858
0.016284
0.016282
0.01628
0.0162779
0.0162759
0.0162741
0.0162725
0.0162711
0.01627
0.0162688
0.0162675
0.0162661
0.0162646
0.0162633
0.016262
0.016261
0.01626
0.016259
0.0162581
0.0162572
0.0162563
0.0162553
0.0162542
0.0162531
0.016252
0.0162508
0.0162496
0.0162484
0.0162474
0.0162464
0.0162457
0.0162451
0.0162447
0.0162445
0.0162445
0.0162447
0.0162451
0.0162456
0.0162463
0.0162469
0.0162474
0.0162472
0.016244
0.0162147
0.0161918
0.0161731
0.0161572
0.0161433
0.016131
0.0161198
0.0161095
0.0161001
0.0160914
0.016
0.016
0.016
0.016
0.016
0.016
0.016
0.016
0.016
0.0160001
0.0160216
0.0160428
0.0160637
0.0160846
0.0161052
0.0161256
0.0161456
0.016165
0.0161836
0.016201
0.0162171
0.0162316
0.0162442
0.016255
0.0162637
0.01627
0.0162745
0.0162776
0.0162797
0.016281
0.0162818
0.0162824
0.0162826
0.0162824
0.0162818
0.0162807
0.0162792
0.0162773
0.0162752
0.0162731
0.016271
0.016269
0.0162672
0.0162657
0.0162645
0.0162633
0.0162621
0.0162607
0.0162594
0.0162579
0.0162567
0.0162555
0.0162545
0.0162536
0.0162526
0.0162518
0.0162509
0.0162499
0.016249
0.0162479
0.0162468
0.0162456
0.0162444
0.0162432
0.0162421
0.016241
0.01624
0.0162392
0.0162386
0.0162381
0.0162379
0.0162378
0.0162379
0.0162382
0.0162386
0.0162392
0.0162398
0.0162403
0.0162402
0.016237
0.0162084
0.016186
0.0161677
0.0161522
0.0161387
0.0161267
0.0161158
0.0161059
0.0160967
0.0160884
0.016
0.016
0.016
0.016
0.016
0.016
0.016
0.016
0.016
0.0160001
0.0160213
0.0160422
0.0160629
0.0160835
0.0161039
0.016124
0.0161437
0.0161628
0.0161811
0.0161983
0.016214
0.0162282
0.0162405
0.0162508
0.0162592
0.0162652
0.0162694
0.0162723
0.0162742
0.0162753
0.0162759
0.0162761
0.016276
0.0162756
0.0162748
0.0162736
0.016272
0.01627
0.0162678
0.0162656
0.0162635
0.0162615
0.0162598
0.0162584
0.0162572
0.0162561
0.0162549
0.0162537
0.0162524
0.0162512
0.0162501
0.0162491
0.0162481
0.0162473
0.0162464
0.0162456
0.0162448
0.0162439
0.0162429
0.0162419
0.0162408
0.0162397
0.0162385
0.0162373
0.0162362
0.0162351
0.0162342
0.0162333
0.0162326
0.016232
0.0162317
0.0162315
0.0162316
0.0162318
0.0162322
0.0162327
0.0162334
0.0162338
0.0162337
0.0162307
0.0162026
0.0161807
0.0161628
0.0161477
0.0161345
0.0161228
0.0161123
0.0161027
0.0160938
0.0160857
0.016
0.016
0.016
0.016
0.016
0.016
0.016
0.016
0.016
0.0160001
0.0160211
0.0160417
0.0160621
0.0160824
0.0161025
0.0161223
0.0161418
0.0161606
0.0161787
0.0161956
0.016211
0.0162248
0.0162366
0.0162465
0.0162543
0.0162597
0.0162635
0.0162661
0.0162678
0.0162688
0.0162692
0.0162691
0.0162687
0.0162681
0.0162671
0.0162658
0.0162642
0.0162623
0.0162601
0.0162578
0.0162557
0.0162538
0.0162523
0.016251
0.0162499
0.0162488
0.0162478
0.0162467
0.0162457
0.0162447
0.0162438
0.0162429
0.0162422
0.0162413
0.0162406
0.0162399
0.0162391
0.0162383
0.0162374
0.0162364
0.0162354
0.0162342
0.0162331
0.0162319
0.0162308
0.0162297
0.0162287
0.0162277
0.016227
0.0162263
0.0162259
0.0162256
0.0162255
0.0162257
0.016226
0.0162266
0.0162272
0.0162276
0.0162275
0.0162245
0.016197
0.0161755
0.016158
0.0161431
0.0161302
0.0161188
0.0161086
0.0160992
0.0160906
0.0160828
0.016
0.016
0.016
0.016
0.016
0.016
0.016
0.016
0.016
0.0160001
0.0160208
0.0160411
0.0160613
0.0160813
0.0161011
0.0161206
0.0161397
0.0161581
0.0161757
0.0161921
0.0162069
0.0162198
0.0162307
0.0162394
0.0162458
0.0162501
0.016253
0.0162549
0.0162561
0.0162568
0.016257
0.0162568
0.0162563
0.0162556
0.0162547
0.0162536
0.0162524
0.0162509
0.0162491
0.0162473
0.0162456
0.0162441
0.016243
0.016242
0.0162412
0.0162404
0.0162397
0.016239
0.0162384
0.0162377
0.0162371
0.0162364
0.0162356
0.0162349
0.0162342
0.0162335
0.0162328
0.016232
0.0162311
0.0162301
0.016229
0.0162279
0.0162267
0.0162254
0.0162242
0.0162231
0.016222
0.016221
0.0162201
0.0162194
0.0162189
0.0162186
0.0162185
0.0162186
0.016219
0.0162195
0.01622
0.0162205
0.0162203
0.0162175
0.0161905
0.0161695
0.0161523
0.0161378
0.0161252
0.016114
0.016104
0.016095
0.0160866
0.016079
0.016
0.016
0.016
0.016
0.016
0.016
0.016
0.016
0.016
0.0160001
0.0160205
0.0160405
0.0160602
0.0160796
0.0160984
0.0161165
0.0161337
0.0161496
0.0161641
0.0161769
0.0161876
0.0161963
0.0162029
0.0162075
0.0162103
0.0162119
0.0162129
0.0162135
0.0162139
0.0162141
0.0162142
0.0162142
0.0162141
0.0162141
0.0162142
0.0162146
0.0162154
0.0162168
0.016219
0.0162221
0.0162249
0.0162273
0.0162294
0.0162309
0.0162317
0.0162321
0.016232
0.0162318
0.0162313
0.0162307
0.0162299
0.016229
0.016228
0.0162271
0.0162261
0.0162252
0.0162244
0.0162235
0.0162225
0.0162214
0.0162203
0.0162192
0.0162179
0.0162167
0.0162155
0.0162143
0.0162132
0.0162122
0.0162113
0.0162106
0.0162101
0.0162098
0.0162097
0.0162099
0.0162102
0.0162108
0.0162113
0.0162118
0.0162117
0.0162086
0.0161817
0.016161
0.0161443
0.0161302
0.0161181
0.0161075
0.016098
0.0160893
0.0160814
0.0160741
0.016
0.016
0.016
0.016
0.016
0.016
0.016
0.016
0.016
0.016
0.0160001
0.0160003
0.0160005
0.0160007
0.016001
0.0160013
0.0160016
0.0160019
0.0160022
0.0160025
0.0160028
0.016003
0.0160032
0.0160034
0.0160035
0.0160035
0.0160035
0.0160033
0.0160031
0.0160027
0.0160022
0.0160017
0.016001
0.0160003
0.0159995
0.0159987
0.0159979
0.0159972
0.0159965
0.0159961
0.0159972
0.0159997
0.0160037
0.0160087
0.0160146
0.0160209
0.0160272
0.0160335
0.0160393
0.0160447
0.0160493
0.0160532
0.0160563
0.0160585
0.01606
0.0160608
0.0160609
0.0160605
0.0160596
0.0160581
0.0160564
0.0160543
0.0160519
0.0160494
0.0160468
0.0160441
0.0160415
0.0160389
0.0160364
0.0160341
0.0160319
0.01603
0.0160284
0.016027
0.0160258
0.0160249
0.0160242
0.0160236
0.0160229
0.0160222
0.0160215
0.0160208
0.0160202
0.0160196
0.016019
0.0160183
0.0160176
0.0160169
0.016016
0.0160152
0.016
0.016
0.016
0.016
0.016
0.016
0.016
0.016
0.016
0.016
0.016
0.016
0.016
0.016
0.016
0.016
0.016
0.016
0.0159999
0.0159999
0.0159998
0.0159998
0.0159997
0.0159995
0.0159993
0.0159991
0.0159987
0.0159983
0.0159978
0.0159971
0.0159964
0.0159956
0.0159947
0.0159937
0.0159927
0.0159917
0.0159908
0.0159899
0.015989
0.0159884
0.0159879
0.0159876
0.0159877
0.0159883
0.0159892
0.0159907
0.0159925
0.0159947
0.0159972
0.0159998
0.0160024
0.016005
0.0160074
0.0160095
0.0160114
0.0160129
0.016014
0.0160148
0.0160153
0.0160154
0.0160152
0.0160147
0.016014
0.0160131
0.0160121
0.0160109
0.0160097
0.0160085
0.0160073
0.0160062
0.0160052
0.0160043
0.0160036
0.0160031
0.0160029
0.0160028
0.0160028
0.016003
0.0160033
0.0160037
0.0160042
0.0160047
0.0160052
0.0160057
0.0160061
0.0160065
0.0160067
0.0160068
0.0160069
0.0160068
0.016
0.016
0.016
0.016
0.016
0.016
0.016
0.016
0.016
0.016
0.016
0.016
0.016
0.016
0.016
0.016
0.016
0.016
0.0159999
0.0159999
0.0159998
0.0159997
0.0159995
0.0159994
0.0159991
0.0159988
0.0159984
0.0159979
0.0159973
0.0159966
0.0159958
0.0159949
0.0159939
0.0159929
0.0159918
0.0159907
0.0159897
0.0159887
0.0159878
0.0159871
0.0159866
0.0159863
0.0159862
0.0159864
0.0159868
0.0159875
0.0159884
0.0159896
0.015991
0.0159926
0.0159943
0.0159961
0.0159978
0.0159995
0.016001
0.0160024
0.0160036
0.0160045
0.0160053
0.0160057
0.0160059
0.0160059
0.0160057
0.0160054
0.0160049
0.0160042
0.0160036
0.0160029
0.0160022
0.0160016
0.0160011
0.0160007
0.0160005
0.0160004
0.0160005
0.0160007
0.016001
0.0160015
0.016002
0.0160026
0.0160032
0.0160038
0.0160044
0.0160049
0.0160054
0.0160057
0.0160059
0.016006
0.016006
0.0160058
0.016
0.016
0.016
0.016
0.016
0.016
0.016
0.016
0.016
0.016
0.016
0.016
0.016
0.016
0.016
0.016
0.016
0.0159999
0.0159999
0.0159999
0.0159998
0.0159997
0.0159995
0.0159993
0.0159991
0.0159987
0.0159983
0.0159977
0.0159971
0.0159963
0.0159955
0.0159945
0.0159935
0.0159924
0.0159913
0.0159902
0.0159891
0.0159881
0.0159872
0.0159865
0.0159859
0.0159856
0.0159855
0.0159856
0.015986
0.0159866
0.0159875
0.0159886
0.0159898
0.0159913
0.0159928
0.0159944
0.015996
0.0159976
0.015999
0.0160003
0.0160015
0.0160025
0.0160032
0.0160037
0.016004
0.016004
0.0160039
0.0160036
0.0160033
0.0160028
0.0160023
0.0160018
0.0160014
0.016001
0.0160008
0.0160006
0.0160006
0.0160008
0.016001
0.0160014
0.0160018
0.0160023
0.0160029
0.0160034
0.0160039
0.0160044
0.0160049
0.0160052
0.0160054
0.0160056
0.0160056
0.0160056
0.0160054
0.0160051
0.016
0.016
0.016
0.016
0.016
0.016
0.016
0.016
0.016
0.016
0.016
0.016
0.016
0.016
0.016
0.016
0.016
0.0159999
0.0159999
0.0159998
0.0159998
0.0159997
0.0159995
0.0159993
0.015999
0.0159987
0.0159982
0.0159977
0.015997
0.0159962
0.0159953
0.0159944
0.0159933
0.0159922
0.0159911
0.0159899
0.0159888
0.0159878
0.0159869
0.0159862
0.0159856
0.0159853
0.0159852
0.0159853
0.0159857
0.0159863
0.0159871
0.0159882
0.0159895
0.0159909
0.0159924
0.015994
0.0159956
0.0159971
0.0159985
0.0159998
0.0160008
0.0160016
0.0160022
0.0160025
0.0160026
0.0160026
0.0160024
0.0160022
0.0160019
0.0160016
0.0160014
0.0160012
0.0160011
0.0160012
0.0160013
0.0160015
0.0160018
0.0160022
0.0160027
0.0160032
0.0160037
0.0160041
0.0160046
0.016005
0.0160054
0.0160056
0.0160058
0.0160059
0.0160059
0.0160058
0.0160056
0.0160054
0.016005
0.0160046
0.016
0.016
0.016
0.016
0.016
0.016
0.016
0.016
0.016
0.016
0.016
0.016
0.016
0.016
0.016
0.016
0.016
0.0159999
0.0159999
0.0159998
0.0159998
0.0159997
0.0159995
0.0159993
0.015999
0.0159987
0.0159982
0.0159977
0.015997
0.0159962
0.0159954
0.0159944
0.0159933
0.0159922
0.0159911
0.0159899
0.0159888
0.0159878
0.0159869
0.0159863
0.0159859
0.0159857
0.0159856
0.0159859
0.0159863
0.0159871
0.0159882
0.0159894
0.0159909
0.0159925
0.0159942
0.0159959
0.0159974
0.0159987
0.0159998
0.0160006
0.0160012
0.0160016
0.0160018
0.0160018
0.0160018
0.0160017
0.0160016
0.0160016
0.0160016
0.0160017
0.0160018
0.0160021
0.0160024
0.0160027
0.0160032
0.0160036
0.0160041
0.0160046
0.016005
0.0160054
0.0160058
0.0160061
0.0160063
0.0160065
0.0160066
0.0160065
0.0160064
0.0160062
0.0160059
0.0160056
0.0160051
0.0160047
0.0160041
0.0160036
0.016
0.016
0.016
0.016
0.016
0.016
0.016
0.016
0.016
0.016
0.016
0.016
0.016
0.016
0.016
0.016
0.016
0.0159999
0.0159999
0.0159999
0.0159998
0.0159997
0.0159995
0.0159993
0.0159991
0.0159987
0.0159983
0.0159977
0.0159971
0.0159963
0.0159955
0.0159945
0.0159935
0.0159924
0.0159913
0.0159901
0.015989
0.015988
0.0159873
0.0159873
0.0159881
0.0159893
0.0159905
0.015992
0.0159937
0.0159956
0.0159975
0.0159992
0.0160007
0.016002
0.016003
0.0160038
0.0160043
0.0160046
0.0160047
0.0160047
0.0160046
0.0160044
0.0160042
0.016004
0.0160039
0.0160038
0.0160039
0.016004
0.0160042
0.0160044
0.0160048
0.0160052
0.0160056
0.016006
0.0160064
0.0160068
0.0160072
0.0160075
0.0160077
0.0160079
0.016008
0.016008
0.0160079
0.0160078
0.0160075
0.0160072
0.0160067
0.0160062
0.0160057
0.0160051
0.0160045
0.0160038
0.0160031
0.0160024
0.016
0.016
0.016
0.016
0.016
0.016
0.016
0.016
0.016
0.016
0.016
0.016
0.016
0.016
0.016
0.016
0.016
0.016
0.0159999
0.0159999
0.0159998
0.0159997
0.0159996
0.0159994
0.0159991
0.0159988
0.0159983
0.0159978
0.0159972
0.0159965
0.0159956
0.0159947
0.0159937
0.0159926
0.0159915
0.0159904
0.0159893
0.0159884
0.0159889
0.0159927
0.0159991
0.016006
0.0160117
0.0160161
0.0160192
0.016021
0.0160219
0.016022
0.0160215
0.0160206
0.0160194
0.0160181
0.0160167
0.0160153
0.016014
0.0160128
0.0160118
0.0160109
0.0160102
0.0160096
0.0160092
0.0160089
0.0160088
0.0160088
0.0160089
0.0160091
0.0160093
0.0160096
0.0160098
0.0160101
0.0160103
0.0160104
0.0160105
0.0160106
0.0160105
0.0160104
0.0160101
0.0160098
0.0160094
0.0160089
0.0160083
0.0160077
0.016007
0.0160063
0.0160055
0.0160047
0.0160039
0.0160031
0.0160023
0.0160015
0.016
0.016
0.016
0.016
0.016
0.016
0.016
0.016
0.016
0.016
0.016
0.016
0.016
0.016
0.016
0.016
0.016
0.016
0.016
0.0159999
0.0159999
0.0159998
0.0159996
0.0159994
0.0159992
0.0159989
0.0159985
0.015998
0.0159974
0.0159967
0.0159959
0.0159949
0.015994
0.0159929
0.0159918
0.0159907
0.0159896
0.0159888
0.0159951
0.016009
0.0160258
0.0160409
0.0160513
0.016057
0.0160588
0.0160579
0.0160553
0.0160515
0.0160473
0.0160429
0.0160386
0.0160346
0.016031
0.0160277
0.0160248
0.0160224
0.0160203
0.0160186
0.0160172
0.0160161
0.0160153
0.0160146
0.0160142
0.0160139
0.0160138
0.0160137
0.0160137
0.0160137
0.0160137
0.0160137
0.0160136
0.0160135
0.0160133
0.016013
0.0160126
0.0160122
0.0160117
0.016011
0.0160103
0.0160096
0.0160088
0.0160079
0.016007
0.0160061
0.0160052
0.0160043
0.0160034
0.0160025
0.0160016
0.0160008
0.016
0.016
0.016
0.016
0.016
0.016
0.016
0.016
0.016
0.016
0.016
0.016
0.016
0.016
0.016
0.016
0.016
0.016
0.016
0.0159999
0.0159999
0.0159998
0.0159997
0.0159995
0.0159993
0.015999
0.0159986
0.0159981
0.0159975
0.0159968
0.015996
0.0159951
0.0159942
0.0159931
0.015992
0.015991
0.0159899
0.0159892
0.0159964
0.016012
0.0160311
0.0160481
0.0160607
0.0160687
0.0160724
0.0160725
0.01607
0.0160657
0.0160604
0.0160548
0.0160492
0.016044
0.0160393
0.0160351
0.0160314
0.0160283
0.0160257
0.0160235
0.0160218
0.0160203
0.0160192
0.0160184
0.0160178
0.0160173
0.0160169
0.0160167
0.0160164
0.0160162
0.016016
0.0160158
0.0160155
0.0160151
0.0160147
0.0160142
0.0160136
0.0160129
0.0160122
0.0160114
0.0160105
0.0160096
0.0160087
0.0160077
0.0160067
0.0160056
0.0160046
0.0160036
0.0160027
0.0160017
0.0160009
0.016
0.016
0.016
0.016
0.016
0.016
0.016
0.016
0.016
0.016
0.016
0.016
0.016
0.016
0.016
0.016
0.016
0.016
0.016
0.016
0.0159999
0.0159999
0.0159998
0.0159997
0.0159995
0.0159993
0.015999
0.0159987
0.0159982
0.0159976
0.0159969
0.0159961
0.0159952
0.0159942
0.0159932
0.0159921
0.0159912
0.0159904
0.0159897
0.0159961
0.0160107
0.016029
0.0160455
0.016058
0.0160664
0.0160711
0.0160724
0.016071
0.0160675
0.0160627
0.0160573
0.0160518
0.0160466
0.0160417
0.0160374
0.0160336
0.0160303
0.0160276
0.0160253
0.0160235
0.016022
0.0160208
0.0160199
0.0160192
0.0160187
0.0160183
0.0160179
0.0160176
0.0160173
0.016017
0.0160166
0.0160162
0.0160157
0.0160152
0.0160145
0.0160138
0.016013
0.0160122
0.0160113
0.0160103
0.0160093
0.0160082
0.0160072
0.0160061
0.016005
0.016004
0.0160029
0.0160019
0.016001
0.0160001
0.0159993
0.016
0.016
0.016
0.016
0.016
0.016
0.016
0.016
0.016
0.016
0.016
0.016
0.016
0.016
0.016
0.016
0.016
0.016
0.016
0.0159999
0.0159999
0.0159998
0.0159997
0.0159995
0.0159993
0.0159991
0.0159987
0.0159982
0.0159976
0.0159969
0.0159961
0.0159952
0.0159942
0.0159932
0.0159923
0.0159919
0.0159916
0.0159912
0.0159954
0.0160064
0.0160206
0.0160341
0.0160446
0.0160522
0.0160572
0.0160598
0.0160602
0.0160587
0.0160557
0.0160518
0.0160475
0.0160432
0.016039
0.0160352
0.0160318
0.0160289
0.0160264
0.0160244
0.0160228
0.0160215
0.0160204
0.0160196
0.016019
0.0160186
0.0160182
0.0160179
0.0160176
0.0160173
0.016017
0.0160166
0.0160162
0.0160157
0.0160151
0.0160145
0.0160137
0.0160129
0.016012
0.016011
0.01601
0.016009
0.0160079
0.0160068
0.0160057
0.0160046
0.0160035
0.0160024
0.0160014
0.0160005
0.0159996
0.0159988
0.016
0.016
0.016
0.016
0.016
0.016
0.016
0.016
0.016
0.016
0.016
0.016
0.016
0.016
0.016
0.016
0.016
0.016
0.016
0.0159999
0.0159999
0.0159998
0.0159997
0.0159995
0.0159993
0.015999
0.0159986
0.0159982
0.0159976
0.0159969
0.015996
0.0159951
0.0159941
0.0159934
0.0159934
0.0159949
0.0159959
0.0159961
0.0159958
0.0159963
0.0159993
0.0160041
0.0160099
0.0160162
0.0160223
0.0160278
0.0160323
0.0160353
0.0160367
0.0160366
0.0160353
0.0160333
0.016031
0.0160286
0.0160263
0.0160243
0.0160225
0.016021
0.0160199
0.0160189
0.0160182
0.0160177
0.0160174
0.0160171
0.016017
0.0160168
0.0160167
0.0160165
0.0160163
0.0160161
0.0160158
0.0160153
0.0160148
0.0160142
0.0160135
0.0160127
0.0160119
0.0160109
0.0160099
0.0160089
0.0160078
0.0160066
0.0160055
0.0160044
0.0160033
0.0160022
0.0160012
0.0160002
0.0159993
0.0159984
0.016
0.016
0.016
0.016
0.016
0.016
0.016
0.016
0.016
0.016
0.016
0.016
0.016
0.016
0.016
0.016
0.016
0.016
0.016
0.0159999
0.0159999
0.0159998
0.0159997
0.0159995
0.0159993
0.015999
0.0159986
0.0159981
0.0159975
0.0159968
0.015996
0.0159951
0.0159945
0.0159949
0.0159973
0.0160033
0.0160057
0.0160065
0.0160063
0.0160055
0.0160047
0.0160045
0.016005
0.0160062
0.0160084
0.0160112
0.0160146
0.016018
0.0160207
0.0160224
0.0160231
0.0160229
0.0160221
0.016021
0.0160198
0.0160186
0.0160176
0.0160167
0.016016
0.0160156
0.0160153
0.0160151
0.016015
0.0160151
0.0160151
0.0160152
0.0160153
0.0160154
0.0160154
0.0160154
0.0160152
0.0160149
0.0160146
0.0160141
0.0160136
0.0160129
0.0160121
0.0160112
0.0160103
0.0160092
0.0160082
0.016007
0.0160059
0.0160048
0.0160036
0.0160025
0.0160014
0.0160004
0.0159994
0.0159985
0.016
0.016
0.016
0.016
0.016
0.016
0.016
0.016
0.016
0.016
0.016
0.016
0.0160001
0.016
0.016
0.016
0.016
0.016
0.016
0.0159999
0.0159999
0.0159998
0.0159997
0.0159995
0.0159993
0.015999
0.0159985
0.015998
0.0159975
0.0159968
0.0159962
0.0159959
0.0159965
0.0159994
0.0160067
0.0160186
0.0160206
0.0160205
0.0160194
0.0160181
0.0160165
0.0160149
0.0160134
0.0160122
0.0160114
0.0160111
0.0160114
0.0160124
0.0160137
0.0160148
0.0160156
0.0160158
0.0160157
0.0160152
0.0160146
0.016014
0.0160134
0.016013
0.0160127
0.0160125
0.0160125
0.0160126
0.0160128
0.0160131
0.0160134
0.0160137
0.0160141
0.0160144
0.0160146
0.0160148
0.0160148
0.0160148
0.0160147
0.0160145
0.0160141
0.0160136
0.016013
0.0160122
0.0160114
0.0160104
0.0160094
0.0160083
0.0160072
0.016006
0.0160048
0.0160037
0.0160025
0.0160014
0.0160003
0.0159993
0.016
0.016
0.016
0.016
0.016
0.016
0.016
0.016
0.016
0.016
0.016
0.0160001