/*--------------------------------*- C++ -*----------------------------------*\
| =========                 |                                                 |
| \\      /  F ield         | OpenFOAM: The Open Source CFD Toolbox           |
|  \\    /   O peration     | Version:  v2012                                 |
|   \\  /    A nd           | Website:  www.openfoam.com                      |
|    \\/     M anipulation  |                                                 |
\*---------------------------------------------------------------------------*/
FoamFile
{
    version     2.0;
    format      ascii;
    class       volScalarField;
    location    "50/air";
    object      TLeaf;
}
// * * * * * * * * * * * * * * * * * * * * * * * * * * * * * * * * * * * * * //

dimensions      [0 0 0 1 0 0 0];


internalField   nonuniform List<scalar> 
287104
(
310.241
310.455
310.633
310.786
310.922
311.047
311.162
311.27
311.371
311.467
311.559
311.645
311.728
311.806
311.881
311.951
312.017
312.079
312.136
312.189
312.238
312.283
312.325
312.363
312.397
312.429
312.458
312.486
312.513
312.538
312.561
312.583
312.602
312.62
312.636
312.651
312.664
312.676
312.687
312.697
312.707
312.715
312.724
312.732
312.739
312.746
312.753
312.759
312.765
312.771
312.776
312.781
312.786
312.789
312.793
312.796
312.798
312.799
312.8
312.8
312.8
312.801
312.801
312.801
312.802
312.804
312.806
312.809
312.813
312.817
312.821
312.826
312.831
312.837
312.842
312.847
312.852
312.858
312.863
312.867
312.872
312.876
312.88
312.884
312.889
312.896
312.907
312.926
312.954
312.99
310.236
310.446
310.621
310.77
310.902
311.023
311.135
311.24
311.338
311.432
311.52
311.604
311.684
311.76
311.831
311.899
311.962
312.021
312.075
312.126
312.172
312.215
312.254
312.29
312.323
312.353
312.382
312.408
312.434
312.457
312.479
312.5
312.518
312.535
312.55
312.563
312.575
312.586
312.595
312.604
312.612
312.619
312.626
312.633
312.639
312.645
312.651
312.657
312.663
312.668
312.674
312.679
312.683
312.687
312.691
312.694
312.697
312.699
312.701
312.702
312.703
312.705
312.706
312.708
312.71
312.713
312.717
312.721
312.726
312.731
312.737
312.743
312.749
312.755
312.761
312.767
312.773
312.779
312.785
312.791
312.796
312.802
312.807
312.812
312.818
312.825
312.838
312.858
312.887
312.924
310.231
310.437
310.607
310.752
310.881
310.999
311.107
311.209
311.305
311.395
311.481
311.562
311.639
311.712
311.781
311.845
311.906
311.962
312.014
312.062
312.106
312.146
312.183
312.216
312.246
312.273
312.299
312.323
312.346
312.366
312.385
312.402
312.417
312.43
312.442
312.451
312.459
312.466
312.472
312.478
312.482
312.486
312.49
312.494
312.497
312.5
312.504
312.507
312.511
312.514
312.518
312.522
312.525
312.528
312.531
312.534
312.536
312.539
312.54
312.542
312.543
312.545
312.547
312.549
312.552
312.556
312.56
312.565
312.571
312.577
312.584
312.591
312.598
312.605
312.612
312.619
312.626
312.633
312.64
312.647
312.653
312.659
312.665
312.671
312.678
312.686
312.7
312.721
312.751
312.789
310.226
310.427
310.593
310.734
310.859
310.973
311.078
311.176
311.268
311.356
311.438
311.516
311.591
311.66
311.726
311.788
311.845
311.898
311.947
311.992
312.033
312.07
312.104
312.134
312.16
312.185
312.207
312.227
312.246
312.262
312.276
312.289
312.299
312.306
312.312
312.316
312.319
312.321
312.321
312.322
312.321
312.32
312.319
312.318
312.317
312.317
312.316
312.316
312.317
312.317
312.319
312.32
312.322
312.323
312.325
312.326
312.328
312.329
312.33
312.331
312.332
312.333
312.335
312.337
312.34
312.344
312.349
312.354
312.36
312.366
312.373
312.38
312.387
312.394
312.402
312.409
312.416
312.423
312.43
312.436
312.443
312.449
312.455
312.461
312.469
312.478
312.492
312.514
312.545
312.583
310.221
310.417
310.578
310.715
310.835
310.945
311.047
311.142
311.231
311.315
311.394
311.469
311.539
311.606
311.669
311.727
311.781
311.83
311.876
311.917
311.955
311.989
312.018
312.044
312.067
312.087
312.105
312.121
312.135
312.147
312.156
312.163
312.167
312.169
312.169
312.168
312.164
312.16
312.155
312.149
312.143
312.137
312.131
312.125
312.119
312.114
312.11
312.106
312.103
312.101
312.099
312.098
312.098
312.098
312.097
312.098
312.098
312.098
312.098
312.098
312.099
312.1
312.101
312.103
312.106
312.109
312.113
312.118
312.124
312.13
312.137
312.144
312.151
312.159
312.166
312.173
312.18
312.187
312.194
312.2
312.207
312.213
312.219
312.225
312.232
312.242
312.256
312.277
312.308
312.346
310.216
310.406
310.563
310.695
310.812
310.918
311.016
311.107
311.193
311.274
311.349
311.421
311.488
311.552
311.611
311.666
311.716
311.762
311.805
311.843
311.877
311.907
311.933
311.956
311.975
311.991
312.005
312.017
312.027
312.034
312.039
312.041
312.04
312.037
312.032
312.025
312.016
312.006
311.996
311.985
311.975
311.963
311.952
311.942
311.932
311.923
311.915
311.908
311.902
311.897
311.892
311.889
311.886
311.884
311.882
311.881
311.879
311.878
311.877
311.877
311.877
311.877
311.878
311.879
311.882
311.885
311.888
311.893
311.899
311.905
311.911
311.918
311.925
311.932
311.939
311.946
311.953
311.96
311.967
311.974
311.98
311.986
311.993
311.999
312.006
312.015
312.03
312.051
312.082
312.119
310.211
310.396
310.548
310.676
310.789
310.892
310.986
311.074
311.157
311.234
311.307
311.375
311.439
311.5
311.555
311.607
311.655
311.698
311.737
311.772
311.804
311.831
311.854
311.873
311.889
311.903
311.913
311.922
311.928
311.932
311.933
311.931
311.926
311.919
311.909
311.897
311.884
311.87
311.855
311.84
311.825
311.809
311.794
311.78
311.766
311.754
311.743
311.733
311.724
311.716
311.71
311.704
311.699
311.695
311.692
311.689
311.686
311.684
311.682
311.681
311.68
311.68
311.68
311.681
311.683
311.686
311.689
311.693
311.699
311.704
311.711
311.717
311.724
311.731
311.738
311.745
311.752
311.759
311.766
311.772
311.779
311.785
311.791
311.798
311.805
311.814
311.828
311.85
311.88
311.916
310.206
310.386
310.534
310.658
310.767
310.866
310.958
311.043
311.122
311.196
311.266
311.332
311.393
311.451
311.504
311.553
311.597
311.638
311.674
311.707
311.736
311.761
311.782
311.799
311.812
311.823
311.831
311.837
311.84
311.841
311.84
311.835
311.827
311.816
311.803
311.787
311.77
311.752
311.734
311.715
311.696
311.676
311.658
311.64
311.623
311.607
311.593
311.581
311.569
311.559
311.551
311.543
311.536
311.53
311.525
311.521
311.518
311.514
311.512
311.51
311.508
311.507
311.507
311.508
311.509
311.512
311.515
311.519
311.524
311.53
311.536
311.542
311.549
311.556
311.562
311.569
311.576
311.583
311.59
311.596
311.603
311.609
311.615
311.622
311.629
311.638
311.652
311.674
311.704
311.74
310.201
310.377
310.521
310.641
310.746
310.842
310.93
311.012
311.089
311.161
311.228
311.291
311.351
311.406
311.458
311.506
311.55
311.59
311.626
311.658
311.687
311.712
311.732
311.749
311.762
311.771
311.778
311.782
311.784
311.784
311.78
311.774
311.764
311.75
311.733
311.714
311.693
311.67
311.647
311.623
311.599
311.575
311.551
311.528
311.507
311.487
311.469
311.452
311.438
311.424
311.412
311.401
311.392
311.383
311.376
311.371
311.366
311.361
311.358
311.355
311.353
311.352
311.351
311.352
311.353
311.356
311.359
311.363
311.368
311.374
311.38
311.386
311.393
311.4
311.407
311.414
311.421
311.427
311.434
311.44
311.446
311.452
311.458
311.465
311.472
311.481
311.496
311.517
311.548
311.584
310.196
310.368
310.508
310.624
310.726
310.819
310.904
310.983
311.057
311.127
311.194
311.261
311.326
311.391
311.453
311.512
311.568
311.619
311.665
311.707
311.744
311.777
311.803
311.823
311.838
311.848
311.854
311.856
311.855
311.851
311.843
311.831
311.815
311.793
311.768
311.738
311.706
311.672
311.637
311.601
311.564
311.528
311.492
311.458
311.425
311.395
311.367
311.341
311.317
311.294
311.274
311.256
311.239
311.225
311.214
311.204
311.195
311.189
311.183
311.18
311.177
311.175
311.175
311.176
311.178
311.181
311.185
311.191
311.196
311.203
311.21
311.217
311.224
311.232
311.239
311.246
311.252
311.257
311.261
311.263
311.265
311.267
311.27
311.273
311.278
311.286
311.299
311.321
311.351
311.387
310.192
310.36
310.495
310.609
310.707
310.797
310.879
310.955
311.027
311.096
311.378
311.407
311.475
311.546
311.61
311.664
311.712
311.754
311.792
311.826
311.855
311.878
311.893
311.899
311.893
311.878
311.862
311.861
311.881
311.919
311.955
311.963
311.925
311.846
311.751
311.671
311.616
311.577
311.547
311.519
311.488
311.458
311.44
311.435
311.456
311.491
311.507
311.489
311.441
311.384
311.339
311.316
311.311
311.315
311.32
311.323
311.326
311.329
311.334
311.342
311.352
311.366
311.382
311.401
311.422
311.443
311.466
311.488
311.512
311.538
311.566
311.598
311.632
311.668
311.705
311.739
311.766
311.784
311.787
311.773
311.255
311.221
311.193
311.17
311.151
311.137
311.132
311.138
311.154
311.182
310.188
310.352
310.484
310.594
310.689
310.776
310.855
310.928
310.997
311.064
311.239
311.261
311.325
311.392
311.453
311.505
311.551
311.592
311.629
311.664
311.693
311.716
311.732
311.739
311.734
311.718
311.698
311.69
311.707
311.752
311.804
311.833
311.811
311.732
311.621
311.517
311.442
311.389
311.355
311.328
311.294
311.265
311.257
311.268
311.307
311.354
311.365
311.33
311.259
311.183
311.129
311.105
311.102
311.107
311.111
311.113
311.114
311.116
311.121
311.129
311.139
311.152
311.169
311.187
311.207
311.228
311.25
311.274
311.3
311.328
311.359
311.392
311.427
311.462
311.497
311.528
311.552
311.567
311.569
311.555
311.071
311.04
311.014
310.992
310.975
310.962
310.958
310.965
310.982
311.01
310.184
310.344
310.473
310.579
310.672
310.755
310.831
310.902
310.968
311.032
311.115
311.134
311.193
311.256
311.312
311.36
311.4
311.437
311.471
311.502
311.53
311.552
311.567
311.574
311.57
311.553
311.53
311.516
311.526
311.57
311.634
311.684
311.683
311.616
311.499
311.376
311.279
311.209
311.169
311.144
311.108
311.082
311.091
311.12
311.175
311.227
311.226
311.168
311.076
310.987
310.93
310.909
310.908
310.914
310.917
310.917
310.918
310.92
310.925
310.933
310.943
310.956
310.972
310.989
311.009
311.03
311.053
311.078
311.106
311.136
311.169
311.202
311.236
311.269
311.301
311.329
311.351
311.365
311.367
311.356
310.901
310.872
310.848
310.828
310.812
310.801
310.799
310.807
310.826
310.855
310.18
310.336
310.462
310.565
310.654
310.735
310.808
310.876
310.939
311
310.994
311.009
311.063
311.122
311.173
311.216
311.252
311.284
311.313
311.341
311.365
311.386
311.4
311.406
311.404
311.389
311.366
311.347
311.347
311.382
311.446
311.51
311.531
311.483
311.372
311.24
311.124
311.032
310.981
310.955
310.918
310.9
310.929
310.977
311.039
311.085
311.065
310.984
310.876
310.784
310.73
310.713
310.714
310.718
310.719
310.719
310.719
310.722
310.727
310.735
310.745
310.757
310.772
310.79
310.809
310.831
310.855
310.883
310.912
310.944
310.976
311.008
311.04
311.071
311.1
311.127
311.149
311.164
311.169
311.161
310.74
310.714
310.692
310.674
310.66
310.651
310.65
310.659
310.679
310.709
310.176
310.329
310.45
310.55
310.636
310.713
310.784
310.848
310.909
310.967
310.872
310.883
310.933
310.986
311.033
311.073
311.106
311.134
311.158
311.18
311.2
311.216
311.228
311.234
311.234
311.224
311.207
311.186
311.178
311.198
311.251
311.314
311.35
311.324
311.232
311.103
310.975
310.86
310.792
310.76
310.725
310.719
310.772
310.832
310.891
310.921
310.878
310.779
310.665
310.577
310.531
310.516
310.515
310.515
310.514
310.514
310.515
310.519
310.524
310.532
310.542
310.554
310.569
310.586
310.606
310.629
310.655
310.684
310.714
310.745
310.776
310.806
310.835
310.864
310.893
310.92
310.944
310.962
310.97
310.965
310.581
310.557
310.538
310.521
310.509
310.501
310.501
310.512
310.533
310.564
310.172
310.32
310.438
310.535
310.617
310.691
310.758
310.82
310.877
310.932
310.747
310.755
310.799
310.847
310.89
310.928
310.959
310.985
311.006
311.022
311.034
311.044
311.051
311.055
311.058
311.055
311.048
311.035
311.024
311.03
311.062
311.111
311.148
311.141
311.073
310.962
310.832
310.696
310.602
310.559
310.528
310.541
310.617
310.681
310.725
310.733
310.67
310.563
310.455
310.378
310.338
310.323
310.315
310.309
310.305
310.305
310.308
310.313
310.319
310.326
310.336
310.348
310.363
310.38
310.401
310.426
310.453
310.482
310.512
310.542
310.57
310.598
310.626
310.655
310.684
310.714
310.741
310.762
310.771
310.767
310.426
310.405
310.387
310.372
310.361
310.355
310.356
310.368
310.39
310.422
310.167
310.311
310.425
310.517
310.597
310.667
310.731
310.789
310.843
310.895
310.618
310.623
310.661
310.704
310.743
310.779
310.811
310.839
310.858
310.869
310.873
310.872
310.87
310.869
310.872
310.878
310.886
310.89
310.889
310.888
310.898
310.921
310.945
310.944
310.9
310.814
310.695
310.541
310.416
310.355
310.331
310.368
310.465
310.524
310.545
310.531
310.458
310.357
310.265
310.201
310.163
310.138
310.118
310.104
310.098
310.099
310.104
310.11
310.116
310.123
310.132
310.144
310.159
310.178
310.2
310.225
310.253
310.281
310.31
310.338
310.364
310.391
310.419
310.449
310.481
310.513
310.543
310.565
310.575
310.569
310.278
310.259
310.244
310.23
310.22
310.215
310.217
310.23
310.253
310.285
310.162
310.301
310.411
310.499
310.575
310.641
310.702
310.757
310.808
310.858
310.486
310.487
310.52
310.556
310.591
310.625
310.661
310.693
310.716
310.725
310.719
310.704
310.687
310.677
310.677
310.691
310.717
310.747
310.768
310.776
310.773
310.769
310.768
310.76
310.729
310.665
310.563
310.4
310.241
310.157
310.142
310.207
310.319
310.364
310.362
310.335
310.265
310.182
310.11
310.055
310.01
309.967
309.931
309.908
309.901
309.904
309.911
309.917
309.923
309.929
309.937
309.949
309.965
309.985
310.008
310.033
310.06
310.088
310.114
310.141
310.167
310.194
310.224
310.256
310.291
310.325
310.355
310.377
310.385
310.376
310.145
310.128
310.113
310.101
310.092
310.087
310.09
310.104
310.127
310.16
310.157
310.291
310.396
310.481
310.552
310.616
310.673
310.725
310.774
310.82
310.353
310.352
310.379
310.408
310.437
310.469
310.508
310.549
310.58
310.591
310.578
310.546
310.51
310.482
310.474
310.491
310.533
310.592
310.647
310.678
310.68
310.663
310.642
310.618
310.584
310.53
310.444
310.278
310.092
309.986
309.981
310.07
310.188
310.215
310.195
310.167
310.113
310.054
309.999
309.944
309.882
309.817
309.764
309.733
309.725
309.73
309.738
309.743
309.748
309.753
309.761
309.774
309.79
309.811
309.834
309.859
309.884
309.91
309.936
309.962
309.989
310.018
310.05
310.085
310.122
310.157
310.186
310.206
310.211
310.201
310.042
310.027
310.013
310.002
309.993
309.989
309.992
310.006
310.029
310.061
310.151
310.281
310.382
310.462
310.53
310.591
310.645
310.694
310.74
310.784
310.233
310.231
310.253
310.273
310.293
310.319
310.357
310.404
310.445
310.46
310.44
310.39
310.328
310.276
310.252
310.267
310.322
310.407
310.497
310.563
310.59
310.584
310.563
310.531
310.484
310.426
310.348
310.189
309.998
309.883
309.892
309.997
310.11
310.121
310.088
310.068
310.032
309.99
309.939
309.872
309.785
309.697
309.628
309.592
309.584
309.589
309.596
309.599
309.602
309.606
309.615
309.628
309.646
309.666
309.689
309.712
309.737
309.761
309.787
309.813
309.843
309.875
309.91
309.947
309.985
310.019
310.046
310.064
310.067
310.055
309.969
309.956
309.944
309.934
309.926
309.923
309.927
309.941
309.965
309.997
310.147
310.272
310.368
310.445
310.51
310.567
310.618
310.665
310.708
310.747
310.784
310.818
310.848
310.875
310.898
310.917
310.933
310.945
310.954
310.958
310.958
310.951
310.939
310.921
310.898
310.871
310.843
310.814
310.783
310.752
310.718
310.682
310.643
310.601
310.555
310.507
310.458
310.406
310.354
310.303
310.257
310.216
310.179
310.144
310.113
310.083
310.055
310.028
310
309.97
309.939
309.906
309.872
309.838
309.806
309.776
309.749
309.724
309.701
309.68
309.661
309.645
309.631
309.619
309.609
309.602
309.596
309.592
309.59
309.589
309.59
309.593
309.596
309.601
309.606
309.613
309.62
309.627
309.635
309.643
309.651
309.659
309.668
309.677
309.689
309.703
309.724
309.754
309.792
309.839
310.142
310.262
310.355
310.428
310.49
310.544
310.592
310.637
310.677
310.714
310.747
310.776
310.802
310.823
310.841
310.854
310.864
310.871
310.874
310.874
310.869
310.858
310.841
310.819
310.792
310.761
310.729
310.695
310.661
310.626
310.59
310.553
310.513
310.471
310.425
310.377
310.327
310.275
310.224
310.175
310.129
310.089
310.05
310.014
309.98
309.949
309.92
309.892
309.865
309.838
309.809
309.78
309.752
309.725
309.7
309.677
309.656
309.637
309.62
309.605
309.591
309.58
309.57
309.562
309.556
309.551
309.549
309.548
309.549
309.551
309.554
309.559
309.564
309.57
309.577
309.585
309.593
309.603
309.612
309.622
309.633
309.643
309.655
309.667
309.68
309.696
309.719
309.75
309.789
309.837
310.137
310.253
310.341
310.411
310.469
310.519
310.565
310.606
310.644
310.678
310.708
310.734
310.756
310.774
310.788
310.797
310.802
310.805
310.804
310.8
310.791
310.777
310.758
310.731
310.7
310.665
310.627
310.589
310.55
310.51
310.47
310.43
310.388
310.345
310.299
310.25
310.2
310.148
310.097
310.05
310.006
309.968
309.931
309.896
309.863
309.832
309.803
309.776
309.749
309.722
309.694
309.667
309.641
309.618
309.596
309.577
309.56
309.545
309.532
309.521
309.512
309.504
309.498
309.494
309.491
309.49
309.491
309.493
309.496
309.5
309.505
309.511
309.518
309.525
309.532
309.54
309.549
309.558
309.567
309.577
309.587
309.598
309.608
309.619
309.631
309.646
309.667
309.696
309.734
309.779
310.131
310.242
310.325
310.39
310.444
310.491
310.533
310.571
310.605
310.635
310.662
310.685
310.704
310.718
310.727
310.732
310.733
310.731
310.725
310.717
310.705
310.688
310.665
310.635
310.601
310.562
310.52
310.478
310.434
310.39
310.345
310.301
310.256
310.21
310.161
310.111
310.059
310.006
309.957
309.912
309.871
309.835
309.8
309.766
309.733
309.701
309.672
309.643
309.616
309.588
309.561
309.535
309.51
309.488
309.469
309.451
309.437
309.424
309.414
309.405
309.399
309.395
309.393
309.392
309.394
309.397
309.402
309.408
309.415
309.423
309.431
309.44
309.449
309.459
309.468
309.477
309.486
309.496
309.505
309.515
309.524
309.533
309.541
309.55
309.56
309.573
309.59
309.616
309.651
309.693
310.124
310.228
310.306
310.365
310.414
310.456
310.493
310.527
310.557
310.584
310.607
310.626
310.64
310.65
310.656
310.656
310.652
310.645
310.634
310.621
310.605
310.584
310.557
310.525
310.487
310.445
310.401
310.354
310.307
310.258
310.209
310.161
310.112
310.062
310.01
309.957
309.904
309.851
309.804
309.763
309.726
309.694
309.662
309.629
309.595
309.562
309.531
309.502
309.474
309.447
309.421
309.396
309.375
309.356
309.341
309.331
309.324
309.32
309.321
309.325
309.332
309.342
309.353
309.367
309.381
309.397
309.412
309.427
309.442
309.456
309.469
309.481
309.491
309.501
309.509
309.516
309.523
309.528
309.533
309.537
309.541
309.543
309.545
309.547
309.55
309.555
309.565
309.584
309.611
309.646
310.116
310.212
310.282
310.335
310.377
310.414
310.446
310.474
310.5
310.522
310.54
310.555
310.565
310.57
310.571
310.567
310.559
310.546
310.531
310.513
310.491
310.467
310.437
310.402
310.361
310.317
310.27
310.221
310.17
310.118
310.066
310.013
309.96
309.905
309.848
309.791
309.738
309.685
309.644
309.612
309.585
309.56
309.531
309.502
309.468
309.436
309.408
309.383
309.362
309.346
309.333
309.325
309.322
309.324
309.331
309.343
309.358
309.376
309.396
309.418
309.44
309.463
309.485
309.506
309.526
309.544
309.56
309.574
309.586
309.597
309.605
309.611
309.615
309.618
309.619
309.618
309.616
309.614
309.61
309.606
309.6
309.594
309.587
309.58
309.573
309.569
309.571
309.58
309.599
309.625
310.106
310.193
310.255
310.3
310.336
310.365
310.391
310.414
310.434
310.451
310.464
310.473
310.478
310.479
310.475
310.467
310.454
310.437
310.417
310.394
310.369
310.34
310.307
310.269
310.227
310.18
310.131
310.079
310.027
309.973
309.918
309.862
309.805
309.744
309.682
309.621
309.567
309.515
309.483
309.471
309.467
309.462
309.449
309.436
309.422
309.411
309.406
309.405
309.409
309.416
309.425
309.436
309.449
309.464
309.482
309.501
309.522
309.544
309.565
309.586
309.606
309.624
309.641
309.655
309.667
309.677
309.684
309.69
309.693
309.695
309.694
309.692
309.688
309.683
309.676
309.668
309.659
309.649
309.639
309.628
309.617
309.604
309.591
309.578
309.566
309.556
309.552
309.556
309.569
309.589
310.096
310.174
310.227
310.264
310.292
310.315
310.335
310.351
310.365
310.376
310.383
310.387
310.387
310.383
310.374
310.361
310.345
310.324
310.3
310.274
310.244
310.212
310.175
310.135
310.091
310.042
309.991
309.938
309.884
309.828
309.772
309.713
309.652
309.587
309.519
309.454
309.399
309.353
309.363
309.408
309.462
309.505
309.51
309.514
309.511
309.51
309.513
309.521
309.532
309.545
309.559
309.574
309.589
309.605
309.621
309.638
309.655
309.671
309.686
309.7
309.711
309.721
309.728
309.733
309.735
309.736
309.735
309.732
309.728
309.721
309.714
309.705
309.694
309.683
309.67
309.657
309.643
309.629
309.615
309.6
309.585
309.569
309.553
309.536
309.521
309.508
309.501
309.502
309.512
309.53
310.087
310.155
310.201
310.23
310.252
310.268
310.281
310.291
310.299
310.304
310.306
310.305
310.299
310.29
310.277
310.26
310.24
310.216
310.19
310.16
310.128
310.093
310.054
310.011
309.965
309.915
309.863
309.808
309.752
309.695
309.637
309.576
309.512
309.444
309.375
309.31
309.26
309.233
309.286
309.361
309.426
309.466
309.481
309.495
309.499
309.507
309.52
309.537
309.557
309.579
309.601
309.622
309.642
309.66
309.677
309.693
309.707
309.72
309.73
309.738
309.744
309.747
309.748
309.746
309.743
309.737
309.73
309.722
309.713
309.702
309.69
309.676
309.661
309.646
309.63
309.613
309.597
309.58
309.563
309.546
309.529
309.511
309.492
309.474
309.457
309.443
309.434
309.433
309.442
309.459
310.079
310.139
310.178
310.201
310.217
310.227
310.235
310.241
310.243
310.244
310.241
310.234
310.224
310.21
310.193
310.172
310.149
310.124
310.096
310.065
310.031
309.993
309.953
309.908
309.861
309.81
309.757
309.701
309.644
309.587
309.528
309.467
309.402
309.334
309.266
309.202
309.156
309.141
309.159
309.199
309.227
309.231
309.279
309.317
309.347
309.381
309.419
309.459
309.499
309.538
309.574
309.607
309.635
309.659
309.68
309.697
309.711
309.722
309.731
309.736
309.738
309.738
309.734
309.729
309.721
309.713
309.703
309.692
309.679
309.665
309.65
309.633
309.616
309.598
309.58
309.562
309.543
309.525
309.506
309.488
309.469
309.45
309.43
309.411
309.393
309.377
309.367
309.366
309.374
309.39
310.073
310.128
310.161
310.18
310.19
310.197
310.201
310.202
310.202
310.198
310.192
310.182
310.168
310.151
310.13
310.106
310.081
310.054
310.025
309.993
309.959
309.921
309.879
309.834
309.786
309.736
309.683
309.628
309.573
309.517
309.459
309.399
309.336
309.271
309.206
309.145
309.101
309.089
309.062
309.062
309.056
309.029
309.105
309.166
309.217
309.27
309.325
309.381
309.436
309.488
309.535
309.577
309.613
309.643
309.666
309.685
309.699
309.71
309.717
309.721
309.721
309.718
309.712
309.704
309.695
309.685
309.674
309.661
309.647
309.631
309.614
309.595
309.576
309.557
309.537
309.517
309.497
309.478
309.458
309.439
309.419
309.398
309.378
309.358
309.339
309.322
309.312
309.31
309.317
309.332
310.069
310.12
310.15
310.165
310.173
310.177
310.179
310.178
310.175
310.17
310.162
310.15
310.134
310.115
310.092
310.066
310.039
310.01
309.981
309.949
309.914
309.877
309.836
309.792
309.744
309.695
309.646
309.594
309.543
309.49
309.435
309.378
309.317
309.256
309.199
309.149
309.112
309.095
309.019
308.979
308.942
308.898
308.992
309.069
309.133
309.196
309.259
309.322
309.383
309.442
309.497
309.546
309.588
309.621
309.648
309.668
309.682
309.693
309.7
309.703
309.703
309.699
309.692
309.684
309.674
309.664
309.652
309.639
309.623
309.606
309.587
309.568
309.547
309.526
309.506
309.485
309.464
309.444
309.423
309.402
309.382
309.36
309.339
309.318
309.298
309.281
309.269
309.267
309.273
309.288
310.067
310.116
310.144
310.158
310.165
310.167
310.168
310.166
310.163
310.156
310.148
310.135
310.119
310.099
310.076
310.049
310.02
309.991
309.96
309.928
309.894
309.857
309.817
309.775
309.731
309.685
309.641
309.596
309.55
309.503
309.451
309.396
309.34
309.287
309.245
309.218
309.202
309.19
309.035
308.912
308.83
308.773
308.872
308.959
309.034
309.105
309.173
309.24
309.309
309.377
309.441
309.5
309.551
309.592
309.625
309.649
309.668
309.682
309.689
309.692
309.691
309.687
309.68
309.672
309.662
309.652
309.641
309.627
309.61
309.592
309.572
309.551
309.53
309.508
309.486
309.464
309.443
309.421
309.399
309.377
309.355
309.333
309.311
309.288
309.267
309.249
309.236
309.233
309.238
309.252
310.066
310.115
310.143
310.157
310.163
310.166
310.166
310.164
310.161
310.155
310.146
310.134
310.118
310.098
310.074
310.047
310.017
309.986
309.955
309.922
309.888
309.852
309.814
309.775
309.735
309.695
309.658
309.621
309.584
309.542
309.494
309.441
309.39
309.348
309.327
309.329
309.342
309.363
309.231
309.103
308.984
308.879
308.931
308.977
309.015
309.057
309.101
309.154
309.215
309.283
309.353
309.42
309.48
309.53
309.571
309.602
309.626
309.645
309.655
309.661
309.663
309.661
309.657
309.65
309.643
309.635
309.624
309.611
309.595
309.576
309.556
309.535
309.513
309.491
309.469
309.446
309.424
309.402
309.379
309.357
309.334
309.31
309.287
309.264
309.242
309.222
309.209
309.204
309.209
309.223
310.067
310.117
310.146
310.16
310.167
310.171
310.171
310.17
310.167
310.161
310.152
310.14
310.125
310.105
310.082
310.054
310.024
309.992
309.958
309.925
309.89
309.854
309.818
309.782
309.749
309.716
309.689
309.662
309.634
309.6
309.556
309.508
309.462
309.429
309.427
309.44
309.487
309.55
309.417
309.299
309.189
309.09
309.164
309.207
309.213
309.205
309.192
309.189
309.207
309.243
309.294
309.351
309.408
309.459
309.503
309.539
309.568
309.591
309.605
309.615
309.62
309.622
309.621
309.618
309.614
309.608
309.599
309.586
309.571
309.553
309.533
309.512
309.491
309.469
309.446
309.424
309.401
309.378
309.355
309.331
309.308
309.284
309.26
309.236
309.213
309.193
309.178
309.173
309.177
309.191
310.069
310.121
310.151
310.167
310.176
310.18
310.181
310.181
310.178
310.172
310.164
310.153
310.137
310.118
310.095
310.067
310.036
310.003
309.969
309.933
309.898
309.861
309.826
309.794
309.767
309.743
309.728
309.717
309.702
309.677
309.635
309.588
309.54
309.506
309.507
309.499
309.604
309.785
309.6
309.427
309.294
309.205
309.469
309.613
309.566
309.479
309.383
309.309
309.268
309.26
309.279
309.313
309.355
309.398
309.438
309.474
309.503
309.527
309.543
309.555
309.564
309.568
309.57
309.57
309.569
309.564
309.556
309.545
309.53
309.513
309.493
309.473
309.452
309.43
309.407
309.384
309.361
309.338
309.314
309.291
309.266
309.242
309.217
309.193
309.17
309.149
309.135
309.129
309.134
309.147
310.071
310.125
310.157
310.174
310.184
310.189
310.192
310.192
310.19
310.185
310.177
310.166
310.151
310.132
310.109
310.082
310.052
310.019
309.983
309.947
309.91
309.873
309.837
309.807
309.786
309.769
309.77
309.777
309.776
309.756
309.712
309.658
309.599
309.554
309.552
309.49
309.546
309.543
309.418
309.331
309.286
309.274
309.286
309.312
309.345
309.381
309.415
309.446
309.471
309.491
309.503
309.512
309.517
309.52
309.52
309.519
309.516
309.51
309.5
309.487
309.47
309.452
309.432
309.41
309.388
309.365
309.342
309.318
309.295
309.271
309.247
309.224
309.2
309.175
309.151
309.127
309.105
309.085
309.072
309.068
309.073
309.088
310.072
310.126
310.16
310.178
310.189
310.195
310.198
310.199
310.198
310.193
310.186
310.176
310.161
310.143
310.12
310.094
310.065
310.032
309.997
309.961
309.923
309.884
309.846
309.815
309.797
309.786
309.815
309.842
309.852
309.834
309.762
309.687
309.611
309.557
309.56
309.484
309.557
309.524
309.458
309.404
309.363
309.37
309.386
309.408
309.431
309.455
309.476
309.492
309.504
309.51
309.51
309.506
309.5
309.493
309.484
309.475
309.463
309.45
309.433
309.414
309.393
309.37
309.347
309.322
309.298
309.272
309.248
309.223
309.199
309.176
309.153
309.13
309.108
309.085
309.063
309.042
309.022
309.006
308.995
308.994
309.003
309.022
310.072
310.127
310.16
310.178
310.189
310.196
310.2
310.201
310.2
310.196
310.189
310.179
310.165
310.147
310.125
310.1
310.071
310.039
310.005
309.968
309.93
309.89
309.853
309.823
309.807
309.798
309.802
309.8
309.783
309.742
309.67
309.6
309.534
309.5
309.536
309.456
309.602
309.587
309.556
309.548
309.552
309.556
309.568
309.575
309.578
309.578
309.576
309.57
309.56
309.547
309.527
309.505
309.482
309.46
309.437
309.415
309.391
309.366
309.341
309.314
309.286
309.258
309.23
309.203
309.175
309.149
309.123
309.1
309.077
309.056
309.036
309.017
308.999
308.981
308.964
308.948
308.933
308.922
308.917
308.921
308.935
308.959
310.072
310.126
310.158
310.177
310.187
310.193
310.197
310.199
310.198
310.194
310.187
310.177
310.163
310.146
310.124
310.099
310.071
310.039
310.006
309.97
309.933
309.896
309.859
309.829
309.812
309.802
309.737
309.673
309.598
309.508
309.471
309.431
309.398
309.406
309.494
309.444
309.634
309.621
309.599
309.606
309.622
309.641
309.655
309.657
309.648
309.634
309.617
309.595
309.569
309.54
309.505
309.469
309.433
309.398
309.363
309.328
309.293
309.258
309.224
309.19
309.157
309.124
309.093
309.063
309.035
309.008
308.984
308.963
308.944
308.927
308.912
308.898
308.886
308.875
308.864
308.855
308.847
308.842
308.844
308.855
308.875
308.905
310.071
310.125
310.157
310.175
310.185
310.19
310.194
310.195
310.193
310.189
310.183
310.172
310.158
310.141
310.119
310.094
310.066
310.036
310.005
309.972
309.937
309.902
309.866
309.833
309.807
309.786
309.652
309.527
309.398
309.261
309.257
309.244
309.24
309.28
309.417
309.419
309.604
309.585
309.559
309.561
309.57
309.583
309.604
309.617
309.616
309.609
309.597
309.581
309.561
309.537
309.509
309.478
309.446
309.412
309.377
309.34
309.302
309.264
309.225
309.186
309.149
309.112
309.077
309.044
309.012
308.983
308.958
308.935
308.915
308.898
308.883
308.87
308.859
308.848
308.839
308.831
308.825
308.822
308.825
308.837
308.859
308.89
310.072
310.125
310.157
310.175
310.184
310.19
310.192
310.193
310.191
310.187
310.179
310.168
310.154
310.135
310.114
310.09
310.063
310.035
310.006
309.974
309.941
309.907
309.87
309.833
309.796
309.758
309.573
309.407
309.247
309.091
309.118
309.133
309.154
309.209
309.358
309.404
309.497
309.429
309.363
309.315
309.279
309.31
309.363