/*--------------------------------*- C++ -*----------------------------------*\
| =========                 |                                                 |
| \\      /  F ield         | OpenFOAM: The Open Source CFD Toolbox           |
|  \\    /   O peration     | Version:  v2012                                 |
|   \\  /    A nd           | Website:  www.openfoam.com                      |
|    \\/     M anipulation  |                                                 |
\*---------------------------------------------------------------------------*/
FoamFile
{
    version     2.0;
    format      ascii;
    class       volScalarField;
    location    "100/soil2";
    object      T;
}
// * * * * * * * * * * * * * * * * * * * * * * * * * * * * * * * * * * * * * //

dimensions      [0 0 0 1 0 0 0];


internalField   nonuniform List<scalar> 
10496
(
324.666
325.042
325.111
324.989
324.869
324.843
324.905
325.02
325.158
325.302
325.442
325.571
325.69
325.797
325.893
325.979
326.055
326.12
326.175
326.223
326.263
326.3
326.335
326.369
326.404
326.44
326.478
326.516
326.555
326.595
326.635
326.675
326.712
326.747
326.779
326.808
326.835
326.86
326.882
326.901
326.918
326.933
326.946
326.959
326.971
326.982
326.992
327.002
327.012
327.023
327.035
327.048
327.063
327.081
327.101
327.125
327.152
327.183
327.218
327.256
327.297
327.342
327.389
327.437
327.487
327.536
327.586
327.634
327.682
327.729
327.775
327.822
327.868
327.913
327.955
327.991
328.02
328.042
328.06
328.08
328.111
328.168
328.273
328.457
328.765
329.219
329.767
330.266
330.642
331.106
324.399
324.757
324.81
324.673
324.54
324.502
324.553
324.659
324.788
324.924
325.055
325.177
325.288
325.388
325.478
325.557
325.627
325.686
325.736
325.778
325.813
325.845
325.875
325.904
325.935
325.966
325.998
326.031
326.065
326.1
326.136
326.172
326.207
326.239
326.268
326.294
326.318
326.339
326.358
326.375
326.389
326.401
326.412
326.423
326.433
326.442
326.45
326.458
326.466
326.476
326.487
326.5
326.515
326.532
326.551
326.574
326.6
326.63
326.664
326.702
326.742
326.786
326.832
326.88
326.929
326.978
327.027
327.075
327.122
327.169
327.215
327.262
327.308
327.352
327.394
327.43
327.459
327.482
327.499
327.519
327.551
327.608
327.713
327.898
328.206
328.661
329.211
329.712
330.097
330.588
324.118
324.465
324.506
324.359
324.218
324.172
324.216
324.316
324.44
324.57
324.697
324.815
324.922
325.019
325.105
325.182
325.248
325.304
325.351
325.39
325.423
325.453
325.48
325.508
325.536
325.565
325.595
325.625
325.657
325.689
325.723
325.757
325.791
325.823
325.852
325.876
325.899
325.919
325.937
325.952
325.965
325.975
325.984
325.994
326.002
326.009
326.015
326.021
326.029
326.038
326.05
326.063
326.078
326.095
326.114
326.136
326.161
326.191
326.224
326.261
326.301
326.344
326.39
326.438
326.486
326.535
326.583
326.631
326.677
326.724
326.77
326.816
326.861
326.906
326.947
326.983
327.012
327.034
327.052
327.072
327.104
327.162
327.267
327.453
327.763
328.219
328.771
329.274
329.663
330.153
323.832
324.168
324.2
324.043
323.893
323.84
323.878
323.971
324.09
324.216
324.339
324.454
324.558
324.651
324.735
324.809
324.873
324.927
324.972
325.009
325.04
325.068
325.094
325.12
325.147
325.175
325.203
325.233
325.263
325.293
325.324
325.357
325.389
325.421
325.449
325.474
325.496
325.516
325.533
325.547
325.558
325.566
325.574
325.582
325.588
325.593
325.597
325.602
325.609
325.618
325.63
325.644
325.659
325.675
325.694
325.715
325.74
325.768
325.801
325.837
325.876
325.919
325.964
326.01
326.058
326.105
326.153
326.2
326.246
326.291
326.336
326.381
326.426
326.47
326.511
326.546
326.575
326.596
326.614
326.634
326.665
326.723
326.829
327.016
327.326
327.784
328.337
328.842
329.231
329.711
323.544
323.869
323.89
323.725
323.566
323.506
323.537
323.625
323.739
323.86
323.979
324.09
324.191
324.281
324.363
324.434
324.496
324.548
324.59
324.625
324.655
324.68
324.705
324.729
324.754
324.781
324.81
324.84
324.87
324.899
324.928
324.957
324.986
325.016
325.045
325.07
325.091
325.111
325.128
325.14
325.149
325.156
325.161
325.167
325.171
325.173
325.175
325.179
325.187
325.197
325.209
325.222
325.236
325.251
325.269
325.289
325.313
325.341
325.373
325.409
325.447
325.489
325.533
325.579
325.626
325.672
325.719
325.765
325.81
325.855
325.899
325.944
325.988
326.031
326.071
326.106
326.134
326.156
326.173
326.193
326.225
326.284
326.39
326.578
326.889
327.348
327.903
328.41
328.797
329.267
323.258
323.572
323.584
323.409
323.242
323.175
323.2
323.282
323.391
323.508
323.623
323.73
323.827
323.915
323.993
324.062
324.122
324.171
324.212
324.245
324.272
324.296
324.319
324.341
324.365
324.391
324.42
324.452
324.485
324.516
324.544
324.569
324.593
324.618
324.644
324.669
324.691
324.711
324.726
324.737
324.745
324.75
324.754
324.757
324.758
324.759
324.762
324.767
324.775
324.785
324.796
324.807
324.82
324.834
324.851
324.871
324.895
324.922
324.953
324.988
325.026
325.067
325.111
325.156
325.203
325.249
325.295
325.341
325.385
325.43
325.474
325.518
325.562
325.605
325.645
325.68
325.708
325.729
325.747
325.768
325.8
325.859
325.966
326.155
326.467
326.927
327.483
327.991
328.377
328.838
322.976
323.281
323.282
323.099
322.925
322.85
322.869
322.946
323.05
323.163
323.274
323.377
323.471
323.556
323.632
323.699
323.756
323.804
323.842
323.873
323.899
323.921
323.941
323.962
323.983
324.008
324.038
324.074
324.113
324.15
324.18
324.202
324.218
324.235
324.255
324.278
324.301
324.32
324.335
324.345
324.351
324.355
324.356
324.356
324.357
324.36
324.366
324.374
324.382
324.389
324.396
324.405
324.416
324.43
324.447
324.467
324.49
324.517
324.548
324.582
324.62
324.661
324.704
324.749
324.795
324.842
324.888
324.933
324.977
325.022
325.066
325.11
325.154
325.197
325.237
325.272
325.3
325.322
325.34
325.361
325.394
325.454
325.561
325.75
326.063
326.524
327.082
327.591
327.975
328.428
322.701
322.995
322.988
322.796
322.615
322.534
322.547
322.619
322.719
322.827
322.933
323.032
323.122
323.204
323.278
323.343
323.398
323.444
323.482
323.511
323.536
323.557
323.576
323.594
323.613
323.637
323.667
323.708
323.755
323.803
323.84
323.862
323.871
323.875
323.884
323.902
323.923
323.941
323.954
323.962
323.967
323.97
323.97
323.968
323.97
323.979
323.99
324
324.005
324.007
324.007
324.011
324.02
324.034
324.052
324.072
324.095
324.122
324.153
324.187
324.225
324.265
324.309
324.354
324.4
324.446
324.492
324.537
324.582
324.626
324.67
324.715
324.759
324.801
324.841
324.876
324.905
324.927
324.945
324.966
325
325.061
325.169
325.359
325.672
326.134
326.693
327.202
327.585
328.031
322.433
322.717
322.701
322.501
322.312
322.225
322.234
322.301
322.396
322.497
322.585
322.672
322.756
322.834
322.906
322.97
323.027
323.075
323.114
323.146
323.172
323.195
323.215
323.234
323.254
323.276
323.307
323.352
323.409
323.471
323.522
323.55
323.553
323.542
323.533
323.538
323.553
323.568
323.579
323.585
323.588
323.589
323.587
323.585
323.592
323.61
323.627
323.637
323.634
323.624
323.614
323.612
323.619
323.633
323.65
323.67
323.692
323.718
323.747
323.78
323.817
323.857
323.899
323.944
323.989
324.035
324.08
324.125
324.169
324.212
324.256
324.299
324.342
324.384
324.423
324.457
324.485
324.506
324.524
324.545
324.583
324.647
324.758
324.949
325.264
325.727
326.286
326.795
327.177
327.616
322.171
322.445
322.42
322.212
322.017
321.924
321.928
321.99
322.078
322.152
322.079
322.081
322.127
322.194
322.271
322.351
322.428
322.5
322.565
322.621
322.669
322.711
322.748
322.78
322.809
322.837
322.872
322.922
322.99
323.067
323.136
323.176
323.179
323.154
323.124
323.111
323.116
323.125
323.133
323.137
323.136
323.134
323.132
323.13
323.144
323.171
323.191
323.192
323.174
323.146
323.122
323.112
323.114
323.125
323.14
323.156
323.174
323.195
323.22
323.249
323.281
323.317
323.356
323.396
323.438
323.48
323.522
323.564
323.605
323.645
323.686
323.725
323.765
323.802
323.836
323.865
323.888
323.905
323.919
323.943
324.018
324.112
324.244
324.449
324.772
325.24
325.802
326.314
326.699
327.131
321.913
322.178
322.144
321.929
321.728
321.63
321.628
321.685
321.76
321.712
319.857
319.495
319.55
319.735
319.957
320.179
320.387
320.573
320.736
320.876
320.992
321.087
321.164
321.223
321.267
321.299
321.328
321.364
321.418
321.484
321.547
321.582
321.575
321.528
321.468
321.421
321.396
321.381
321.374
321.368
321.356
321.346
321.341
321.34
321.359
321.389
321.405
321.395
321.362
321.321
321.29
321.276
321.279
321.29
321.303
321.317
321.334
321.353
321.375
321.401
321.431
321.462
321.496
321.532
321.568
321.603
321.638
321.672
321.705
321.736
321.767
321.797
321.827
321.855
321.881
321.901
321.915
321.921
321.92
321.936
322.483
322.898
323.23
323.562
323.966
324.487
325.086
325.628
326.043
326.496
321.66
321.915
321.873
321.651
321.443
321.339
321.333
321.385
321.454
321.387
319.465
319.081
319.132
319.322
319.55
319.78
319.995
320.189
320.359
320.506
320.629
320.73
320.811
320.873
320.919
320.951
320.976
321.006
321.056
321.126
321.202
321.254
321.258
321.21
321.133
321.063
321.018
320.99
320.976
320.971
320.959
320.952
320.958
320.971
321.005
321.049
321.065
321.046
321
320.949
320.915
320.903
320.907
320.919
320.932
320.945
320.958
320.975
320.994
321.017
321.042
321.07
321.1
321.131
321.162
321.193
321.224
321.255
321.284
321.313
321.341
321.37
321.398
321.424
321.448
321.467
321.479
321.484
321.481
321.499
322.056
322.479
322.816
323.15
323.555
324.076
324.675
325.218
325.632
326.079
321.41
321.656
321.606
321.376
321.162
321.053
321.042
321.09
321.155
321.088
319.202
318.822
318.871
319.055
319.278
319.502
319.712
319.901
320.067
320.211
320.331
320.431
320.511
320.573
320.619
320.65
320.671
320.694
320.736
320.803
320.886
320.955
320.977
320.938
320.855
320.768
320.702
320.655
320.634
320.629
320.616
320.613
320.632
320.657
320.701
320.748
320.758
320.724
320.665
320.607
320.572
320.563
320.57
320.583
320.596
320.608
320.622
320.638
320.657
320.679
320.704
320.731
320.76
320.79
320.821
320.852
320.882
320.912
320.941
320.969
320.997
321.025
321.053
321.079
321.102
321.12
321.13
321.132
321.126
321.143
321.695
322.115
322.45
322.782
323.186
323.706
324.305
324.848
325.259
325.697
321.163
321.4
321.341
321.105
320.885
320.77
320.754
320.799
320.861
320.794
318.952
318.58
318.627
318.806
319.023
319.241
319.444
319.627
319.788
319.926
320.043
320.14
320.218
320.28
320.328
320.36
320.381
320.4
320.432
320.491
320.574
320.655
320.696
320.675
320.598
320.502
320.418
320.352
320.319
320.313
320.3
320.303
320.337
320.374
320.423
320.467
320.464
320.417
320.349
320.289
320.257
320.251
320.26
320.272
320.283
320.295
320.309
320.325
320.345
320.367
320.392
320.419
320.448
320.478
320.509
320.54
320.57
320.6
320.629
320.657
320.685
320.713
320.74
320.766
320.789
320.806
320.817
320.818
320.812
320.829
321.372
321.785
322.116
322.446
322.848
323.367
323.965
324.507
324.915
325.345
320.92
321.147
321.081
320.837
320.611
320.491
320.471
320.511
320.57
320.506
318.707
318.344
318.389
318.563
318.774
318.986
319.184
319.362
319.516
319.648
319.76
319.852
319.928
319.99
320.039
320.077
320.103
320.121
320.145
320.191
320.263
320.344
320.399
320.398
320.338
320.246
320.152
320.063
320.013
320.003
319.992
320.005
320.057
320.101
320.147
320.181
320.165
320.109
320.04
319.985
319.959
319.955
319.962
319.971
319.981
319.992
320.007
320.023
320.043
320.065
320.09
320.117
320.146
320.176
320.206
320.237
320.267
320.297
320.325
320.353
320.381
320.409
320.436
320.462
320.484
320.502
320.512
320.513
320.507
320.523
321.058
321.464
321.791
322.118
322.518
323.036
323.634
324.175
324.58
325.002
320.68
320.897
320.823
320.573
320.34
320.215
320.19
320.227
320.283
320.221
318.464
318.111
318.154
318.323
318.529
318.737
318.931
319.105
319.255
319.38
319.484
319.569
319.64
319.7
319.752
319.798
319.834
319.86
319.882
319.916
319.969
320.036
320.091
320.106
320.068
319.993
319.897
319.789
319.715
319.695
319.687
319.714
319.784
319.83
319.865
319.886
319.859
319.802
319.739
319.694
319.673
319.668
319.67
319.675
319.683
319.695
319.71
319.727
319.746
319.768
319.792
319.819
319.848
319.878
319.908
319.939
319.969
319.998
320.026
320.054
320.082
320.109
320.136
320.162
320.184
320.201
320.211
320.213
320.207
320.223
320.749
321.149
321.472
321.796
322.195
322.712
323.309
323.849
324.252
324.666
320.443
320.651
320.569
320.311
320.073
319.943
319.913
319.946
319.999
319.938
318.224
317.879
317.921
318.085
318.285
318.49
318.684
318.857
319.004
319.124
319.219
319.294
319.357
319.412
319.466
319.52
319.572
319.615
319.649
319.678
319.711
319.754
319.794
319.812
319.793
319.739
319.652
319.528
319.424
319.389
319.385
319.429
319.515
319.557
319.578
319.585
319.554
319.503
319.453
319.418
319.399
319.389
319.384
319.384
319.39
319.402
319.418
319.435
319.454
319.475
319.499
319.525
319.553
319.583
319.613
319.643
319.673
319.702
319.73
319.758
319.785
319.812
319.839
319.864
319.887
319.905
319.915
319.917
319.912
319.928
320.445
320.84
321.159
321.481
321.878
322.395
322.991
323.531
323.931
324.339
320.207
320.406
320.316
320.051
319.807
319.671
319.637
319.666
319.716
319.658
317.987
317.651
317.69
317.848
318.043
318.245
318.44
318.616
318.764
318.88
318.965
319.028
319.077
319.122
319.173
319.235
319.305
319.375
319.434
319.473
319.497
319.514
319.528
319.533
319.518
319.481
319.408
319.276
319.144
319.088
319.089
319.151
319.251
319.287
319.293
319.292
319.264
319.225
319.189
319.161
319.138
319.118
319.104
319.099
319.104
319.116
319.131
319.148
319.166
319.187
319.21
319.236
319.263
319.292
319.321
319.351
319.381
319.409
319.438
319.465
319.492
319.519
319.546
319.571
319.594
319.612
319.623
319.626
319.622
319.638
320.148
320.537
320.853
321.174
321.57
322.087
322.684
323.223
323.622
324.024
319.973
320.162
320.064
319.793
319.542
319.401
319.362
319.387
319.435
319.379
317.755
317.43
317.467
317.619
317.808
318.006
318.2
318.38
318.532
318.646
318.72
318.764
318.791
318.817
318.856
318.916
319
319.097
319.188
319.254
319.285
319.288
319.277
319.257
319.231
319.196
319.136
319.008
318.862
318.791
318.798
318.879
318.988
319.02
319.019
319.023
319.008
318.987
318.964
318.937
318.907
318.875
318.851
318.84
318.843
318.855
318.869
318.884
318.9
318.919
318.94
318.965
318.991
319.018
319.047
319.075
319.104
319.132
319.16
319.187
319.214
319.241
319.267
319.293
319.316
319.335
319.348
319.352
319.349
319.366
319.869
320.254
320.569
320.89
321.288
321.806
322.405
322.946
323.344
323.743
319.742
319.922
319.817
319.538
319.282
319.136
319.092
319.113
319.159
319.117
317.616
317.323
317.359
317.497
317.669
317.849
318.03
318.199
318.341
318.439
318.488
318.495
318.481
318.467
318.477
318.522
318.607
318.724
318.849
318.951
319.011
319.025
319.007
318.969
318.922
318.876
318.823
318.711
318.58
318.507
318.526
318.623
318.737
318.782
318.796
318.826
318.841
318.846
318.836
318.81
318.769
318.724
318.689
318.671
318.669
318.676
318.686
318.697
318.71
318.726
318.745
318.768
318.792
318.819
318.847
318.875
318.904
318.933
318.961
318.987
319.013
319.039
319.065
319.091
319.114
319.132
319.145
319.149
319.145
319.159
319.654
320.035
320.35
320.673
321.074
321.595
322.197
322.74
323.137
323.533
319.52
319.69
319.578
319.293
319.03
318.879
318.831
318.847
318.896
318.944
318.899
318.917
318.96
319.011
319.066
319.133
319.216
319.311
319.398
319.453
319.46
319.423
319.364
319.315
319.308
319.36
319.477
319.648
319.844
320.026
320.159
320.229
320.242
320.207
320.141
320.075
320.017
319.911
319.8
319.706
319.702
319.758
319.791
319.768
319.714
319.705
319.697
319.683
319.654
319.609
319.554
319.506
319.479
319.477
319.493
319.516
319.542
319.567
319.593
319.622
319.654
319.69
319.728
319.769
319.811
319.854
319.898
319.941
319.982
320.022
320.062
320.102
320.142
320.182
320.219
320.252
320.279
320.3
320.317
320.34
320.409
320.498
320.627
320.83
321.155
321.627
322.194
322.709
323.08
323.452
319.309
319.471
319.351
319.059
318.791
318.635
318.583
318.596
318.642
318.702
318.757
318.812
318.86
318.901
318.94
318.989
319.06
319.153
319.25
319.32
319.338
319.298
319.222
319.148
319.116
319.15
319.259
319.43
319.638
319.848
320.026
320.147
320.204
320.193
320.132
320.062
320.014
319.935
319.901
319.821
319.794
319.785
319.71
319.638
319.552
319.547
319.555
319.553
319.527
319.481
319.427
319.385
319.366
319.372
319.396
319.426
319.457
319.488
319.519
319.553
319.588
319.626
319.665
319.705
319.746
319.787
319.827
319.866
319.905
319.944
319.984
320.024
320.065
320.105
320.143
320.176
320.204
320.224
320.242
320.262
320.297
320.358
320.467
320.657
320.972
321.436
321.998
322.508
322.872
323.241
319.106
319.259
319.133
318.835
318.561
318.4
318.344
318.353
318.396
318.454
318.515
318.571
318.617
318.654
318.685
318.723
318.786
318.879
318.989
319.082
319.123
319.098
319.02
318.929
318.872
318.884
318.974
319.127
319.321
319.53
319.733
319.901
320.009
320.045
320.027
320.003
320.007
319.971
320.028
319.976
319.916
319.82
319.61
319.47
319.317
319.286
319.288
319.282
319.251
319.2
319.148
319.111
319.098
319.108
319.134
319.165
319.196
319.228
319.26
319.295
319.331
319.369
319.409
319.449
319.49
319.53
319.568
319.606
319.643
319.681
319.72
319.759
319.798
319.836
319.871
319.901
319.924
319.941
319.954
319.969
319.996
320.05
320.152
320.336
320.644
321.102
321.656
322.159
322.517
322.878
318.898
319.043
318.909
318.604
318.325
318.16
318.099
318.105
318.145
318.2
318.258
318.312
318.357
318.391
318.416
318.444
318.494
318.579
318.693
318.804
318.873
318.872
318.806
318.71
318.636
318.627
318.697
318.826
318.991
319.179
319.382
319.574
319.722
319.809
319.865
319.944
320.061
320.088
320.243
320.226
320.115
319.911
319.56
319.337
319.082
318.998
318.982
318.971
318.938
318.888
318.841
318.81
318.802
318.814
318.839
318.869
318.9
318.93
318.961
318.993
319.027
319.061
319.096
319.13
319.164
319.196
319.225
319.253
319.281
319.31
319.34
319.369
319.399
319.427
319.451
319.471
319.485
319.494
319.5
319.509
319.531
319.581
319.679
319.858
320.161
320.613
321.162
321.661
322.016
322.37
318.667
318.801
318.659
318.347
318.062
317.891
317.826
317.828
317.865
317.916
317.972
318.023
318.067
318.1
318.122
318.141
318.175
318.244
318.35
318.47
318.562
318.59
318.548
318.462
318.382
318.359
318.414
318.527
318.666
318.825
319.007
319.195
319.353
319.474
319.609
319.832
320.125
320.248
320.519
320.566
320.374
320.011
319.519
319.199
318.807
318.648
318.609
318.596
318.564
318.519
318.475
318.443
318.429
318.434
318.452
318.475
318.498
318.518
318.538
318.556
318.574
318.591
318.608
318.624
318.637
318.649
318.66
318.672
318.686
318.704
318.724
318.748
318.773
318.798
318.823
318.846
318.864
318.879
318.892
318.91
318.941
318.999
319.105
319.29
319.598
320.051
320.601
321.103
321.463
321.818
318.395
318.517
318.366
318.046
317.753
317.576
317.506
317.503
317.536
317.584
317.636
317.684
317.727
317.761
317.783
317.8
317.822
317.872
317.96
318.073
318.177
318.232
318.22
318.156
318.083
318.055
318.102
318.21
318.34
318.479
318.634
318.791
318.927
319.047
319.241
319.612
320.13
320.407
321.016
321.202
320.865
320.196
319.354
318.896
318.335
318.091
318.024
318.004
317.967
317.914
317.858
317.806
317.769
317.751
317.75
317.757
317.765
317.77
317.774
317.779
317.786
317.794
317.805
317.818
317.832
317.847
317.864
317.885
317.912
317.943
317.979
318.019
318.06
318.103
318.144
318.183
318.217
318.247
318.275
318.306
318.35
318.419
318.534
318.727
319.039
319.495
320.046
320.55
320.914
321.271
318.079
318.188
318.026
317.696
317.395
317.211
317.134
317.127
317.155
317.198
317.244
317.289
317.329
317.365
317.395
317.417
317.439
317.475
317.541
317.635
317.735
317.803
317.818
317.782
317.727
317.701
317.741
317.851
317.99
318.13
318.267
318.384
318.475
318.564
318.774
319.259
320.018
320.476
321.265
321.556
320.932
319.767
318.668
318.047
317.329
317.037
316.963
316.953
316.934
316.9
316.858
316.816
316.784
316.772
316.779
316.796
316.816
316.836
316.856
316.877
316.9
316.927
316.956
316.987
317.02
317.055
317.093
317.134
317.18
317.23
317.282
317.337
317.395
317.452
317.508
317.559
317.606
317.647
317.686
317.726
317.778
317.855
317.976
318.173
318.487
318.944
319.494
319.999
320.365
320.725
317.737
317.83
317.657
317.316
317.006
316.814
316.73
316.716
316.739
316.777
316.817
316.856
316.893
316.931
316.971
317.009
317.045
317.082
317.132
317.202
317.281
317.345
317.372
317.36
317.326
317.308
317.34
317.447
317.601
317.76
317.896
317.984
318.032
318.079
318.265
318.798
319.75
320.4
322.403
322.432
321.425
319.852
317.481
316.8
316.097
315.879
315.87
315.914
315.943
315.949
315.935
315.909
315.888
315.883
315.898
315.927
315.963
316.001
316.038
316.077
316.118
316.162
316.209
316.257
316.308
316.361
316.417
316.475
316.534
316.594
316.656
316.721
316.788
316.855
316.92
316.98
317.034
317.083
317.128
317.174
317.231
317.312
317.436
317.636
317.951
318.406
318.955
319.459
319.826
320.187
317.399
317.478
317.293
316.941
316.622
316.422
316.331
316.311
316.327
316.36
316.394
316.426
316.457
316.495
316.545
316.605
316.668
316.724
316.775
316.826
316.879
316.921
316.942
316.939
316.924
316.92
316.948
317.042
317.198
317.372
317.514
317.595
317.629
317.657
317.811
318.317
319.327
319.868
319.778
319.381
318.505
317.263
316.27
315.8
315.237
315.129
315.161
315.22
315.257
315.264
315.25
315.226
315.206
315.199
315.209
315.237
315.277
315.325
315.374
315.425
315.478
315.533
315.591
315.652
315.717
315.785
315.854
315.921
315.987
316.051
316.116
316.185
316.257
316.33
316.4
316.465
316.524
316.576
316.624
316.674
316.734
316.816
316.943
317.143
317.457
317.911
318.459
318.962
319.329
319.689
317.104
317.17
316.975
316.614
316.287
316.08
315.983
315.957
315.968
315.996
316.025
316.05
316.075
316.108
316.163
316.243
316.336
316.425
316.495
316.543
316.576
316.594
316.596
316.588
316.586
316.606
316.652
316.725
316.865
317.03
317.157
317.245
317.298
317.354
317.501
317.924
318.855
319.145
314.597
314.244
313.656
312.879
315.578
315.315
314.83
314.749
314.737
314.751
314.758
314.756
314.747
314.735
314.721
314.711
314.71
314.727
314.765
314.818
314.875
314.934
314.994
315.056
315.122
315.192
315.267
315.346
315.423
315.494
315.559
315.621
315.686
315.755
315.829
315.905
315.978
316.045
316.106
316.16
316.21
316.261
316.322
316.406
316.533
316.733
317.047
317.5
318.046
318.548
318.914
319.273
316.883
316.939
316.737
316.37
316.037
315.824
315.723
315.693
315.701
315.726
315.753
315.774
315.792
315.819
315.87
315.956
316.073
316.196
316.296
316.359
316.389
316.394
316.383
316.371
316.382
316.438
316.538
316.604
316.714
316.835
316.904
316.992
317.084
317.217
317.408
317.728
318.455
318.439
310.083
309.759
309.465
309.165
315.071
315.052
314.676
314.598
314.506
314.457
314.439
314.438
314.445
314.45
314.445
314.429
314.413
314.413
314.441
314.492
314.555
314.618
314.681
314.746
314.815
314.891
314.974
315.059
315.138
315.207
315.266
315.323
315.384
315.453
315.528
315.605
315.679
315.748
315.809
315.864
315.915
315.966
316.028
316.112
316.238
316.438
316.751
317.204
317.749
318.251
318.616
318.974
316.752
316.802
316.595
316.224
315.888
315.673
315.569
315.538
315.545
315.569
315.596
315.618
315.634
315.652
315.693
315.772
315.894
316.037
316.168
316.258
316.304
316.318
316.319
316.327
316.371
316.473
316.662
316.741
316.818
316.868
316.83
316.897
317.016
317.256
317.54
317.775
318.229
317.864
307.343
306.873
306.79
306.971
314.891
315.132
314.858
314.729
314.506
314.368
314.316
314.318
314.343
314.366
314.37
314.348
314.314
314.291
314.301
314.344
314.414
314.478
314.538
314.6
314.668
314.746
314.832
314.918
314.994
315.056
315.108
315.159
315.217
315.285
315.361
315.439
315.513
315.582
315.643
315.698
315.749
315.8
315.862
315.946
316.072
316.272
316.585
317.037
317.583
318.085
318.45
318.808
316.707
316.755
316.546
316.174
315.836
315.62
315.515
315.483
315.49
315.515
315.545
315.57
315.587
315.602
315.63
315.691
315.798
315.943
316.092
316.211
316.287
316.334
316.383
316.458
316.574
316.731
317.017
317.125
317.169
317.128
316.952
316.962
314.422
314.486
314.538
314.591
314.655
314.731
314.816
314.899
314.97
315.025
315.07
315.116
315.173
315.241
315.317
315.394
315.468
315.537
315.598
315.652
315.703
315.754
315.815
315.899
316.026
316.226
316.54
316.993
317.539
318.042
318.408
318.766
316.731
316.779
316.57
316.198
315.86
315.643
315.538
315.505
315.512
315.537
315.568
315.597
315.618
315.633
315.65
315.689
315.768
315.892
316.042
316.183
316.293
316.388
316.517
316.713
316.96
317.182
317.557
317.701
317.706
317.56
317.225
317.145
314.538
314.589
314.63
314.675
314.734
314.809
314.892
314.971
315.035
315.084
315.125
315.169
315.225
315.293
315.368
315.445
315.518
315.585
315.646
315.701
315.751
315.802
315.864
315.948
316.075
316.275
316.59
317.045
317.593
318.097
318.464
318.824
316.797
316.847
316.641
316.27
315.933
315.716
315.611
315.577
315.583
315.607
315.637
315.667
315.691
315.706
315.718
315.738
315.784
315.873
316.001
316.144
316.278
316.423
316.648
317.004
317.436
317.745
318.21
318.42
318.368
318.077
317.578
317.347
314.691
314.733
314.769
314.812
314.872
314.947
315.028
315.101
315.159
315.202
315.241
315.284
315.34
315.407
315.48
315.554
315.626
315.693
315.754
315.809
315.859
315.91
315.972
316.056
316.184
316.386
316.702
317.159
317.711
318.217
318.585
318.947
316.878
316.933
316.729
316.36
316.025
315.811
315.707
315.673
315.679
315.702
315.732
315.761
315.786
315.804
315.814
315.824
315.845
315.895
315.983
316.103
316.238
316.413
316.722
317.241
317.9
318.345
319.121
319.478
319.324
318.763
317.896
317.459
314.848
314.887
314.926
314.974
315.038
315.112
315.188
315.254
315.305
315.345
315.381
315.425
315.48
315.545
315.615
315.687
315.758
315.825
315.886
315.94
315.991
316.042
316.104
316.189
316.317
316.52
316.839
317.299
317.854
318.363
318.732
319.097
316.954
317.012
316.812
316.446
316.113
315.901
315.799
315.767
315.774
315.799
315.83
315.86
315.887
315.907
315.922
315.931
315.943
315.967
316.017
316.095
316.203
316.376
316.729
317.375
318.268
318.889
319.882
320.42
320.067
319.057
317.927
317.309
314.989
315.025
315.07
315.124
315.192
315.264
315.335
315.395
315.441
315.479
315.517
315.562
315.616
315.678
315.745
315.815
315.884
315.95
316.011
316.066
316.116
316.168
316.229
316.315
316.444
316.648
316.969
317.432
317.989
318.5
318.871
319.237
317.012
317.073
316.875
316.511
316.18
315.97
315.87
315.84
315.849
315.875
315.908
315.939
315.967
315.991
316.01
316.027
316.042
316.059
316.086
316.127
316.193
316.33
316.667
317.358
318.424
319.273
321.771
322.307
321.642
320.165
317.57
316.896
315.048
315.085
315.139
315.208
315.288
315.364
315.437
315.497
315.545
315.587
315.63
315.677
315.731
315.79
315.853
315.919
315.987
316.052
316.113
316.167
316.216
316.267
316.328
316.413
316.542
316.747
317.069
317.534
318.093
318.606
318.976
319.342
317.051
317.113
316.915
316.553
316.224
316.014
315.915
315.887
315.896
315.924
315.957
315.99
316.019
316.044
316.066
316.087
316.109
316.131
316.154
316.177
316.209
316.292
316.55
317.168
318.234
319.027
319.837
319.889
319.187
317.942
316.729
316.316
315.144
315.179
315.237
315.311
315.393
315.469
315.542
315.602
315.652
315.696
315.74
315.786
315.835
315.887
315.944
316.005
316.068
316.131
316.189
316.241
316.289
316.338
316.397
316.481
316.608
316.812
317.134
317.599
318.16
318.673
319.042
319.405
317.074
317.136
316.939
316.577
316.248
316.039
315.94
315.912
315.923
315.951
315.984
316.018
316.047
316.073
316.097
316.121
316.148
316.176
316.206
316.232
316.254
316.293
316.438
316.87
317.733
318.225
314.331
314.26
313.779
313.002
315.947
315.831
315.327
315.357
315.408
315.471
315.529
315.597
315.663
315.721
315.771
315.815
315.856
315.897
315.939
315.982
316.03
316.083
316.141
316.2
316.255
316.304
316.349
316.395
316.452
316.533
316.659
316.861
317.183
317.648
318.209
318.721
319.088
319.449
317.088
317.151
316.954
316.591
316.263
316.054
315.955
315.927
315.937
315.965
315.999
316.032
316.062
316.09
316.116
316.144
316.174
316.207
316.242
316.278
316.309
316.336
316.395
316.599
317.092
317.1
308.872
308.687
308.505
308.304
315.078
315.306
315.612
315.642
315.678
315.709
315.707
315.751
315.797
315.847
315.894
315.937
315.975
316.011
316.045
316.08
316.121
316.168
316.221
316.275
316.327
316.374
316.417
316.46
316.515
316.594
316.718
316.92
317.242
317.708
318.27
318.782
319.15
319.511
317.101
317.163
316.966
316.604
316.275
316.067
315.968
315.94
315.95
315.977
316.01
316.043
316.074
316.103
316.133
316.165
316.198
316.233
316.268
316.305
316.344
316.383
316.419
316.469
316.543
315.924
304.87
304.422
304.51
304.985
314.34
314.956
316.025
316.067
316.083
316.058
315.954
315.947
315.948
315.978
316.019
316.058
316.093
316.124
316.153
316.182
316.217
316.26
316.308
316.36
316.41
316.455
316.497
316.539
316.593
316.671
316.795
316.997
317.319
317.788
318.352
318.866
319.234
319.598
317.115
317.178
316.981
316.619
316.291
316.082
315.984
315.956
315.966
315.993
316.026
316.059
316.091
316.123
316.157
316.193
316.229
316.264
316.296
316.327
316.361
316.403
316.45
316.474
316.349
315.242
302.378
301.419
301.621
302.73
314.279
315.156
316.54
316.607
316.606
316.517
316.287
316.203
316.126
316.118
316.144
316.179
316.209
316.235
316.258
316.282
316.312
316.349
316.393
316.441
316.488
316.533
316.573
316.615
316.667
316.744
316.867
317.069
317.391
317.86
318.424
318.938
319.305
319.67
317.131
317.195
316.999
316.637
316.309
316.101
316.003
315.975
315.985
316.013
316.046
316.08
316.114
316.149
316.186
316.225
316.262
316.296
316.326
316.352
316.38
316.414
316.453
316.484
316.402
315.354
302.552
301.45
301.476
302.533
314.768
315.642
317.098
317.197
317.174
317.024
316.676
316.506
316.322
316.257
316.264
316.295
316.322
316.342
316.358
316.375
316.396
316.424
316.459
316.499
316.54
316.579
316.614
316.651
316.698
316.769
316.886
317.081
317.396
317.856
318.412
318.915
319.273
319.629
317.151
317.215
317.02
316.659
316.331
316.123
316.025
315.998
316.008
316.035
316.068
316.102
316.137
316.174
316.212
316.251
316.287
316.318
316.344
316.368
316.394
316.426
316.458
316.472
316.362
315.293
302.489
301.314
301.26
302.305
314.986
315.986
317.731
317.885
317.811
317.549
317.088
316.814
316.489
316.349
316.335
316.366
316.392
316.405
316.411
316.414