/*--------------------------------*- C++ -*----------------------------------*\
| =========                 |                                                 |
| \\      /  F ield         | OpenFOAM: The Open Source CFD Toolbox           |
|  \\    /   O peration     | Version:  v2012                                 |
|   \\  /    A nd           | Website:  www.openfoam.com                      |
|    \\/     M anipulation  |                                                 |
\*---------------------------------------------------------------------------*/
FoamFile
{
    version     2.0;
    format      ascii;
    class       volScalarField;
    location    "150/air";
    object      alphat;
}
// * * * * * * * * * * * * * * * * * * * * * * * * * * * * * * * * * * * * * //

dimensions      [1 -1 -1 0 0 0 0];


internalField   nonuniform List<scalar> 
287104
(
0.00647937
0.00600252
0.00563567
0.00534311
0.00510417
0.00490553
0.00473801
0.00459505
0.00447177
0.00436453
0.00427051
0.0041875
0.00411376
0.00404788
0.00398872
0.00393534
0.00388696
0.00384291
0.00380266
0.00376573
0.00373173
0.00370032
0.00367119
0.0036441
0.0036188
0.00359512
0.00357286
0.00355187
0.003532
0.00351312
0.00349511
0.00347784
0.0034612
0.00344509
0.00342939
0.00341401
0.00339884
0.00338381
0.00336881
0.00335379
0.00333869
0.00332345
0.00330806
0.0032925
0.00327679
0.00326095
0.00324505
0.00322916
0.00321337
0.00319779
0.00318255
0.00316776
0.00315357
0.00314012
0.00312752
0.0031159
0.00310534
0.00309594
0.00308775
0.00308078
0.00307505
0.00307053
0.00306716
0.00306487
0.00306357
0.00306316
0.00306351
0.00306451
0.00306604
0.00306799
0.00307025
0.00307273
0.00307533
0.00307801
0.00308069
0.00308334
0.00308593
0.00308844
0.00309086
0.0030932
0.00309544
0.0030976
0.00309968
0.00310165
0.0031035
0.00310511
0.00310635
0.00310672
0.00310608
0.00309729
0.00647932
0.00600241
0.00563549
0.00534286
0.00510387
0.00490519
0.00473764
0.00459465
0.00447135
0.0043641
0.00427007
0.00418706
0.00411333
0.00404747
0.00398834
0.00393499
0.00388664
0.00384263
0.00380242
0.00376554
0.00373159
0.00370022
0.00367115
0.0036441
0.00361886
0.00359523
0.00357303
0.0035521
0.00353229
0.00351348
0.00349553
0.00347833
0.00346175
0.0034457
0.00343007
0.00341474
0.00339964
0.00338466
0.00336972
0.00335476
0.00333971
0.00332454
0.00330922
0.00329375
0.00327814
0.00326242
0.00324666
0.00323093
0.00321532
0.00319994
0.00318491
0.00317037
0.00315644
0.00314326
0.00313094
0.00311959
0.00310931
0.00310016
0.00309219
0.00308543
0.00307986
0.00307545
0.00307215
0.00306987
0.00306853
0.00306802
0.00306822
0.00306902
0.00307031
0.00307197
0.00307391
0.00307604
0.00307828
0.00308058
0.00308288
0.00308513
0.00308733
0.00308944
0.00309146
0.0030934
0.00309525
0.00309703
0.00309873
0.00310033
0.00310181
0.00310307
0.00310396
0.003104
0.00310306
0.0030941
0.00647935
0.00600244
0.00563552
0.00534288
0.00510388
0.00490519
0.00473762
0.00459461
0.0044713
0.00436404
0.00427
0.004187
0.00411328
0.00404744
0.00398832
0.003935
0.00388668
0.0038427
0.00380253
0.00376568
0.00373177
0.00370044
0.00367141
0.00364441
0.00361922
0.00359564
0.0035735
0.00355263
0.00353289
0.00351414
0.00349627
0.00347915
0.00346266
0.0034467
0.00343115
0.00341592
0.00340091
0.00338604
0.0033712
0.00335635
0.00334142
0.00332638
0.00331119
0.00329585
0.00328039
0.00326483
0.00324924
0.0032337
0.00321829
0.00320314
0.00318836
0.00317407
0.00316043
0.00314754
0.00313554
0.00312453
0.0031146
0.00310582
0.00309824
0.00309186
0.00308669
0.00308268
0.00307977
0.00307788
0.00307692
0.00307677
0.00307731
0.00307842
0.00307999
0.00308192
0.0030841
0.00308646
0.00308892
0.00309143
0.00309393
0.0030964
0.00309882
0.00310116
0.00310344
0.00310564
0.00310778
0.00310986
0.00311188
0.00311383
0.00311568
0.00311736
0.0031187
0.00311927
0.00311891
0.00311098
0.00647939
0.00600247
0.00563553
0.00534286
0.00510382
0.00490508
0.00473747
0.00459441
0.00447106
0.00436376
0.0042697
0.00418669
0.00411296
0.00404713
0.00398803
0.00393472
0.00388641
0.00384246
0.00380231
0.00376548
0.00373159
0.00370028
0.00367127
0.0036443
0.00361914
0.0035956
0.00357349
0.00355266
0.00353297
0.00351429
0.00349648
0.00347942
0.00346302
0.00344714
0.00343168
0.00341655
0.00340165
0.00338687
0.00337215
0.00335741
0.0033426
0.00332766
0.00331258
0.00329736
0.00328201
0.00326656
0.00325108
0.00323564
0.00322034
0.00320529
0.00319061
0.00317644
0.0031629
0.00315014
0.00313826
0.00312739
0.00311761
0.00310899
0.00310159
0.00309542
0.00309048
0.00308672
0.00308409
0.00308251
0.00308185
0.00308201
0.00308284
0.00308423
0.00308605
0.00308823
0.00309066
0.00309328
0.00309603
0.00309884
0.00310168
0.00310452
0.00310734
0.00311012
0.00311285
0.00311555
0.00311821
0.00312084
0.00312344
0.003126
0.0031285
0.00313087
0.00313295
0.00313434
0.00313487
0.00312838
0.00647942
0.00600251
0.00563556
0.00534287
0.0051038
0.00490502
0.00473737
0.00459427
0.00447087
0.00436353
0.00426944
0.00418641
0.00411268
0.00404685
0.00398777
0.00393448
0.0038862
0.00384227
0.00380214
0.00376534
0.00373147
0.00370019
0.00367121
0.00364426
0.00361914
0.00359563
0.00357356
0.00355278
0.00353315
0.00351452
0.00349678
0.0034798
0.00346348
0.0034477
0.00343235
0.00341733
0.00340254
0.00338789
0.00337329
0.00335868
0.00334399
0.00332919
0.00331425
0.00329915
0.00328393
0.00326861
0.00325325
0.00323793
0.00322276
0.00320783
0.00319328
0.00317924
0.00316584
0.00315322
0.00314151
0.00313082
0.00312125
0.00311287
0.00310576
0.00309996
0.00309542
0.00309209
0.00308988
0.00308867
0.00308834
0.00308875
0.00308979
0.00309133
0.00309328
0.00309554
0.00309805
0.00310073
0.00310353
0.00310642
0.00310935
0.00311232
0.0031153
0.00311828
0.00312126
0.00312422
0.00312718
0.00313012
0.00313304
0.00313594
0.00313876
0.00314143
0.00314379
0.00314551
0.00314643
0.00314084
0.00647946
0.00600255
0.00563557
0.00534285
0.00510374
0.00490491
0.0047372
0.00459403
0.00447057
0.00436318
0.00426906
0.00418602
0.00411231
0.00404651
0.00398745
0.0039342
0.00388594
0.00384204
0.00380193
0.00376514
0.00373128
0.00370002
0.00367105
0.00364412
0.00361901
0.00359552
0.00357349
0.00355276
0.00353318
0.00351462
0.00349696
0.00348007
0.00346386
0.00344819
0.00343297
0.0034181
0.00340346
0.00338897
0.00337455
0.00336011
0.00334561
0.00333099
0.00331623
0.00330132
0.00328628
0.00327114
0.00325596
0.00324081
0.00322581
0.00321105
0.00319667
0.0031828
0.00316958
0.00315715
0.00314564
0.00313517
0.00312587
0.00311787
0.00311113
0.00310567
0.00310145
0.00309839
0.00309639
0.00309532
0.00309508
0.00309554
0.0030966
0.00309814
0.00310008
0.00310233
0.00310482
0.00310749
0.00311029
0.00311319
0.00311614
0.00311914
0.00312215
0.00312518
0.0031282
0.00313121
0.00313419
0.00313716
0.0031401
0.00314302
0.00314589
0.00314863
0.0031511
0.00315292
0.00315398
0.00314899
0.00647949
0.00600258
0.00563559
0.00534283
0.00510367
0.00490478
0.00473698
0.00459372
0.00447014
0.00436264
0.00426843
0.00418534
0.00411162
0.00404582
0.00398679
0.00393356
0.00388534
0.00384146
0.00380138
0.00376461
0.00373077
0.00369952
0.00367056
0.00364365
0.00361857
0.00359512
0.00357313
0.00355245
0.00353295
0.00351448
0.00349693
0.00348018
0.00346412
0.00344862
0.0034336
0.00341893
0.00340453
0.00339029
0.00337613
0.00336197
0.00334776
0.00333344
0.00331899
0.00330439
0.00328966
0.00327483
0.00325996
0.00324514
0.00323045
0.00321602
0.00320197
0.00318843
0.00317558
0.00316361
0.00315258
0.00314262
0.00313384
0.00312626
0.0031199
0.00311472
0.00311067
0.00310768
0.00310565
0.0031045
0.00310412
0.00310442
0.00310528
0.00310663
0.00310837
0.00311043
0.00311275
0.00311526
0.00311792
0.0031207
0.00312356
0.00312648
0.00312944
0.00313242
0.00313541
0.0031384
0.00314134
0.00314425
0.00314713
0.00314998
0.00315279
0.0031555
0.00315797
0.00315987
0.00316094
0.00315642
0.00647953
0.00600262
0.0056356
0.0053428
0.00510358
0.00490461
0.00473671
0.00459333
0.00446964
0.00436202
0.00426776
0.00418471
0.00411106
0.00404534
0.00398636
0.00393316
0.00388494
0.00384104
0.0038009
0.00376406
0.00373013
0.00369879
0.00366973
0.00364273
0.00361757
0.00359406
0.00357204
0.00355136
0.00353188
0.00351347
0.00349603
0.00347942
0.00346353
0.00344826
0.00343349
0.00341911
0.00340503
0.00339114
0.00337736
0.00336362
0.00334984
0.00333597
0.00332199
0.00330785
0.00329358
0.00327922
0.00326484
0.00325054
0.00323641
0.0032226
0.00320922
0.00319641
0.0031843
0.00317302
0.00316265
0.00315328
0.00314496
0.00313774
0.0031316
0.00312655
0.00312253
0.00311948
0.00311735
0.00311604
0.00311548
0.00311556
0.00311621
0.00311733
0.00311885
0.00312069
0.00312279
0.0031251
0.00312757
0.00313016
0.00313287
0.00313566
0.00313851
0.0031414
0.00314431
0.00314718
0.00314998
0.00315272
0.00315543
0.00315813
0.00316082
0.00316345
0.00316591
0.0031679
0.00316908
0.00316496
0.00647956
0.00600265
0.00563561
0.00534276
0.00510345
0.00490436
0.0047363
0.00459267
0.00446862
0.00436055
0.00426648
0.00418433
0.00411189
0.00404733
0.00398921
0.00393646
0.00388824
0.00384395
0.00380311
0.00376534
0.00373034
0.00369785
0.00366765
0.00363956
0.00361341
0.00358903
0.00356628
0.00354503
0.00352513
0.00350645
0.00348886
0.00347222
0.00345641
0.00344128
0.00342672
0.00341262
0.00339888
0.0033854
0.00337208
0.00335882
0.00334551
0.00333211
0.00331858
0.0033049
0.0032911
0.00327724
0.0032634
0.00324966
0.00323614
0.00322294
0.00321018
0.00319799
0.0031865
0.00317581
0.00316602
0.00315722
0.00314945
0.00314275
0.00313712
0.00313255
0.00312901
0.00312642
0.00312473
0.00312385
0.00312369
0.00312417
0.0031252
0.00312668
0.00312855
0.00313074
0.00313317
0.0031358
0.00313858
0.00314148
0.00314446
0.00314751
0.00315062
0.00315377
0.00315696
0.00316011
0.00316309
0.00316591
0.00316862
0.0031713
0.00317395
0.00317654
0.00317899
0.00318107
0.00318264
0.00317997
0.00647959
0.00600268
0.00563561
0.00534271
0.00510332
0.00490412
0.00473589
0.00459205
0.00446767
0.00435937
0.00432372
0.00430422
0.00427686
0.00423724
0.0041874
0.00413095
0.00407127
0.00401096
0.00395187
0.00389524
0.00384187
0.00379221
0.00374646
0.00370466
0.0036667
0.00363238
0.00360143
0.00357354
0.00354832
0.00352534
0.00350414
0.00348421
0.00346508
0.00344623
0.00342714
0.0034099
0.00339427
0.0033797
0.00336576
0.00335217
0.0033387
0.00332522
0.00331165
0.00329812
0.00328478
0.00327165
0.00325878
0.00324623
0.00323406
0.00322236
0.0032112
0.00320068
0.0031909
0.00318195
0.00317389
0.00316681
0.00316072
0.00315567
0.00315163
0.0031486
0.00314651
0.00314532
0.00314495
0.00314532
0.00314634
0.00314793
0.00315001
0.00315249
0.00315531
0.0031584
0.0031617
0.00316519
0.00316882
0.00317256
0.00317641
0.00318035
0.00318438
0.00318849
0.0031927
0.00319694
0.00319764
0.00319752
0.00319758
0.00319805
0.00319887
0.00319988
0.00320082
0.00320123
0.00320017
0.00319313
0.00647962
0.0060027
0.0056356
0.00534264
0.00510314
0.00490375
0.00473518
0.00459069
0.00446451
0.0043627
0.00768257
0.00840204
0.00838813
0.00812906
0.00780385
0.00748025
0.00718302
0.00691989
0.00669184
0.00649732
0.00633389
0.00619883
0.00608935
0.0060026
0.00593567
0.00588559
0.0058494
0.00582417
0.00580712
0.0057957
0.00578766
0.00578107
0.00577441
0.00576655
0.00575664
0.00574475
0.00573185
0.00571827
0.00570407
0.00568924
0.00567384
0.00565769
0.00564091
0.00562345
0.00560546
0.00558733
0.00556946
0.00555214
0.00553562
0.00552002
0.00550546
0.00549201
0.00547975
0.00546871
0.00545889
0.00545025
0.00544271
0.00543621
0.00543065
0.00542592
0.00542191
0.0054185
0.00541557
0.00541301
0.0054107
0.00540855
0.00540647
0.00540442
0.00540235
0.00540027
0.0053982
0.00539618
0.00539431
0.00539274
0.00539176
0.00539173
0.00539338
0.00539765
0.00540894
0.00541984
0.00448511
0.00394877
0.00362968
0.00343738
0.00332061
0.00324951
0.00320611
0.00317911
0.00316126
0.00314165
0.00647966
0.00600273
0.00563561
0.00534259
0.00510302
0.00490351
0.00473479
0.00459009
0.00446361
0.00436148
0.00768323
0.00840451
0.0083889
0.00812558
0.0077946
0.00746431
0.0071599
0.00688946
0.00665421
0.00645282
0.00628303
0.00614233
0.00602807
0.00593754
0.00586791
0.00581625
0.00577954
0.00575475
0.00573894
0.00572935
0.00572352
0.00571933
0.00571504
0.00570929
0.00570108
0.00568968
0.00567467
0.00565586
0.00563323
0.00560685
0.00557695
0.00554413
0.00550884
0.00547159
0.00543301
0.00539376
0.00535456
0.00531597
0.00527852
0.00524269
0.00520885
0.00517733
0.00514836
0.00512207
0.00509854
0.00507774
0.0050596
0.00504398
0.0050307
0.00501956
0.00501034
0.0050028
0.00499673
0.00499188
0.00498805
0.00498504
0.00498268
0.00498085
0.00497943
0.00497837
0.00497764
0.00497726
0.00497729
0.00497785
0.00497935
0.00498199
0.00498627
0.00499268
0.00500489
0.0050149
0.00425416
0.00383156
0.00359102
0.00345128
0.00336841
0.00331804
0.00328628
0.0032648
0.00324822
0.00322683
0.00647969
0.00600276
0.00563561
0.00534254
0.00510289
0.00490328
0.00473438
0.00458944
0.0044626
0.00436
0.00767662
0.00839853
0.00838462
0.00812287
0.00779303
0.00746334
0.00715905
0.00688835
0.00665263
0.00645069
0.00628044
0.00613948
0.00602533
0.00593537
0.00586686
0.00581691
0.00578248
0.00576052
0.00574798
0.00574203
0.00574009
0.00573996
0.00573983
0.00573829
0.00573432
0.00572718
0.00571641
0.00570178
0.00568325
0.00566089
0.00563492
0.00560564
0.00557346
0.00553886
0.00550236
0.0054645
0.00542588
0.00538719
0.00534907
0.00531212
0.00527684
0.00524368
0.00521301
0.0051851
0.00516013
0.00513818
0.00511922
0.00510318
0.00508992
0.00507924
0.00507093
0.00506476
0.00506048
0.00505783
0.00505659
0.00505653
0.00505759
0.00505967
0.0050626
0.00506629
0.00507071
0.00507584
0.00508178
0.00508867
0.00509651
0.00510562
0.00511659
0.00513
0.00514958
0.00517829
0.00442917
0.00402027
0.00378572
0.00364491
0.00355633
0.00349772
0.00345618
0.00342481
0.00340184
0.00337653
0.00647972
0.0060028
0.00563563
0.00534252
0.00510282
0.00490314
0.00473415
0.0045891
0.00446214
0.00435943
0.0076749
0.00839716
0.00838371
0.00812222
0.00779238
0.00746252
0.00715795
0.00688689
0.00665081
0.00644854
0.00627804
0.00613695
0.0060228
0.005933
0.00586483
0.00581542
0.00578172
0.00576068
0.00574926
0.00574459
0.00574408
0.00574551
0.00574707
0.00574732
0.0057452
0.00573998
0.00573118
0.00571854
0.00570197
0.0056815
0.00565729
0.00562963
0.00559888
0.00556557
0.00553028
0.0054937
0.0054565
0.00541937
0.00538301
0.00534803
0.005315
0.00528436
0.00525648
0.00523179
0.00521115
0.00519404
0.00517994
0.00516853
0.00515954
0.00515279
0.00514808
0.0051452
0.00514387
0.00514388
0.00514502
0.0051471
0.00514992
0.00515343
0.0051576
0.0051624
0.00516785
0.00517397
0.00518081
0.00518849
0.00519723
0.00520742
0.00521982
0.00523567
0.0052604
0.00529959
0.0045359
0.00411932
0.00387898
0.00373281
0.00363904
0.00357546
0.00352939
0.00349284
0.00345695
0.0034224
0.00647975
0.00600283
0.00563565
0.00534252
0.00510277
0.00490304
0.00473398
0.00458884
0.00446178
0.00435894
0.00767257
0.00839456
0.00838123
0.00811993
0.00779027
0.00746052
0.00715597
0.00688487
0.0066487
0.00644632
0.00627573
0.0061346
0.00602048
0.00593082
0.00586292
0.00581388
0.00578071
0.00576031
0.00574964
0.00574584
0.00574632
0.00574884
0.00575158
0.00575312
0.0057524
0.00574866
0.00574139
0.00573028
0.00571518
0.00569601
0.00567286
0.00564594
0.00561559
0.00558232
0.00554674
0.00550959
0.00547158
0.00543351
0.00539615
0.00536021
0.00532632
0.00529502
0.00526674
0.00524289
0.00522311
0.00520686
0.00519364
0.00518316
0.00517519
0.00516949
0.00516577
0.00516376
0.00516319
0.00516384
0.00516549
0.005168
0.00517124
0.00517508
0.00517948
0.00518443
0.00518994
0.00519603
0.00520281
0.00521041
0.0052191
0.00522925
0.00524165
0.00525753
0.00528229
0.00532133
0.00455311
0.00413368
0.00389137
0.00374371
0.00364878
0.00358428
0.00353753
0.00350057
0.0034647
0.00343024
0.00647979
0.00600287
0.00563568
0.00534253
0.00510276
0.00490299
0.0047339
0.00458872
0.00446161
0.00435872
0.00767119
0.00839279
0.00837919
0.00811767
0.0077878
0.00745785
0.00715312
0.00688188
0.0066456
0.00644317
0.00627259
0.00613154
0.00601759
0.00592818
0.00586062
0.00581201
0.00577934
0.00575951
0.00574948
0.00574638
0.00574763
0.00575101
0.0057547
0.0057573
0.00575775
0.00575529
0.00574938
0.00573965
0.00572583
0.00570774
0.00568534
0.00565871
0.00562816
0.0055942
0.00555752
0.00551892
0.00547926
0.00543946
0.00540034
0.00536268
0.00532718
0.0052944
0.00526481
0.00523889
0.00521781
0.0052009
0.00518748
0.00517705
0.00516929
0.00516392
0.00516061
0.00515906
0.00515898
0.00516011
0.00516224
0.0051652
0.00516886
0.00517312
0.00517795
0.0051833
0.00518918
0.00519562
0.00520271
0.00521062
0.00521961
0.00523006
0.00524276
0.00525895
0.00528405
0.00532345
0.00455533
0.00413583
0.00389334
0.0037455
0.00365039
0.00358579
0.00353901
0.00350215
0.00346663
0.00343303
0.00647982
0.00600291
0.00563571
0.00534256
0.00510278
0.00490301
0.00473391
0.00458874
0.00446164
0.00435877
0.00767087
0.00839198
0.00837779
0.00811564
0.00778516
0.00745467
0.00714949
0.0068779
0.00664141
0.00643891
0.0062684
0.00612755
0.00601394
0.00592499
0.00585798
0.00580998
0.00577796
0.00575879
0.00574942
0.00574697
0.00574888
0.00575296
0.00575745
0.00576099
0.00576255
0.00576139
0.00575694
0.00574875
0.00573641
0.00571956
0.00569791
0.0056714
0.00564022
0.00560488
0.00556617
0.00552501
0.00548247
0.00543954
0.00539718
0.00535631
0.00531777
0.00528225
0.00525026
0.00522216
0.00519815
0.00517826
0.00516238
0.00515098
0.00514341
0.00513882
0.00513662
0.00513639
0.00513777
0.00514043
0.0051441
0.0051486
0.00515374
0.00515943
0.00516558
0.00517217
0.00517918
0.00518665
0.00519468
0.00520342
0.00521313
0.0052242
0.00523742
0.00525406
0.00527961
0.00531967
0.00455322
0.0041346
0.00389252
0.0037448
0.00364968
0.00358501
0.00353816
0.00350132
0.00346602
0.00343349
0.00647985
0.00600295
0.00563575
0.0053426
0.00510282
0.00490306
0.00473398
0.00458883
0.00446175
0.00435887
0.00766968
0.00838955
0.00837435
0.00811153
0.00778068
0.00745005
0.00714493
0.00687355
0.0066374
0.00643538
0.00626549
0.00612545
0.00601283
0.00592506
0.00585937
0.00581281
0.00578223
0.00576448
0.00575644
0.00575526
0.0057584
0.00576377
0.00576969
0.0057749
0.00577844
0.00577958
0.00577767
0.00577207
0.00576208
0.00574689
0.00572585
0.00569859
0.0056652
0.00562635
0.00558316
0.00553697
0.00548934
0.00544161
0.00539462
0.00534925
0.00530637
0.00526674
0.00523096
0.00519939
0.00517226
0.00514963
0.00513142
0.00511742
0.00510733
0.00510076
0.00509733
0.00509662
0.00509819
0.00510161
0.00510651
0.00511256
0.00511949
0.00512704
0.00513499
0.00514321
0.00515173
0.00516053
0.00516969
0.00517931
0.00518962
0.00520095
0.00521396
0.00522935
0.00525442
0.00529496
0.00453371
0.00411728
0.00387586
0.0037281
0.00363264
0.00356757
0.00352038
0.00348337
0.00344988
0.00342029
0.00647988
0.00600299
0.00563581
0.00534266
0.00510292
0.0049032
0.00473421
0.00458922
0.00446242
0.00435992
0.00767371
0.00839227
0.00837494
0.00811014
0.00777777
0.00744634
0.00714131
0.00687111
0.00663738
0.00643919
0.00627461
0.00614133
0.00603671
0.00595785
0.00590155
0.00586441
0.0058429
0.0058336
0.00583331
0.00583923
0.005849
0.00586076
0.00587307
0.00588482
0.00589514
0.00590318
0.00590802
0.00590848
0.00590307
0.00589001
0.00586768
0.00583507
0.00579219
0.00574024
0.00568129
0.005618
0.00555287
0.00548947
0.0054291
0.00537242
0.00532003
0.00527231
0.00522946
0.00519155
0.00515855
0.00513038
0.00510689
0.00508784
0.00507297
0.00506196
0.00505446
0.00505007
0.00504838
0.00504906
0.00505192
0.00505669
0.00506305
0.00507074
0.00507958
0.00508943
0.00510008
0.00511142
0.00512342
0.00513614
0.00514972
0.00516438
0.00518064
0.00519924
0.00522394
0.00525889
0.00448964
0.00406456
0.00381648
0.00366429
0.00356631
0.00350019
0.00345308
0.00341731
0.00339087
0.00336569
0.00647991
0.00600304
0.00563586
0.00534273
0.00510301
0.00490333
0.00473442
0.00458955
0.00446294
0.00436057
0.00766898
0.00838463
0.00836866
0.00810792
0.00778236
0.00746262
0.00717548
0.00692983
0.006727
0.00656498
0.00644017
0.00634818
0.00628423
0.0062435
0.00622137
0.00621359
0.00621645
0.00622685
0.00624231
0.00626089
0.00628119
0.00630217
0.00632313
0.00634348
0.00636268
0.00638003
0.00639447
0.00640435
0.00640722
0.00639971
0.00637801
0.00633881
0.00628
0.0062013
0.00610426
0.00599214
0.00586951
0.00574306
0.00562211
0.00551448
0.00542291
0.00534738
0.00528657
0.00523852
0.00520107
0.00517219
0.00515005
0.0051332
0.00512053
0.00511125
0.00510495
0.00510036
0.00510042
0.00510543
0.0051148
0.00512771
0.00514339
0.00516117
0.00518037
0.00520047
0.00522133
0.00524295
0.00526537
0.00528864
0.00531289
0.00533831
0.00536543
0.00539515
0.00543152
0.00547667
0.00457569
0.00407053
0.00377364
0.00359267
0.00347896
0.00340563
0.0033569
0.00332309
0.00329778
0.00327655
0.00647995
0.00600308
0.00563592
0.00534282
0.00510315
0.0049036
0.00473496
0.00459065
0.00446576
0.00435684
0.00428205
0.00421779
0.00415205
0.00408616
0.00402486
0.00396779
0.00391478
0.0038657
0.00382039
0.00377869
0.0037404
0.00370532
0.00367324
0.00364396
0.00361727
0.00359296
0.00357085
0.00355073
0.00353244
0.00351582
0.00350073
0.00348705
0.0034747
0.0034636
0.00345372
0.00344504
0.00343752
0.00343111
0.00342564
0.00342077
0.003416
0.00341069
0.00340423
0.0033961
0.00338598
0.00337372
0.00335933
0.00334552
0.00333735
0.00333079
0.00332329
0.00331354
0.00330103
0.00328583
0.00326836
0.00324936
0.00322953
0.00320943
0.00318951
0.00317004
0.00315111
0.00313523
0.00312398
0.0031165
0.00311203
0.00310992
0.00310967
0.00311086
0.00311337
0.00311703
0.00312159
0.00312675
0.00313232
0.00313813
0.0031441
0.00315018
0.00315635
0.00316265
0.00316913
0.0031759
0.00317916
0.00318154
0.00318416
0.00318729
0.00319092
0.00319495
0.00319909
0.003203
0.00320518
0.00320406
0.00647998
0.00600312
0.00563597
0.00534288
0.00510323
0.00490372
0.00473516
0.00459096
0.00446625
0.00435746
0.00426208
0.00417803
0.00410341
0.00403669
0.00397666
0.00392236
0.003873
0.00382795
0.00378667
0.00374873
0.00371378
0.0036815
0.00365165
0.003624
0.00359839
0.00357466
0.00355267
0.00353232
0.00351351
0.00349615
0.00348017
0.00346553
0.00345221
0.00344021
0.00342958
0.00342039
0.00341273
0.00340665
0.00340209
0.00339868
0.00339574
0.00339246
0.003388
0.00338177
0.00337342
0.00336286
0.00335025
0.00333578
0.00331976
0.00330235
0.00328395
0.00326489
0.00324546
0.00322598
0.00320673
0.00318805
0.00317024
0.00315363
0.00313846
0.00312494
0.00311322
0.00310337
0.00309542
0.0030893
0.00308486
0.00308191
0.00308023
0.00307963
0.00307993
0.00308102
0.00308286
0.00308541
0.00308863
0.00309245
0.00309684
0.00310176
0.0031072
0.00311313
0.00311956
0.00312644
0.00313363
0.00314105
0.00314877
0.00315686
0.00316531
0.00317408
0.00318299
0.0031918
0.00319947
0.00320421
0.00648001
0.00600316
0.00563601
0.00534293
0.00510332
0.00490385
0.00473537
0.00459131
0.00446685
0.00435838
0.0042632
0.00417912
0.00410435
0.00403744
0.0039772
0.00392268
0.00387311
0.00382783
0.00378632
0.00374813
0.0037129
0.00368032
0.00365013
0.00362211
0.0035961
0.00357193
0.0035495
0.00352868
0.0035094
0.00349156
0.00347512
0.00346005
0.00344634
0.00343406
0.00342332
0.00341429
0.00340723
0.00340237
0.00339984
0.00339922
0.00339954
0.00339951
0.00339789
0.00339376
0.00338668
0.00337655
0.00336362
0.00334817
0.00333057
0.00331127
0.00329074
0.00326943
0.0032478
0.00322628
0.00320527
0.00318515
0.00316624
0.00314884
0.00313317
0.00311944
0.00310773
0.00309807
0.00309038
0.00308457
0.00308049
0.00307796
0.00307683
0.00307692
0.00307806
0.00308012
0.003083
0.00308668
0.00309109
0.00309626
0.0031022
0.00310894
0.00311653
0.00312501
0.00313441
0.00314473
0.00315594
0.00316799
0.00318086
0.00319448
0.00320871
0.00322338
0.00323821
0.00325288
0.00326668
0.00327771
0.00648004
0.0060032
0.00563605
0.00534297
0.00510334
0.00490387
0.00473539
0.00459134
0.00446687
0.00435835
0.00426303
0.00417873
0.0041037
0.00403649
0.00397596
0.00392116
0.00387129
0.00382572
0.00378391
0.00374542
0.00370988
0.00367697
0.00364644
0.00361809
0.00359173
0.00356722
0.00354443
0.00352327
0.00350364
0.00348546
0.00346868
0.00345329
0.00343929
0.00342677
0.00341592
0.00340706
0.00340065
0.0033973
0.00339764
0.00340134
0.00340697
0.00341247
0.0034157
0.00341523
0.00341043
0.00340127
0.00338841
0.00337236
0.00335364
0.00333282
0.00331044
0.00328709
0.00326331
0.00323963
0.00321655
0.00319454
0.00317399
0.00315525
0.00313857
0.00312416
0.0031121
0.00310243
0.00309511
0.00309004
0.0030871
0.00308613
0.00308696
0.00308942
0.00309348
0.00309958
0.00310756
0.00311721
0.00312851
0.00314141
0.00315584
0.00317176
0.0031891
0.00320774
0.00322753
0.00324825
0.00326981
0.00329206
0.00331461
0.00333712
0.00335928
0.00338082
0.00340139
0.00342068
0.00343751
0.00345132
0.00648007
0.00600323
0.00563608
0.00534299
0.00510335
0.00490387
0.00473538
0.00459131
0.00446682
0.00435827
0.00426287
0.00417843
0.0041032
0.00403575
0.00397493
0.0039198
0.00386958
0.00382363
0.00378142
0.00374251
0.00370653
0.00367318
0.00364221
0.0036134
0.00358659
0.00356164
0.00353841
0.00351682
0.00349676
0.00347817
0.00346096
0.00344512
0.00343066
0.00341767
0.00340638
0.00339728
0.00339112
0.00338919
0.00339376
0.00340579
0.00342356
0.00344288
0.00345884
0.00346849
0.0034707
0.00346542
0.00345415
0.00343901
0.00342078
0.00340023
0.00337813
0.00335519
0.00333209
0.0033095
0.00328801
0.00326816
0.00325043
0.00323519
0.00322272
0.00321319
0.00320669
0.0032032
0.00320265
0.0032049
0.00320979
0.00321712
0.00322773
0.00324179
0.00325869
0.00327747
0.00329785
0.00331973
0.00334284
0.00336692
0.00339156
0.00341727
0.00344344
0.00346953
0.00349513
0.00351991
0.00354359
0.00356601
0.00358703
0.00360657
0.00362458
0.00364101
0.00365576
0.00366877
0.00367901
0.00368605
0.0064801
0.00600327
0.00563611
0.00534299
0.00510333
0.00490381
0.00473527
0.00459114
0.00446656
0.0043579
0.00426234
0.00417768
0.00410219
0.00403444
0.0039733
0.00391781
0.00386721
0.00382086
0.00377822
0.00373886
0.00370241
0.00366858
0.00363711
0.0036078
0.00358049
0.00355503
0.00353131
0.00350923
0.00348869
0.00346959
0.00345187
0.00343547
0.00342037
0.00340664
0.00339451
0.00338463
0.00337801
0.00337742
0.00339294
0.00343379
0.00349772
0.00356938
0.00363282
0.00368199
0.00371537
0.00373396
0.00373857
0.00373522
0.00372868
0.00371928
0.00370736
0.00369333
0.00367778
0.00366136
0.00364483
0.00362894
0.0036144
0.0036018
0.00359163
0.00358422
0.00357979
0.0035784
0.00358004
0.00358461
0.00359279
0.00360492
0.00361948
0.00363522
0.00365333
0.003673
0.00369358
0.0037144
0.00373492
0.00375482
0.00377382
0.00379173
0.00380844
0.00382384
0.00383789
0.00385054
0.00386179
0.00387164
0.00388013
0.00388731
0.00389324
0.00389797
0.00390148
0.00390383
0.00390415
0.00390254
0.00648013
0.0060033
0.00563613
0.00534299
0.0051033
0.00490373
0.00473513
0.00459092
0.00446625
0.00435746
0.00426174
0.00417688
0.00410115
0.00403311
0.00397164
0.00391579
0.00386477
0.00381797
0.00377484
0.00373495
0.00369794
0.00366351
0.00363144
0.00360152
0.00357359
0.00354752
0.0035232
0.00350053
0.0034794
0.00345971
0.00344135
0.00342423
0.00340825
0.00339341
0.00337977
0.00336804
0.00335931
0.00336006
0.0034264
0.00360401
0.00386112
0.00411816
0.00432347
0.00447229
0.00456941
0.00462421
0.00464592
0.00463888
0.00460946
0.00456888
0.00452023
0.00446672
0.00441135
0.00435673
0.00430491
0.00425742
0.00421529
0.00417912
0.00414907
0.00412538
0.00410781
0.00409617
0.00409058
0.00408938
0.00409141
0.0040954
0.00410065
0.00410664
0.00411293
0.00411916
0.00412497
0.00413021
0.00413475
0.00413848
0.00414131
0.0041432
0.0041441
0.00414402
0.00414297
0.00414098
0.0041381
0.0041344
0.00412995
0.00412484
0.00411913
0.00411292
0.0041062
0.00409907
0.0040907
0.00408154
0.00648015
0.00600333
0.00563614
0.00534298
0.00510324
0.00490362
0.00473494
0.00459064
0.00446584
0.0043569
0.00426099
0.00417591
0.0040999
0.00403155
0.00396972
0.00391345
0.00386199
0.00381468
0.003771
0.00373051
0.00369286
0.00365776
0.00362498
0.00359434
0.00356569
0.00353891
0.0035139
0.00349054
0.00346874
0.00344838
0.00342932
0.00341143
0.00339456
0.00337858
0.00336324
0.00334918
0.00333692
0.00334525
0.00367859
0.00436075
0.00506042
0.00555895
0.00583032
0.00593638
0.00593024
0.00585553
0.00574309
0.00561301
0.00547782
0.00534309
0.00521659
0.00510189
0.00500053
0.00491303
0.00483964
0.00478022
0.00473412
0.00469758
0.00466815
0.00464416
0.00462436
0.00460777
0.00459355
0.00458102
0.00456903
0.00455714
0.00454549
0.00453434
0.00452336
0.0045123
0.00450091
0.00448899
0.00447657
0.00446369
0.00445035
0.00443656
0.00442236
0.0044078
0.00439293
0.0043778
0.00436249
0.00434707
0.00433162
0.0043162
0.00430088
0.00428575
0.00427076
0.00425605
0.00424075
0.00422558
0.00648018
0.00600336
0.00563616
0.00534296
0.00510318
0.00490349
0.00473473
0.00459032
0.0044654
0.0043563
0.00426019
0.00417487
0.00409858
0.00402991
0.00396769
0.00391099
0.00385903
0.00381116
0.00376685
0.00372567
0.00368727
0.00365136
0.00361774
0.00358622
0.0035567
0.00352905
0.0035032
0.00347904
0.00345645
0.00343531
0.00341547
0.00339678
0.00337902
0.00336191
0.00334469
0.00332743
0.00330788
0.0033498
0.00458758
0.00601559
0.00693153
0.00732304
0.00733071
0.00712857
0.00683653
0.00652565
0.00623374
0.00597769
0.00576244
0.00558764
0.00544958
0.00534484
0.00527126
0.00522167
0.00518541
0.00515635
0.00513103
0.00510751
0.00508474
0.00506217
0.00503952
0.00501663
0.00499342
0.00496986
0.00494592
0.00492163
0.00489686
0.00487136
0.00484539
0.0048191
0.00479261
0.00476622
0.00473985
0.00471345
0.00468705
0.00466076
0.00463464
0.00460875
0.00458318
0.00455797
0.00453319
0.00450891
0.00448519
0.00446207
0.00443962
0.00441787
0.0043968
0.00437651
0.00435613
0.00433657
0.00648021
0.00600338
0.00563616
0.00534293
0.0051031
0.00490334
0.00473449
0.00458997
0.0044649
0.00435563
0.00425931
0.00417374
0.00409715
0.00402812
0.00396549
0.00390831
0.0038558
0.0038073
0.00376227
0.0037203
0.00368101
0.00364415
0.00360951
0.00357694
0.00354635
0.00351767
0.00349083
0.00346574
0.00344227
0.00342029
0.0033997
0.00338046
0.00336248
0.00334579
0.00332974
0.00331448
0.00329652
0.00334212
0.00467728
0.00619102
0.00714944
0.00751336
0.00750328
0.00727917
0.00695956
0.00662048
0.00630474
0.00603258
0.00581115
0.00564084
0.00552289
0.00545491
0.0054186
0.00540049
0.00539108
0.00538424
0.00537633
0.0053655
0.00535101
0.0053328
0.00531111
0.00528636
0.00525902
0.00522952