/*--------------------------------*- C++ -*----------------------------------*\
| =========                 |                                                 |
| \\      /  F ield         | OpenFOAM: The Open Source CFD Toolbox           |
|  \\    /   O peration     | Version:  v2012                                 |
|   \\  /    A nd           | Website:  www.openfoam.com                      |
|    \\/     M anipulation  |                                                 |
\*---------------------------------------------------------------------------*/
FoamFile
{
    version     2.0;
    format      ascii;
    class       volScalarField;
    location    "150/air";
    object      epsilon;
}
// * * * * * * * * * * * * * * * * * * * * * * * * * * * * * * * * * * * * * //

dimensions      [0 2 -3 0 0 0 0];


internalField   nonuniform List<scalar> 
287104
(
0.0965116
0.0769173
0.063795
0.0544709
0.0475676
0.0422939
0.0381621
0.0348565
0.032165
0.0299401
0.0280769
0.0264986
0.025148
0.0239818
0.0229665
0.022076
0.0212896
0.0205909
0.0199664
0.0194052
0.0188983
0.0184382
0.0180188
0.0176346
0.0172811
0.0169546
0.0166515
0.0163691
0.0161046
0.0158558
0.0156204
0.0153965
0.0151824
0.0149762
0.0147765
0.0145818
0.0143909
0.0142025
0.0140158
0.01383
0.0136446
0.0134592
0.013274
0.013089
0.0129048
0.012722
0.0125415
0.0123644
0.012192
0.0120254
0.0118661
0.0117153
0.0115742
0.011444
0.0113256
0.0112197
0.0111268
0.0110473
0.010981
0.0109278
0.0108871
0.0108582
0.0108402
0.0108321
0.0108328
0.0108409
0.0108554
0.010875
0.0108986
0.0109251
0.0109538
0.0109837
0.0110142
0.0110447
0.011075
0.0111048
0.0111338
0.011162
0.0111896
0.0112167
0.0112434
0.01127
0.0112964
0.0113227
0.0113485
0.0113728
0.0113936
0.011406
0.0114081
0.0113249
0.0965059
0.076907
0.0637817
0.0544556
0.0475511
0.0422767
0.0381444
0.0348385
0.0321468
0.029922
0.0280589
0.0264808
0.0251306
0.0239648
0.0229501
0.0220601
0.0212744
0.0205763
0.0199524
0.0193918
0.0188856
0.0184261
0.0180073
0.0176237
0.0172708
0.0169449
0.0166425
0.0163606
0.0160968
0.0158485
0.0156137
0.0153904
0.0151768
0.0149711
0.0147719
0.0145777
0.0143872
0.0141994
0.0140132
0.0138279
0.0136432
0.0134587
0.0132744
0.0130905
0.0129077
0.0127265
0.0125478
0.0123729
0.0122027
0.0120386
0.011882
0.0117339
0.0115957
0.0114683
0.0113527
0.0112495
0.0111591
0.0110816
0.0110171
0.0109652
0.0109254
0.0108968
0.0108786
0.0108697
0.0108689
0.0108752
0.0108873
0.0109041
0.0109245
0.0109475
0.0109723
0.0109982
0.0110246
0.011051
0.011077
0.0111024
0.0111271
0.0111511
0.0111745
0.0111973
0.0112198
0.0112422
0.0112646
0.0112869
0.0113086
0.0113289
0.011346
0.0113547
0.0113535
0.0112687
0.0965035
0.0769026
0.0637759
0.0544487
0.0475435
0.0422684
0.0381355
0.0348292
0.0321372
0.0299122
0.028049
0.026471
0.025121
0.0239555
0.022941
0.0220515
0.0212661
0.0205685
0.019945
0.0193849
0.0188791
0.0184202
0.0180018
0.0176188
0.0172665
0.0169411
0.0166393
0.0163582
0.016095
0.0158475
0.0156134
0.0153909
0.0151782
0.0149734
0.0147752
0.0145819
0.0143924
0.0142056
0.0140205
0.0138364
0.0136529
0.0134697
0.0132868
0.0131044
0.0129232
0.0127437
0.012567
0.0123941
0.0122261
0.0120645
0.0119104
0.0117651
0.0116297
0.0115054
0.011393
0.0112932
0.0112062
0.0111324
0.0110715
0.0110233
0.0109872
0.0109623
0.0109477
0.0109423
0.0109448
0.0109542
0.0109692
0.0109886
0.0110114
0.0110367
0.0110636
0.0110915
0.0111199
0.0111482
0.0111763
0.0112038
0.0112308
0.0112573
0.0112832
0.0113088
0.0113344
0.0113599
0.0113857
0.0114116
0.0114373
0.0114618
0.0114835
0.0114975
0.0115019
0.0114269
0.0965011
0.0768978
0.0637691
0.0544404
0.0475338
0.0422575
0.0381236
0.0348164
0.0321237
0.0298981
0.0280347
0.0264566
0.0251067
0.0239415
0.0229274
0.0220382
0.0212533
0.020556
0.0199329
0.0193732
0.0188677
0.0184091
0.0179911
0.0176084
0.0172565
0.0169315
0.0166302
0.0163496
0.016087
0.0158401
0.0156069
0.0153852
0.0151733
0.0149696
0.0147723
0.0145802
0.0143918
0.0142062
0.0140223
0.0138394
0.0136571
0.0134751
0.0132934
0.0131123
0.0129322
0.0127539
0.0125783
0.0124065
0.0122397
0.0120792
0.0119262
0.011782
0.0116479
0.0115249
0.0114139
0.0113155
0.0112302
0.0111582
0.0110993
0.0110534
0.0110197
0.0109975
0.0109857
0.0109831
0.0109884
0.0110004
0.0110178
0.0110394
0.0110645
0.0110921
0.0111215
0.0111522
0.0111835
0.0112152
0.0112469
0.0112785
0.0113099
0.0113411
0.0113721
0.011403
0.0114342
0.0114657
0.0114976
0.01153
0.0115626
0.0115943
0.0116237
0.0116462
0.0116598
0.011599
0.096499
0.0768936
0.0637633
0.0544333
0.0475255
0.0422481
0.0381131
0.034805
0.0321114
0.0298851
0.0280212
0.026443
0.0250932
0.0239283
0.0229145
0.0220258
0.0212413
0.0205445
0.0199218
0.0193625
0.0188574
0.0183991
0.0179815
0.0175991
0.0172476
0.0169231
0.0166223
0.0163422
0.0160803
0.0158342
0.0156018
0.015381
0.0151701
0.0149675
0.0147714
0.0145805
0.0143934
0.0142091
0.0140266
0.0138452
0.0136643
0.0134837
0.0133034
0.0131236
0.0129449
0.012768
0.0125937
0.0124231
0.0122576
0.0120983
0.0119466
0.0118039
0.0116712
0.0115499
0.0114407
0.0113444
0.0112616
0.0111926
0.0111372
0.011095
0.011065
0.0110463
0.0110377
0.0110377
0.0110451
0.0110586
0.0110771
0.0110997
0.0111254
0.0111534
0.0111832
0.0112143
0.0112463
0.0112789
0.0113118
0.011345
0.0113784
0.0114119
0.0114457
0.0114797
0.0115141
0.0115489
0.0115842
0.0116199
0.0116556
0.0116905
0.0117226
0.0117481
0.0117656
0.0117137
0.0964969
0.0768892
0.0637572
0.0544255
0.0475161
0.0422372
0.0381009
0.0347915
0.0320968
0.0298697
0.0280055
0.0264275
0.0250782
0.0239139
0.0229009
0.0220128
0.0212289
0.0205324
0.0199101
0.019351
0.0188461
0.0183881
0.0179706
0.0175884
0.0172372
0.016913
0.0166126
0.0163331
0.0160719
0.0158266
0.0155952
0.0153755
0.0151659
0.0149646
0.0147701
0.0145809
0.0143956
0.0142131
0.0140325
0.0138531
0.0136742
0.0134956
0.0133173
0.0131395
0.0129627
0.0127875
0.012615
0.0124462
0.0122823
0.0121247
0.0119748
0.0118337
0.011703
0.0115836
0.0114767
0.0113831
0.0113034
0.0112374
0.0111849
0.0111452
0.0111173
0.0111002
0.0110925
0.011093
0.0111006
0.0111141
0.0111324
0.0111546
0.0111799
0.0112076
0.0112372
0.0112681
0.0112999
0.0113325
0.0113656
0.011399
0.0114327
0.0114667
0.0115008
0.0115352
0.0115698
0.0116048
0.0116402
0.0116761
0.0117122
0.0117477
0.011781
0.011808
0.0118271
0.0117818
0.0964948
0.0768851
0.0637511
0.0544177
0.0475067
0.042226
0.0380878
0.0347763
0.0320795
0.0298505
0.027985
0.0264066
0.0250575
0.0238937
0.0228814
0.0219942
0.021211
0.0205152
0.0198934
0.0193347
0.0188302
0.0183724
0.0179552
0.0175734
0.0172226
0.0168989
0.0165992
0.0163204
0.0160602
0.0158161
0.0155861
0.0153681
0.0151604
0.0149612
0.0147689
0.0145821
0.0143996
0.01422
0.0140424
0.013866
0.0136904
0.013515
0.01334
0.0131655
0.0129919
0.01282
0.0126507
0.012485
0.0123243
0.0121699
0.0120232
0.0118857
0.011759
0.0116437
0.0115409
0.0114513
0.0113749
0.0113117
0.0112611
0.0112223
0.0111945
0.0111766
0.0111677
0.0111665
0.0111721
0.0111835
0.0111996
0.0112197
0.011243
0.0112689
0.0112967
0.0113261
0.0113567
0.0113882
0.0114204
0.0114531
0.0114864
0.01152
0.011554
0.0115881
0.0116224
0.0116568
0.0116916
0.0117269
0.0117625
0.0117977
0.0118311
0.011859
0.0118786
0.0118385
0.0964928
0.0768808
0.0637449
0.0544096
0.0474967
0.042214
0.0380736
0.0347598
0.0320607
0.0298299
0.0279641
0.0263868
0.0250393
0.0238771
0.0228661
0.0219795
0.0211965
0.0205004
0.019878
0.0193184
0.0188127
0.0183536
0.0179352
0.0175522
0.0172004
0.016876
0.0165758
0.0162971
0.0160373
0.0157941
0.0155654
0.0153493
0.0151438
0.0149473
0.0147581
0.0145748
0.014396
0.0142205
0.0140473
0.0138756
0.0137048
0.0135345
0.0133647
0.0131953
0.0130266
0.0128594
0.0126949
0.0125344
0.0123791
0.0122304
0.0120898
0.0119583
0.0118372
0.0117272
0.0116289
0.0115427
0.0114687
0.0114066
0.0113562
0.0113168
0.0112877
0.011268
0.0112568
0.0112532
0.0112562
0.0112649
0.0112785
0.011296
0.0113168
0.0113403
0.0113658
0.0113931
0.0114217
0.0114515
0.0114823
0.0115138
0.011546
0.0115787
0.0116118
0.0116449
0.0116777
0.0117103
0.0117433
0.011777
0.0118113
0.0118458
0.011879
0.011908
0.0119291
0.0118944
0.0964907
0.0768765
0.0637386
0.0544011
0.0474857
0.0422001
0.0380558
0.0347371
0.032031
0.0297921
0.0279311
0.0263717
0.0250468
0.0239048
0.0229078
0.0220277
0.0212439
0.0205409
0.0199069
0.0193326
0.0188107
0.0183349
0.0179003
0.0175022
0.017137
0.0168012
0.0164918
0.016206
0.0159411
0.0156948
0.0154647
0.0152486
0.0150442
0.0148497
0.0146632
0.0144832
0.0143085
0.0141378
0.0139699
0.0138037
0.0136384
0.0134734
0.0133085
0.0131439
0.0129802
0.0128183
0.0126593
0.0125045
0.012355
0.0122123
0.0120774
0.0119516
0.0118359
0.011731
0.0116377
0.0115562
0.0114867
0.011429
0.0113828
0.0113474
0.0113223
0.0113064
0.011299
0.011299
0.0113055
0.0113177
0.0113345
0.0113553
0.0113792
0.0114057
0.0114343
0.0114645
0.0114959
0.0115283
0.0115615
0.0115955
0.0116303
0.0116657
0.0117017
0.0117376
0.0117721
0.0118052
0.0118379
0.011871
0.0119045
0.0119381
0.0119709
0.0120004
0.0120251
0.012004
0.0964887
0.0768723
0.0637323
0.0543927
0.0474748
0.0421863
0.0380385
0.0347153
0.0320029
0.0297602
0.0290617
0.0286953
0.0281768
0.027426
0.026494
0.0254606
0.0243953
0.0233481
0.0223509
0.021422
0.0205703
0.0197984
0.0191049
0.0184858
0.0179356
0.017448
0.0170162
0.0166331
0.0162917
0.0159846
0.0157042
0.0154432
0.0151943
0.0149507
0.0147055
0.014481
0.0142794
0.0140932
0.0139166
0.0137458
0.0135784
0.0134126
0.0132476
0.0130857
0.0129284
0.0127763
0.0126302
0.0124905
0.0123581
0.0122337
0.0121182
0.0120123
0.0119168
0.0118321
0.0117586
0.0116967
0.0116462
0.0116069
0.0115783
0.0115599
0.0115509
0.0115504
0.0115577
0.0115716
0.0115914
0.0116162
0.0116452
0.0116776
0.0117128
0.0117504
0.0117898
0.0118307
0.011873
0.0119165
0.011961
0.0120066
0.0120533
0.0121012
0.0121505
0.0122004
0.0122105
0.0122115
0.0122148
0.0122233
0.0122365
0.0122526
0.0122686
0.0122794
0.0122745
0.0122043
0.0964867
0.0768681
0.0637258
0.0543836
0.0474626
0.0421695
0.0380139
0.034677
0.0319278
0.0298218
0.16312
0.213781
0.213132
0.194358
0.17227
0.151984
0.134804
0.120716
0.109331
0.100206
0.0929462
0.0872217
0.0827609
0.0793393
0.0767677
0.0748828
0.0735415
0.0726165
0.0719954
0.071579
0.0712821
0.0710328
0.0707739
0.0704637
0.0700738
0.0696045
0.0690936
0.068562
0.068016
0.0674581
0.0668914
0.0663118
0.0657236
0.0651246
0.0645211
0.0639264
0.0633529
0.0628099
0.0623036
0.0618373
0.0614127
0.0610312
0.0606933
0.0603982
0.0601436
0.0599264
0.0597428
0.0595891
0.0594607
0.0593535
0.059263
0.059185
0.0591155
0.0590507
0.0589878
0.058924
0.0588578
0.0587881
0.0587149
0.0586391
0.0585621
0.0584866
0.0584168
0.0583593
0.0583234
0.0583224
0.0583801
0.0585291
0.0589136
0.0592932
0.033835
0.0232577
0.0181768
0.0155186
0.0140458
0.0132008
0.0127048
0.0124048
0.0122107
0.0120024
0.0964848
0.076864
0.0637197
0.0543755
0.047452
0.0421561
0.037997
0.034656
0.031901
0.0297894
0.163113
0.213894
0.213106
0.194023
0.171577
0.150941
0.133439
0.119069
0.107441
0.0981109
0.09068
0.0848166
0.0802484
0.0767505
0.0741331
0.0722322
0.0709026
0.0700143
0.0694508
0.0691081
0.0688956
0.0687359
0.0685659
0.0683367
0.0680134
0.0675737
0.0670068
0.0663107
0.0654901
0.0645541
0.0635162
0.0624027
0.0612331
0.0600284
0.0588114
0.0576054
0.0564318
0.0553066
0.0542433
0.0532522
0.0523406
0.0515136
0.0507733
0.0501192
0.0495488
0.0490578
0.0486408
0.0482915
0.0480029
0.047768
0.0475798
0.0474312
0.0473158
0.0472272
0.0471605
0.047111
0.047075
0.0470499
0.047034
0.0470268
0.0470286
0.047041
0.0470675
0.0471141
0.0471874
0.0472945
0.0474507
0.0476718
0.0480623
0.048397
0.0296419
0.0217461
0.0179708
0.0160007
0.0149054
0.0142642
0.0138678
0.0136022
0.013398
0.0131456
0.0964829
0.07686
0.0637137
0.0543674
0.0474417
0.0421429
0.0379801
0.034634
0.0318721
0.0297518
0.162646
0.213368
0.212701
0.19375
0.171397
0.150809
0.133322
0.118946
0.107302
0.097953
0.0905081
0.0846399
0.0800802
0.0766069
0.0740324
0.0721933
0.0709445
0.0701546
0.0697048
0.0694884
0.0694116
0.0693942
0.0693702
0.0692883
0.0691118
0.0688171
0.0683913
0.0678307
0.0671386
0.066324
0.065399
0.0643801
0.0632863
0.0621371
0.0609538
0.0597565
0.0585662
0.0574046
0.0562901
0.0552379
0.0542599
0.0533655
0.0525606
0.0518484
0.051229
0.0507001
0.0502575
0.0498953
0.0496073
0.0493864
0.0492252
0.049116
0.0490516
0.0490253
0.0490312
0.0490647
0.049125
0.0492091
0.0493143
0.0494392
0.0495835
0.0497486
0.0499368
0.0501506
0.0503954
0.0506805
0.0510232
0.0514431
0.0520528
0.0530091
0.0331985
0.0248485
0.0207591
0.0185302
0.0172091
0.0163672
0.0157863
0.0153444
0.0150086
0.0146687
0.096481
0.0768562
0.0637082
0.0543602
0.0474328
0.0421322
0.0379674
0.0346192
0.031855
0.0297327
0.162491
0.213195
0.212555
0.193625
0.171279
0.150688
0.133192
0.118806
0.107151
0.0977954
0.0903467
0.0844788
0.079924
0.0764606
0.0739014
0.0720836
0.0708621
0.0701057
0.0696952
0.0695238
0.0694976
0.069536
0.0695726
0.0695552
0.0694457
0.0692192
0.0688622
0.0683691
0.067742
0.066988
0.0661178
0.0651465
0.0640921
0.0629754
0.0618201
0.0606511
0.0594913
0.0583625
0.0572849
0.056275
0.0553466
0.0545104
0.0537767
0.0531597
0.0526527
0.0522385
0.0519046
0.051642
0.0514439
0.0513039
0.0512151
0.0511707
0.0511639
0.051189
0.0512414
0.0513172
0.0514119
0.0515254
0.0516574
0.051808
0.0519779
0.0521681
0.0523809
0.0526206
0.052895
0.0532158
0.0536077
0.0541095
0.0548919
0.0561274
0.0351837
0.0263485
0.0219974
0.0196007
0.0181585
0.0172227
0.0165665
0.0160608
0.0155799
0.0151278
0.0964792
0.0768525
0.0637029
0.0543535
0.0474246
0.0421226
0.0379561
0.0346061
0.0318401
0.0297156
0.162298
0.21293
0.21229
0.193384
0.171065
0.150495
0.133015
0.118637
0.106989
0.0976361
0.0901907
0.084327
0.0797782
0.0763236
0.0737766
0.0719747
0.0707731
0.0700403
0.0696572
0.0695169
0.0695254
0.0696026
0.0696823
0.0697123
0.0696541
0.0694818
0.0691799
0.0687408
0.0681636
0.0674526
0.0666157
0.0656655
0.0646192
0.0634977
0.0623258
0.0611305
0.0599374
0.0587718
0.0576566
0.0566115
0.0556533
0.054797
0.054064
0.0534601
0.0529663
0.0525665
0.0522486
0.0520044
0.0518259
0.051705
0.0516338
0.0516048
0.0516114
0.0516478
0.0517097
0.0517935
0.0518966
0.0520169
0.052154
0.0523078
0.052479
0.0526695
0.0528822
0.0531221
0.0533974
0.0537203
0.0541158
0.0546231
0.0554133
0.0566545
0.0354835
0.0265505
0.022148
0.0197204
0.0182577
0.0173077
0.0166417
0.0161305
0.0156499
0.0151982
0.0964774
0.0768489
0.063698
0.0543474
0.0474175
0.0421146
0.0379472
0.0345964
0.0318294
0.029704
0.162166
0.212728
0.21206
0.193147
0.170829
0.150264
0.13279
0.11842
0.106779
0.097436
0.0900003
0.0841474
0.0796108
0.0761701
0.0736387
0.0718545
0.0706726
0.0699615
0.0696019
0.069487
0.0695233
0.0696312
0.0697454
0.0698145
0.0698001
0.0696756
0.0694237
0.0690337
0.0685013
0.0678265
0.0670131
0.0660701
0.0650135
0.0638646
0.0626515
0.0614052
0.0601558
0.0589324
0.0577601
0.0566604
0.0556513
0.0547474
0.0539619
0.053313
0.0527939
0.0523826
0.0520614
0.0518189
0.0516458
0.0515329
0.0514715
0.0514534
0.0514714
0.0515195
0.0515927
0.0516876
0.0518013
0.0519323
0.0520801
0.0522442
0.0524251
0.0526246
0.0528458
0.053094
0.0533776
0.0537087
0.0541128
0.0546293
0.055429
0.0566815
0.035506
0.0265678
0.0221608
0.0197298
0.0182648
0.0173136
0.0166477
0.0161384
0.0156626
0.0152199
0.0964757
0.0768456
0.0636934
0.054342
0.0474115
0.0421082
0.0379407
0.0345899
0.0318232
0.0296979
0.162101
0.2126
0.211879
0.192927
0.170583
0.150002
0.132522
0.118153
0.10652
0.0971875
0.0897667
0.0839317
0.0794154
0.0759971
0.0734897
0.0717305
0.0705738
0.0698879
0.069553
0.0694624
0.069523
0.0696569
0.0698005
0.0699046
0.0699321
0.0698567
0.0696594
0.0693259
0.0688459
0.068213
0.0674235
0.0664809
0.0653985
0.0641985
0.0629132
0.061579
0.0602331
0.0589085
0.0576345
0.0564377
0.0553395
0.0543556
0.0534957
0.052765
0.052164
0.0516903
0.0513406
0.051101
0.050948
0.0508646
0.0508384
0.0508593
0.050918
0.0510072
0.0511211
0.0512553
0.0514069
0.0515737
0.0517547
0.0519499
0.0521594
0.0523851
0.05263
0.0528993
0.0532015
0.0535487
0.0539664
0.0544949
0.0553073
0.0565775
0.0354598
0.0265422
0.0221428
0.0197139
0.0182489
0.017297
0.0166308
0.0161221
0.0156496
0.0152181
0.0964741
0.0768423
0.0636892
0.0543371
0.0474062
0.0421028
0.0379355
0.034585
0.0318187
0.0296932
0.161982
0.212351
0.211546
0.192561
0.170217
0.149656
0.132205
0.117869
0.10627
0.0969739
0.0895902
0.0837949
0.0793218
0.0759502
0.0734929
0.0717856
0.0706813
0.0700465
0.0697604
0.0697163
0.0698227
0.0700043
0.0702012
0.0703675
0.0704688
0.0704784
0.0703738
0.0701324
0.0697321
0.0691516
0.0683732
0.0673915
0.0662185
0.0648841
0.0634348
0.0619238
0.060408
0.0589268
0.0575056
0.0561695
0.054942
0.05384
0.052874
0.0520483
0.0513624
0.0508113
0.050387
0.0500786
0.049874
0.0497607
0.0497261
0.0497579
0.0498438
0.0499721
0.0501332
0.050319
0.0505232
0.0507417
0.0509699
0.0512073
0.0514547
0.0517134
0.0519858
0.0522761
0.0525917
0.0529433
0.0533525
0.0538601
0.0546659
0.0559487
0.0350981
0.0262765
0.021914
0.0194986
0.0180375
0.0170858
0.016419
0.015911
0.0154474
0.0150574
0.0964724
0.0768393
0.0636853
0.0543329
0.0474024
0.0420999
0.0379345
0.0345872
0.0318262
0.0297076
0.162195
0.212493
0.211519
0.192389
0.169956
0.149365
0.13194
0.117682
0.10621
0.0970874
0.0899226
0.0843862
0.0802048
0.0771479
0.0750162
0.0736341
0.0728444
0.0725073
0.0724998
0.0727171
0.0730728
0.0734984
0.0739408
0.0743591
0.0747196
0.0749906
0.0751359
0.0751099
0.0748579
0.0743194
0.0734413
0.0721981
0.0706065
0.0687258
0.0666494
0.0644861
0.0623329
0.0603098
0.0584372
0.0567312
0.0552017
0.0538507
0.0526744
0.051666
0.0508164
0.0501154
0.0495519
0.0491145
0.0487913
0.0485703
0.0484396
0.0483868
0.0483998
0.0484689
0.0485878
0.0487524
0.0489556
0.0491914
0.0494576
0.0497509
0.0500666
0.0504026
0.0507591
0.0511389
0.0515469
0.0519903
0.0524864
0.0530601
0.0538287
0.0549749
0.0342302
0.0254181
0.0210521
0.0186356
0.0171792
0.0162385
0.0155891
0.0151076
0.014738
0.0144081
0.0964708
0.0768362
0.0636814
0.0543288
0.0473985
0.0420968
0.0379329
0.0345879
0.0318306
0.0297143
0.161855
0.211855
0.210979
0.192166
0.170186
0.150266
0.133749
0.120615
0.110443
0.102742
0.0970614
0.093013
0.0902685
0.0885522
0.0876329
0.0873175
0.0874467
0.0878907
0.0885467
0.0893352
0.0901969
0.0910886
0.0919788
0.0928427
0.0936553
0.0943845
0.0949808
0.095367
0.0954318
0.0950282
0.0939947
0.0922016
0.0895912
0.0861994
0.082157
0.0776723
0.0729788
0.0684087
0.0643058
0.0608464
0.0580379
0.0558175
0.0540987
0.0527912
0.0518105
0.0510839
0.0505516
0.0501676
0.0498979
0.049719
0.0496174
0.0495762
0.0496107
0.0497704
0.0500559
0.0504483
0.0509267
0.0514722
0.0520655
0.0526895
0.0533387
0.0540131
0.0547145
0.0554458
0.056212
0.0570207
0.0578908
0.0588554
0.0600519
0.0615951
0.0360181
0.0254174
0.0202853
0.0175207
0.0159152
0.0149303
0.0142964
0.0138661
0.0135409
0.01328
0.0964692
0.0768333
0.063678
0.0543255
0.0473963
0.0420972
0.0379393
0.0346062
0.0318843
0.0296305
0.028153
0.0269258
0.0257061
0.0245164
0.0234435
0.0224736
0.0215974
0.0208072
0.0200954
0.0194552
0.0188796
0.0183626
0.0178982
0.0174812
0.0171069
0.0167708
0.016469
0.0161977
0.0159536
0.0157338
0.0155357
0.0153572
0.0151967
0.015053
0.0149251
0.0148128
0.0147154
0.0146318
0.0145599
0.0144956
0.0144324
0.0143628
0.014279
0.0141752
0.0140477
0.0138954
0.0137191
0.0135858
0.013513
0.013454
0.0133807
0.0132795
0.0131464
0.0129837
0.0127979
0.0125986
0.0123941
0.0121908
0.0119929
0.0118028
0.0116208
0.011449
0.0113357
0.0112656
0.0112279
0.0112146
0.0112195
0.0112385
0.0112693
0.0113111
0.0113616
0.0114179
0.0114781
0.0115409
0.0116054
0.0116713
0.0117386
0.0118077
0.0118794
0.0119549
0.0119911
0.0120177
0.0120475
0.012084
0.0121269
0.0121752
0.0122257
0.0122747
0.0123056
0.0123024
0.0964677
0.0768304
0.0636742
0.0543215
0.0473924
0.042094
0.0379375
0.0346066
0.0318882
0.0296366
0.0277526
0.0261608
0.0248001
0.0236246
0.0225998
0.0216991
0.020902
0.020192
0.0195563
0.0189844
0.0184675
0.0179987
0.0175722
0.0171833
0.016828
0.0165033
0.0162064
0.0159348
0.0156863
0.0154592
0.0152518
0.0150631
0.0148923
0.0147391
0.0146037
0.0144869
0.0143897
0.0143124
0.014254
0.0142098
0.0141713
0.0141284
0.0140709
0.0139918
0.0138874
0.0137573
0.0136043
0.0134317
0.0132434
0.0130424
0.0128337
0.0126214
0.0124091
0.0122001
0.0119977
0.011805
0.011625
0.0114605
0.0113135
0.0111854
0.0110767
0.0109877
0.0109179
0.0108664
0.0108311
0.0108103
0.0108016
0.0108029
0.0108127
0.0108299
0.0108542
0.0108855
0.0109233
0.0109672
0.0110169
0.0110722
0.0111331
0.0111996
0.0112717
0.0113493
0.0114308
0.0115155
0.0116043
0.0116981
0.0117969
0.0119001
0.0120059
0.0121115
0.0122055
0.0122698
0.0964662
0.0768275
0.0636705
0.0543175
0.0473886
0.0420911
0.0379363
0.0346082
0.0318946
0.029649
0.0277679
0.0261746
0.0248105
0.0236311
0.0226022
0.0216977
0.0208968
0.0201832
0.019544
0.0189684
0.0184477
0.0179748
0.0175438
0.0171501
0.0167897
0.0164596
0.016157
0.0158798
0.0156256
0.0153929
0.0151803
0.0149867
0.0148117
0.0146557
0.0145196
0.0144057
0.0143169
0.0142559
0.0142242
0.0142161
0.0142192
0.0142177
0.0141957
0.0141425
0.0140528
0.0139267
0.0137681
0.0135813
0.0133719
0.0131461
0.0129103
0.0126705
0.0124322
0.0122001
0.0119785
0.011771
0.0115803
0.0114086
0.0112577
0.0111286
0.0110212
0.010935
0.0108687
0.0108209
0.0107896
0.0107732
0.0107699
0.0107781
0.0107962
0.0108229
0.010858
0.0109011
0.010952
0.0110111
0.0110786
0.0111551
0.0112414
0.0113379
0.0114451
0.0115632
0.0116919
0.0118308
0.0119796
0.0121377
0.0123039
0.0124764
0.0126519
0.0128269
0.0129924
0.0131289
0.0964647
0.0768245
0.0636666
0.0543128
0.0473835
0.0420857
0.0379308
0.0346026
0.0318887
0.0296422
0.0277585
0.0261611
0.0247923
0.0236082
0.0225748
0.021666
0.020861
0.0201434
0.0195002
0.0189207
0.0183962
0.0179194
0.0174846
0.0170869
0.0167225
0.0163883
0.0160818
0.0158006
0.0155427
0.0153063
0.0150901
0.014893
0.014715
0.0145566
0.01442
0.014309
0.0142294
0.0141883
0.0141934
0.0142404
0.0143112
0.0143797
0.0144187
0.0144103
0.0143472
0.0142302
0.0140695
0.0138718
0.013645
0.013397
0.0131358
0.0128687
0.0126027
0.012344
0.0120978
0.0118685
0.0116597
0.011474
0.0113131
0.0111777
0.0110681
0.0109835
0.0109228
0.0108847
0.0108674
0.0108693
0.0108888
0.0109243
0.0109778
0.0110524
0.0111461
0.0112579
0.0113881
0.0115365
0.011703
0.0118874
0.012089
0.0123069
0.0125399
0.0127862
0.013045
0.013312
0.0135836
0.0138564
0.0141272
0.0143927
0.0146487
0.0148914
0.0151048
0.0152822
0.0964632
0.0768216
0.0636625
0.0543079
0.047378
0.0420796
0.0379243
0.0345958
0.0318815
0.0296343
0.0277491
0.0261492
0.024777
0.0235888
0.0225509
0.0216372
0.020827
0.020104
0.0194553
0.0188701
0.01834
0.0178577
0.0174174
0.0170143
0.0166446
0.0163052
0.0159937
0.0157076
0.015445
0.015204
0.0149831
0.0147812
0.0145981
0.0144346
0.0142933
0.0141804
0.0141049
0.0140824
0.0141413
0.0142935
0.0145184
0.0147635
0.0149652
0.0150847
0.0151061
0.0150295
0.014882
0.0146875
0.0144575
0.0142031
0.013935
0.0136629
0.0133956
0.0131406
0.0129046
0.0126929
0.0125098
0.0123583
0.0122403
0.0121564
0.0121066
0.0120902
0.0121057
0.0121516
0.0122261
0.0123278
0.0124703
0.0126516
0.0128637
0.0130986
0.0133546
0.0136306
0.0139239
0.0142321
0.0145551
0.0148897
0.0152294
0.0155684
0.0159022
0.0162268
0.016539
0.0168365
0.0171175
0.0173806
0.0176247
0.0178491
0.0180517
0.0182316
0.0183741
0.0184743
0.0964617
0.0768185
0.0636582
0.0543025
0.0473715
0.0420721
0.0379155
0.0345857
0.0318698
0.0296204
0.0277323
0.0261288
0.0247524
0.0235596
0.0225169
0.021598
0.0207824
0.0200539
0.0193994
0.0188084
0.0182723
0.017784
0.0173377
0.0169287
0.0165532
0.0162082
0.015891
0.0155995
0.0153316
0.0150852
0.0148587
0.0146507
0.0144605
0.0142888
0.014138
0.0140165
0.0139367
0.0139315
0.0141268
0.0146446
0.0154768
0.0164415
0.0173211
0.0180165
0.0184896
0.0187463
0.0187884
0.0187429
0.0186541
0.0185271
0.0183674
0.018182
0.0179792
0.017769
0.0175618
0.0173678
0.017196
0.0170539
0.0169469
0.0168786
0.016851
0.0168646
0.0169188
0.0170122
0.0171574
0.0173558
0.0175838
0.0178372
0.018119
0.0184181
0.0187264
0.0190355
0.0193391
0.0196326
0.0199125
0.0201761
0.0204215
0.0206471
0.0208521
0.0210359
0.0211983
0.0213396
0.0214604
0.0215617
0.0216443
0.0217092
0.021756
0.0217858
0.0217847
0.0217561
0.0964602
0.0768153
0.0636537
0.0542967
0.0473644
0.0420637
0.0379058
0.0345743
0.0318566
0.0296049
0.0277141
0.0261073
0.024727
0.0235298
0.0224822
0.0215579
0.0207366
0.0200018
0.0193406
0.0187425
0.0181992
0.0177035
0.0172499
0.0168336
0.0164509
0.0160989
0.015775
0.0154768
0.0152024
0.0149495
0.0147161
0.0145002
0.0143003
0.014116
0.0139479
0.013805
0.0137007
0.013712
0.0145414
0.0169259
0.0208174
0.0252493
0.0291926
0.0322793
0.0343933
0.0356168
0.0361002
0.0359036
0.0352374
0.0343336
0.0332749
0.0321422
0.031005
0.0299176
0.028918
0.0280301
0.0272661
0.02663
0.0261199
0.0257319
0.0254552
0.0252981
0.0252341
0.0252369
0.0252841
0.0253602
0.0254539
0.0255563
0.0256606
0.0257605
0.0258503
0.0259277
0.0259906
0.0260372
0.0260664
0.0260774
0.0260702
0.0260449
0.0260022
0.0259433
0.0258694
0.0257823
0.0256838
0.0255755
0.0254592
0.0253365
0.025207
0.0250728
0.0249194
0.0247566
0.0964586
0.0768121
0.0636489
0.0542905
0.0473568
0.0420546
0.0378949
0.0345615
0.0318414
0.029587
0.027693
0.0260824
0.0246979
0.0234958
0.0224429
0.0215128
0.0206851
0.0199434
0.0192749
0.018669
0.0181174
0.0176133
0.0171511
0.0167263
0.0163354
0.0159752
0.0156434
0.0153378
0.0150561
0.014796
0.0145551
0.0143312
0.0141217
0.0139248
0.0137376
0.0135681
0.0134228
0.0135209
0.0179895
0.0299916
0.0468522
0.0620525
0.0714979
0.0753957
0.0751182
0.0723067
0.0682406
0.0637351
0.0592614
0.0550438
0.0512995
0.0480691
0.0453451
0.0430997
0.0412873
0.0398964
0.0388298
0.0379916
0.03732
0.0367732
0.0363199
0.0359359
0.0356018
0.0353021
0.0350128
0.0347232
0.0344348
0.0341573
0.0338837
0.0336088
0.0333276
0.0330365
0.0327365
0.0324287
0.0321136
0.0317922
0.0314655
0.0311348
0.0308018
0.0304679
0.0301348
0.0298045
0.0294785
0.0291584
0.0288455
0.0285409
0.0282438
0.027956
0.0276616
0.0273757
0.0964572
0.076809
0.0636444
0.0542845
0.0473492
0.0420453
0.0378838
0.0345482
0.0318257
0.0295685
0.0276712
0.0260567
0.0246678
0.0234609
0.0224023
0.021466
0.0206314
0.0198821
0.0192051
0.0185901
0.0180288
0.0175146
0.017042
0.0166069
0.0162058
0.0158358
0.0154948
0.0151804
0.0148902
0.0146219
0.014373
0.0141409
0.0139223
0.0137136
0.0135057
0.0133002
0.0130692
0.013562
0.0348681
0.0784835
0.119857
0.141189
0.141537
0.130125
0.114822
0.099961
0.0872774
0.0771234
0.0692593
0.0633206
0.0589038
0.0557366
0.0536568
0.0522609
0.0512306
0.0503921
0.0496504
0.0489548
0.0482785
0.0476082
0.0469375
0.0462636
0.0455854
0.0449028
0.0442164
0.0435272
0.0428361
0.0421336
0.0414275
0.0407227
0.0400227
0.0393334
0.0386549
0.037986
0.0373274
0.0366812
0.0360487
0.0354313
0.0348304
0.034247
0.0336825
0.0331378
0.032614
0.0321117
0.0316314
0.0311734
0.0307359
0.0303205
0.0299095
0.0295225
0.096456
0.0768064
0.0636403
0.054279
0.0473421
0.0420364
0.0378729
0.034535
0.0318099
0.0295496
0.0276488
0.0260303
0.0246367
0.0234244
0.0223598
0.0214166
0.0205743
0.0198165
0.01913
0.0185045
0.0179319
0.0174057
0.0169207
0.0164731
0.0160597
0.0156783
0.0153266
0.0150023
0.0147031
0.0144265
0.0141702
0.0139333
0.0137142
0.0135128
0.0133213
0.0131418
0.0129318
0.0134651
0.0369069
0.0853626
0.131126
0.151949
0.151293
0.138162
0.120851
0.104204
0.0902154
0.0792816
0.0711387
0.0653707
0.0617078
0.0597068
0.0586767
0.0581629
0.0578701
0.0576171
0.0573036
0.0568828
0.0563411
0.0556836
0.0549242
0.0540803
0.0531696
0.0522085
0.0512116
0.0501914
0.0491585
0.048122
0.0470894
0.0460666
0.0450586
0.0440662
0.0430924
0.0421418
0.0412175
0.0403208
0.0394548
0.0386201
0.0378174
0.0370471
0.03631
0.0356062
0.034936
0.0342994
0.0336959
0.0331253
0.032585
0.0320762
0.0315801
0.0311195
0.0964551
0.0768043
0.063637
0.0542744
0.047336
0.0420286
0.037863
0.0345228
0.031795
0.0295316
0.0276271
0.0260044
0.0246059
0.023388
0.0223169
0.0213664
0.0205156
0.0197482
0.0190508
0.0184132
0.0178272
0.0172866
0.0167864
0.0163234
0.0158951
0.0154997
0.0151356
0.0148003
0.014491
0.0142051
0.0139412
0.0137012
0.0134892
0.0133162
0.0131852
0.013114
0.0130253
0.013547
0.0355274
0.0825312
0.128042
0.149048
0.148687
0.135839
0.118882
0.102686
0.0891603
0.0786019
0.0706842
0.0650481
0.0616248
0.0597985
0.0590446
0.0589502
0.0591856
0.0595053
0.0597453
0.0598129
0.0596683
0.0593074
0.0587471
0.0580143
0.0571399
0.0561538
0.0550838
0.0539542
0.0527856
0.0515955
0.0503979
0.0492045
0.0480245
0.0468651
0.0457321
0.0446299
0.0435616
0.0425295
0.0415337
0.0405757
0.0396568
0.0387775
0.0379384
0.0371401
0.0363825
0.0356651
0.0349872
0.0343482
0.0337452
0.0331793
0.0326307
0.0321255
0.0964545
0.076803
0.0636348
0.0542709
0.0473311
0.042022
0.0378545
0.034512
0.0317814
0.0295149
0.0276067
0.0259796
0.024576
0.0233521
0.0222742
0.0213156
0.0204556
0.0196774
0.0189677
0.0183162
0.0177145
0.0171566
0.0166382
0.0161565
0.01571
0.015298
0.0149199
0.0145729
0.0142532
0.0139576
0.013686
0.0134467
0.0132561
0.0131534
0.0131793
0.013407
0.0136242
0.014154
0.0320622
0.0724213
0.113187
0.133164
0.131829
0.119779
0.105044
0.091767
0.0811273
0.0729896
0.0665688
0.0615624
0.0580694
0.0559048
0.0548304
0.0546158
0.0549993
0.0557101
0.0565081
0.0572137
0.0577143
0.0579558
0.057927
0.0576436
0.0571359
0.0564399
0.0555924
0.0546277
0.0535764
0.0524648
0.051315
0.050145
0.0489698
0.0478012
0.0466486
0.0455191
0.0444183
0.0433506
0.0423189
0.0413256
0.0403722
0.0394598
0.0385888
0.0377594
0.0369716
0.0362252
0.0355195
0.0348542
0.0342262
0.033637
0.0330662
0.0325427
0.0964544
0.0768025
0.0636335
0.0542687
0.0473276
0.0420169
0.0378475
0.0345027
0.0317695
0.0294997
0.0275878
0.0259563
0.0245475
0.0233175
0.0222323
0.0212653
0.0203952
0.0196053
0.0188818
0.0182142
0.0175942
0.0170156
0.0164748
0.0159698
0.0155008
0.0150686
0.0146748
0.0143165
0.013988
0.0136857
0.0134123
0.0131889
0.0130604
0.0131355
0.0135728
0.0145891
0.0154455
0.0159292
0.0165771
0.0188719
0.0237556
0.0301706
0.0367735
0.0419115
0.0448916
0.0462599
0.0467991
0.0469521
0.0466714
0.0461255
0.0454425
0.044899
0.0446887
0.0449633
0.0457569
0.0469727
0.0484253
0.0499088
0.0512496
0.0523332
0.0531025
0.0535459
0.0536813
0.0535429
0.0531716
0.0526094
0.0518954
0.051065
0.0501483
0.0491711
0.0481549
0.047117
0.0460717
0.0450303
0.0440015
0.0429925
0.0420088