/*--------------------------------*- C++ -*----------------------------------*\
| =========                 |                                                 |
| \\      /  F ield         | OpenFOAM: The Open Source CFD Toolbox           |
|  \\    /   O peration     | Version:  v2012                                 |
|   \\  /    A nd           | Website:  www.openfoam.com                      |
|    \\/     M anipulation  |                                                 |
\*---------------------------------------------------------------------------*/
FoamFile
{
    version     2.0;
    format      ascii;
    class       volScalarField;
    location    "150/air";
    object      G;
}
// * * * * * * * * * * * * * * * * * * * * * * * * * * * * * * * * * * * * * //

dimensions      [1 0 -3 0 0 0 0];


internalField   nonuniform List<scalar> 
287104
(
2778.89
2810.04
2816.13
2817.72
2816.38
2812.77
2808.09
2803.9
2801.4
2800.94
2802.13
2804.29
2806.85
2809.45
2811.93
2814.26
2816.45
2818.51
2820.47
2822.32
2824.07
2825.74
2827.33
2828.86
2830.31
2831.68
2832.94
2834.1
2835.2
2836.27
2837.38
2838.53
2839.73
2840.95
2842.15
2843.31
2844.44
2845.55
2846.64
2847.71
2848.78
2849.86
2850.94
2852.05
2853.11
2854.11
2855.06
2855.96
2856.81
2857.62
2858.4
2859.18
2859.96
2860.76
2861.56
2862.37
2863.18
2864
2864.85
2865.74
2866.71
2867.79
2869.04
2870.5
2872.21
2874.2
2876.47
2879
2881.7
2884.45
2887.08
2889.42
2891.33
2892.75
2893.73
2894.45
2895.21
2896.43
2898.64
2902.37
2908.09
2915.94
2925.54
2935.97
2945.86
2953.67
2958.35
2961.4
2967.85
2963.41
2787.45
2820.95
2826.67
2827.62
2825.55
2821.18
2815.79
2810.98
2807.98
2807.11
2807.97
2809.84
2812.12
2814.45
2816.66
2818.72
2820.65
2822.45
2824.14
2825.74
2827.25
2828.68
2830.04
2831.32
2832.52
2833.6
2834.55
2835.4
2836.22
2837.09
2838.08
2839.17
2840.3
2841.41
2842.41
2843.31
2844.17
2845.06
2845.94
2846.79
2847.65
2848.5
2849.37
2850.29
2851.16
2851.96
2852.71
2853.4
2854.04
2854.65
2855.23
2855.81
2856.4
2857.01
2857.63
2858.26
2858.91
2859.58
2860.28
2861.04
2861.88
2862.85
2863.99
2865.36
2866.98
2868.9
2871.12
2873.6
2876.26
2878.96
2881.55
2883.84
2885.68
2887.03
2887.94
2888.58
2889.28
2890.47
2892.68
2896.47
2902.31
2910.34
2920.2
2930.95
2941.19
2949.33
2954.25
2957.61
2964.92
2960.69
2775.14
2807.78
2813.1
2813.75
2811.46
2806.89
2801.33
2796.36
2793.2
2792.19
2792.91
2794.65
2796.8
2798.99
2801.09
2803.03
2804.84
2806.54
2808.13
2809.63
2811.04
2812.38
2813.66
2814.86
2815.97
2816.95
2817.78
2818.5
2819.18
2819.92
2820.81
2821.87
2823.01
2824.12
2825.1
2825.92
2826.69
2827.49
2828.29
2829.06
2829.84
2830.6
2831.39
2832.24
2833.05
2833.76
2834.42
2835.03
2835.59
2836.12
2836.63
2837.14
2837.67
2838.2
2838.75
2839.32
2839.9
2840.5
2841.14
2841.83
2842.62
2843.53
2844.62
2845.93
2847.5
2849.37
2851.54
2853.97
2856.57
2859.22
2861.75
2863.98
2865.77
2867.06
2867.93
2868.54
2869.23
2870.41
2872.6
2876.37
2882.16
2890.14
2899.94
2910.6
2920.76
2928.79
2933.59
2936.89
2944.37
2940.64
2762.98
2794.77
2799.84
2800.32
2797.87
2793.18
2787.49
2782.42
2779.16
2778.06
2778.68
2780.34
2782.41
2784.53
2786.55
2788.43
2790.17
2791.8
2793.32
2794.76
2796.13
2797.42
2798.65
2799.81
2800.87
2801.81
2802.6
2803.27
2803.88
2804.52
2805.31
2806.29
2807.41
2808.56
2809.58
2810.41
2811.13
2811.89
2812.64
2813.37
2814.1
2814.82
2815.55
2816.37
2817.14
2817.8
2818.41
2818.97
2819.49
2819.97
2820.45
2820.92
2821.41
2821.9
2822.42
2822.94
2823.48
2824.05
2824.64
2825.29
2826.03
2826.9
2827.95
2829.22
2830.76
2832.6
2834.73
2837.13
2839.69
2842.29
2844.77
2846.95
2848.7
2849.97
2850.82
2851.43
2852.12
2853.3
2855.48
2859.23
2864.99
2872.92
2882.65
2893.23
2903.28
2911.16
2915.79
2918.95
2926.3
2922.48
2751.61
2782.71
2787.61
2787.95
2785.37
2780.55
2774.76
2769.59
2766.25
2765.06
2765.62
2767.2
2769.22
2771.29
2773.26
2775.08
2776.76
2778.33
2779.81
2781.2
2782.52
2783.78
2784.96
2786.07
2787.1
2788.02
2788.85
2789.58
2790.23
2790.84
2791.51
2792.31
2793.29
2794.37
2795.42
2796.3
2797.04
2797.76
2798.47
2799.15
2799.86
2800.55
2801.25
2802.03
2802.76
2803.38
2803.95
2804.47
2804.95
2805.41
2805.86
2806.31
2806.76
2807.23
2807.7
2808.19
2808.69
2809.2
2809.75
2810.36
2811.05
2811.88
2812.88
2814.12
2815.63
2817.43
2819.53
2821.88
2824.4
2826.96
2829.4
2831.56
2833.3
2834.58
2835.44
2836.07
2836.77
2837.95
2840.13
2843.85
2849.57
2857.45
2867.11
2877.61
2887.52
2895.25
2899.73
2902.75
2909.87
2905.78
2740.66
2771.13
2775.9
2776.12
2773.42
2768.49
2762.6
2757.34
2753.92
2752.67
2753.18
2754.71
2756.68
2758.71
2760.63
2762.41
2764.05
2765.57
2767
2768.35
2769.63
2770.84
2771.98
2773.04
2774
2774.92
2775.83
2776.75
2777.62
2778.37
2778.99
2779.55
2780.19
2781.02
2781.98
2782.92
2783.72
2784.43
2785.08
2785.72
2786.4
2787.09
2787.78
2788.49
2789.17
2789.75
2790.29
2790.77
2791.23
2791.66
2792.09
2792.51
2792.93
2793.36
2793.79
2794.23
2794.68
2795.15
2795.66
2796.22
2796.87
2797.67
2798.65
2799.86
2801.34
2803.12
2805.18
2807.5
2809.98
2812.51
2814.94
2817.1
2818.86
2820.17
2821.07
2821.73
2822.45
2823.63
2825.8
2829.49
2835.18
2842.99
2852.57
2862.94
2872.7
2880.28
2884.62
2887.51
2894.39
2890.11
2729.94
2759.83
2764.47
2764.57
2761.75
2756.71
2750.71
2745.37
2741.88
2740.58
2741.06
2742.55
2744.48
2746.47
2748.36
2750.1
2751.7
2753.19
2754.58
2755.89
2757.13
2758.31
2759.4
2760.38
2761.26
2762.14
2763.15
2764.36
2765.67
2766.83
2767.61
2767.96
2768.11
2768.4
2769.04
2769.93
2770.81
2771.51
2772.1
2772.69
2773.34
2774.07
2774.76
2775.35
2775.96
2776.51
2777.01
2777.47
2777.9
2778.3
2778.68
2779.05
2779.41
2779.78
2780.16
2780.54
2780.94
2781.36
2781.82
2782.34
2782.97
2783.74
2784.69
2785.88
2787.34
2789.09
2791.12
2793.41
2795.88
2798.4
2800.84
2803.03
2804.83
2806.19
2807.13
2807.82
2808.56
2809.76
2811.91
2815.57
2821.19
2828.91
2838.36
2848.57
2858.18
2865.61
2869.86
2872.64
2879.29
2874.88
2719.39
2748.72
2753.23
2753.22
2750.29
2745.12
2738.99
2733.53
2729.95
2728.57
2729.02
2730.44
2732.3
2734.25
2736.1
2737.83
2739.42
2740.89
2742.27
2743.56
2744.79
2745.95
2747
2747.9
2748.67
2749.46
2750.52
2752.06
2754
2755.9
2757.19
2757.55
2757.17
2756.65
2756.6
2757.22
2758.1
2758.78
2759.29
2759.85
2760.46
2761.24
2761.98
2762.4
2762.88
2763.4
2763.85
2764.25
2764.6
2764.91
2765.19
2765.47
2765.75
2766.05
2766.36
2766.68
2767.01
2767.38
2767.78
2768.26
2768.85
2769.58
2770.5
2771.65
2773.07
2774.78
2776.79
2779.06
2781.53
2784.08
2786.55
2788.78
2790.63
2792.01
2792.98
2793.7
2794.45
2795.65
2797.79
2801.42
2806.94
2814.55
2823.84
2833.89
2843.35
2850.69
2854.9
2857.65
2864.11
2859.36
2709
2737.77
2742.16
2742.05
2739.01
2733.73
2727.47
2721.86
2718.08
2716.46
2716.44
2717.58
2719.29
2721.18
2723.04
2724.79
2726.44
2728
2729.46
2730.83
2732.13
2733.34
2734.42
2735.31
2735.99
2736.66
2737.71
2739.53
2742.17
2745.08
2747.3
2748.07
2747.31
2745.81
2744.69
2744.68
2745.38
2745.93
2746.34
2746.86
2747.4
2748.26
2749.06
2749.22
2749.48
2749.95
2750.32
2750.63
2750.88
2751.08
2751.26
2751.45
2751.66
2751.9
2752.14
2752.4
2752.67
2752.97
2753.32
2753.74
2754.27
2754.95
2755.81
2756.89
2758.25
2759.91
2761.87
2764.13
2766.6
2769.17
2771.66
2773.91
2775.76
2777.14
2778.09
2778.79
2779.52
2780.69
2782.79
2786.37
2791.88
2799.44
2808.65
2818.61
2828
2835.31
2839.56
2842.39
2848.77
2843.17
2698.77
2726.98
2731.26
2731.05
2727.93
2722.56
2716.2
2710.44
2706.39
2704.02
2700.21
2699.64
2700.66
2702.42
2704.44
2706.55
2708.66
2710.74
2712.74
2714.64
2716.41
2718.03
2719.46
2720.59
2721.4
2722.07
2723.1
2725.12
2728.41
2732.47
2736.02
2737.72
2737.04
2734.7
2732.34
2731.37
2731.64
2731.95
2732.28
2732.86
2733.4
2734.42
2735.41
2735.29
2735.34
2735.83
2736.17
2736.42
2736.6
2736.73
2736.85
2737.01
2737.19
2737.39
2737.59
2737.8
2738.01
2738.26
2738.56
2738.93
2739.4
2740.01
2740.81
2741.85
2743.16
2744.8
2746.78
2749.07
2751.59
2754.2
2756.74
2759.02
2760.88
2762.26
2763.19
2763.86
2764.54
2765.64
2767.66
2771.25
2777.56
2785.69
2795.28
2805.49
2815.07
2822.55
2826.99
2830.12
2837.06
2833.14
2688.7
2716.36
2720.52
2720.23
2717.02
2711.59
2705.2
2699.41
2695.09
2689.97
2654.42
2647
2648.11
2651.98
2656.58
2661.21
2665.62
2669.72
2673.48
2676.86
2679.83
2682.37
2684.46
2686.03
2687.04
2687.64
2688.37
2690.07
2693.37
2697.99
2702.58
2705.3
2704.99
2702.01
2698.27
2695.93
2695.29
2694.98
2695.08
2695.75
2696.27
2697.46
2698.72
2698.34
2698.2
2698.8
2699.2
2699.52
2699.76
2699.96
2700.18
2700.42
2700.68
2700.94
2701.18
2701.41
2701.65
2701.91
2702.22
2702.59
2703.06
2703.68
2704.48
2705.53
2706.9
2708.61
2710.68
2713.07
2715.69
2718.39
2721.01
2723.36
2725.28
2726.73
2727.71
2728.39
2729.02
2729.97
2731.76
2735.69
2750.93
2765.48
2779.25
2792.14
2803.42
2812.03
2817.25
2821.1
2829.24
2828.91
2678.81
2705.92
2709.97
2709.58
2706.29
2700.79
2694.35
2688.54
2684.15
2678.7
2641.43
2633.47
2634.5
2638.44
2643.15
2647.89
2652.41
2656.65
2660.57
2664.14
2667.29
2670
2672.22
2673.9
2674.97
2675.52
2676.02
2677.41
2680.61
2685.73
2691.49
2695.68
2696.45
2693.55
2688.85
2685.16
2683.43
2682.29
2682.16
2683.13
2683.86
2685.44
2687.24
2686.75
2686.52
2687.41
2688.02
2688.55
2689
2689.44
2689.9
2690.38
2690.84
2691.26
2691.65
2692.01
2692.37
2692.72
2693.1
2693.51
2694.01
2694.63
2695.46
2696.55
2697.98
2699.76
2701.9
2704.35
2707
2709.71
2712.31
2714.62
2716.49
2717.84
2718.7
2719.2
2719.63
2720.34
2721.91
2725.64
2740.01
2753.71
2766.71
2779.02
2789.98
2798.47
2803.79
2807.92
2816.51
2817.07
2669.09
2695.67
2699.6
2699.12
2695.75
2690.18
2683.68
2677.81
2673.38
2667.92
2631.23
2623.35
2624.34
2628.18
2632.76
2637.35
2641.72
2645.82
2649.65
2653.18
2656.35
2659.09
2661.34
2663.07
2664.23
2664.82
2665.19
2666.2
2668.98
2674.06
2680.51
2686.04
2688.22
2686.05
2680.99
2676.19
2673.16
2670.71
2669.97
2671.08
2671.87
2673.61
2675.71
2674.81
2674.17
2675.04
2675.58
2676.06
2676.5
2676.96
2677.44
2677.91
2678.34
2678.71
2679.06
2679.39
2679.7
2680
2680.31
2680.64
2681.06
2681.63
2682.42
2683.51
2684.93
2686.72
2688.84
2691.25
2693.83
2696.45
2698.94
2701.11
2702.82
2703.98
2704.61
2704.85
2705
2705.44
2706.74
2709.97
2723.62
2736.81
2749.6
2761.95
2773.14
2781.99
2787.7
2792.19
2800.76
2800.21
2659.54
2685.6
2689.43
2688.86
2685.41
2679.77
2673.2
2667.28
2662.82
2657.4
2621.48
2613.75
2614.7
2618.46
2622.93
2627.39
2631.6
2635.53
2639.19
2642.6
2645.71
2648.44
2650.72
2652.53
2653.86
2654.67
2655.15
2655.94
2658.18
2662.76
2669.26
2675.66
2679.28
2678.4
2673.79
2668.49
2664.31
2660.3
2658.67
2659.89
2660.82
2662.75
2665.19
2663.91
2662.82
2663.67
2664.14
2664.6
2665.08
2665.57
2666.02
2666.39
2666.67
2666.9
2667.13
2667.34
2667.55
2667.73
2667.92
2668.16
2668.5
2669.04
2669.82
2670.91
2672.35
2674.13
2676.24
2678.61
2681.16
2683.74
2686.16
2688.25
2689.83
2690.83
2691.27
2691.31
2691.27
2691.54
2692.67
2695.74
2709.27
2722.47
2735.38
2747.93
2759.34
2768.38
2774.24
2778.75
2787.16
2786.11
2650.18
2675.71
2679.44
2678.79
2675.26
2669.55
2662.93
2656.95
2652.45
2647.06
2611.87
2604.28
2605.2
2608.88
2613.28
2617.69
2621.84
2625.65
2629.13
2632.33
2635.27
2637.89
2640.14
2642.03
2643.57
2644.75
2645.6
2646.46
2648.24
2652
2657.88
2664.42
2669.1
2669.72
2666.25
2661.21
2656.29
2650.62
2647.73
2648.9
2650.03
2652.21
2655.06
2653.43
2651.91
2652.77
2653.26
2653.84
2654.45
2655.01
2655.41
2655.64
2655.77
2655.9
2656.07
2656.24
2656.39
2656.52
2656.66
2656.88
2657.24
2657.8
2658.62
2659.73
2661.17
2662.93
2665.01
2667.36
2669.86
2672.38
2674.72
2676.67
2678.09
2678.9
2679.15
2679.05
2678.91
2679.16
2680.34
2683.51
2697.08
2710.38
2723.44
2736.14
2747.65
2756.73
2762.57
2766.98
2775.12
2773.91
2640.98
2666
2669.64
2668.91
2665.32
2659.55
2652.87
2646.84
2642.29
2636.93
2602.4
2594.93
2595.79
2599.4
2603.79
2608.27
2612.51
2616.34
2619.7
2622.64
2625.24
2627.58
2629.67
2631.56
2633.31
2634.94
2636.37
2637.64
2639.25
2642.18
2646.98
2652.9
2657.96
2659.88
2657.95
2653.9
2648.86
2641.62
2637.07
2637.89
2639.22
2641.75
2645.1
2643.2
2641.31
2642.23
2642.85
2643.65
2644.46
2645.06
2645.33
2645.36
2645.33
2645.39
2645.53
2645.69
2645.82
2645.94
2646.09
2646.35
2646.76
2647.36
2648.19
2649.29
2650.68
2652.4
2654.42
2656.71
2659.14
2661.55
2663.74
2665.51
2666.73
2667.35
2667.46
2667.28
2667.15
2667.49
2668.82
2672.18
2685.79
2699.17
2712.3
2725.04
2736.53
2745.57
2751.35
2755.63
2763.55
2762.3
2631.98
2656.49
2660.04
2659.24
2655.58
2649.77
2643.05
2636.97
2632.38
2627.04
2593.12
2585.74
2586.54
2590.07
2594.47
2599.1
2603.61
2607.7
2611.12
2613.83
2615.97
2617.78
2619.48
2621.21
2623.09
2625.15
2627.28
2629.24
2631.08
2633.43
2637.01
2641.75
2646.46
2649.16
2648.76
2646.19
2641.68
2633.2
2626.65
2626.71
2628.16
2631.14
2635.15
2633.11
2630.99
2632.06
2632.96
2634.1
2635.11
2635.66
2635.69
2635.45
2635.28
2635.3
2635.47
2635.66
2635.83
2635.99
2636.21
2636.53
2636.97
2637.56
2638.33
2639.35
2640.66
2642.29
2644.23
2646.41
2648.7
2650.93
2652.91
2654.46
2655.5
2655.99
2656.06
2655.92
2655.91
2656.41
2657.94
2661.49
2675.1
2688.48
2701.6
2714.29
2725.73
2734.71
2740.41
2744.56
2752.28
2751.08
2623.18
2647.18
2650.63
2649.76
2646.05
2640.2
2633.47
2627.38
2622.78
2617.47
2584.16
2576.88
2577.6
2581.01
2585.38
2590.2
2595.15
2599.76
2603.52
2606.16
2607.77
2608.8
2609.77
2611.06
2612.89
2615.29
2618.09
2620.88
2623.29
2625.45
2628.01
2631.35
2635.13
2637.94
2638.68
2637.71
2634.28
2625.14
2616.57
2615.42
2616.75
2620.21
2624.99
2622.98
2620.85
2622.26
2623.6
2625.15
2626.3
2626.64
2626.31
2625.8
2625.52
2625.58
2625.84
2626.14
2626.42
2626.7
2627.02
2627.4
2627.84
2628.38
2629.06
2629.98
2631.18
2632.7
2634.5
2636.5
2638.58
2640.58
2642.34
2643.73
2644.67
2645.17
2645.32
2645.33
2645.49
2646.19
2647.9
2651.57
2665.12
2678.44
2691.49
2704.12
2715.5
2724.42
2730.05
2734.07
2741.64
2740.59
2614.56
2638.06
2641.42
2640.47
2636.69
2630.81
2624.07
2618.01
2613.48
2608.33
2575.87
2568.79
2569.44
2572.66
2576.91
2581.85
2587.26
2592.57
2596.97
2599.78
2600.91
2600.92
2600.72
2601.12
2602.55
2605.04
2608.32
2611.84
2614.92
2617.24
2619.14
2621.2
2623.75
2626.07
2627.33
2627.72
2625.77
2616.88
2606.92
2604.2
2605.02
2608.74
2614.07
2612.3
2610.43
2612.47
2614.49
2616.5
2617.69
2617.74
2617.06
2616.37
2616.13
2616.35
2616.78
2617.25
2617.68
2618.1
2618.51
2618.92
2619.35
2619.84
2620.46
2621.3
2622.4
2623.77
2625.38
2627.14
2628.97
2630.75
2632.35
2633.67
2634.64
2635.24
2635.54
2635.71
2636.03
2636.85
2638.69
2642.47
2655.96
2669.24
2682.26
2694.86
2706.22
2715.1
2720.65
2724.53
2731.87
2731
2606.11
2629.11
2632.37
2631.34
2627.49
2621.55
2614.78
2608.74
2604.35
2599.76
2570.21
2563.85
2564.46
2567.31
2571.13
2575.8
2581.3
2587.08
2592.05
2595.05
2595.62
2594.3
2592.38
2591.23
2591.69
2593.87
2597.34
2601.38
2605.07
2607.78
2609.47
2610.67
2612.11
2613.65
2614.91
2616.33
2616.27
2608.89
2599.1
2594.77
2594.5
2597.77
2602.75
2601.19
2599.68
2602.68
2605.7
2608.34
2609.64
2609.52
2608.73
2608.18
2608.24
2608.75
2609.39
2609.97
2610.45
2610.86
2611.22
2611.55
2611.88
2612.29
2612.81
2613.49
2614.35
2615.41
2616.66
2618.07
2619.61
2621.19
2622.7
2624.04
2625.09
2625.8
2626.22
2626.49
2626.87
2627.69
2629.44
2633.07
2646.61
2659.98
2673.09
2685.74
2697.12
2705.98
2711.43
2715.13
2722.19
2721.08
2597.8
2620.31
2623.48
2622.36
2618.43
2612.41
2605.57
2599.45
2595.21
2592.87
2590.12
2589.89
2590.71
2591.85
2593.38
2595.87
2599.79
2604.84
2609.72
2612.79
2612.99
2610.57
2607.03
2604.34
2603.93
2606.11
2610.23
2615.2
2619.9
2623.53
2625.78
2627.01
2628.1
2629.29
2630.67
2633.31
2635.89
2631.4
2623.85
2618.09
2615.71
2616.92
2619.32
2616.5
2613.68
2616.23
2618.68
2620.13
2619.81
2618.21
2616.55
2615.79
2616.05
2616.89
2617.82
2618.62
2619.3
2619.89
2620.43
2620.95
2621.47
2622.04
2622.65
2623.3
2624.07
2625.02
2626.18
2627.61
2629.27
2631.08
2632.92
2634.63
2636.06
2637.13
2637.87
2638.41
2639.02
2640.08
2642.09
2645.65
2651.79
2659.9
2669.6
2680.04
2689.94
2697.79
2702.51
2705.58
2711.93
2709.94
2589.64
2611.66
2614.74
2613.55
2609.54
2603.46
2596.54
2590.35
2586.09
2584.04
2583.69
2584.37
2585.36
2586.27
2587.33
2589.31
2592.99
2598.38
2604.24
2608.53
2609.58
2607.12
2602.59
2598.39
2596.66
2598.21
2602.35
2607.62
2612.66
2616.6
2619.11
2620.31
2621.03
2621.72
2623.03
2626.85
2632.6
2632.24
2629.48
2623.53
2618.74
2616.86
2615.38
2611.27
2606.98
2609.37
2611.66
2612.5
2611.37
2609.28
2607.73
2607.49
2608.33
2609.51
2610.5
2611.2
2611.72
2612.18
2612.62
2613.06
2613.47
2613.84
2614.18
2614.53
2614.98
2615.65
2616.66
2618.08
2619.88
2621.94
2624.08
2626.09
2627.8
2629.09
2629.98
2630.63
2631.3
2632.4
2634.4
2637.86
2643.27
2650.78
2660.03
2670.16
2679.82
2687.47
2692
2694.83
2700.82
2698.77
2581.66
2603.21
2606.2
2604.93
2600.85
2594.7
2587.73
2581.49
2577.18
2575.13
2574.96
2575.75
2576.77
2577.62
2578.42
2579.97
2583.28
2588.74
2595.37
2600.99
2603.36
2601.59
2596.74
2591.34
2588.17
2588.78
2592.68
2598.08
2603.23
2607.23
2609.83
2611.07
2611.63
2612.11
2613.81
2619.39
2628.87
2632.85
2635.94
2631.21
2624.03
2618.19
2612.04
2606.09
2599.28
2600.74
2602.53
2602.68
2600.9
2598.67
2597.58
2598.07
2599.45
2600.84
2601.8
2602.38
2602.8
2603.22
2603.65
2604.04
2604.31
2604.43
2604.44
2604.43
2604.57
2605.06
2606.03
2607.52
2609.48
2611.75
2614.09
2616.26
2618.08
2619.42
2620.31
2620.91
2621.49
2622.45
2624.3
2627.58
2632.75
2640.02
2649.05
2658.96
2668.41
2675.84
2680.14
2682.69
2688.32
2686.24
2573.89
2594.97
2597.88
2596.53
2592.38
2586.17
2579.14
2572.85
2568.49
2566.39
2566.15
2566.94
2568.01
2568.88
2569.53
2570.64
2573.33
2578.39
2585.25
2591.88
2595.7
2595.17
2590.72
2584.68
2580.21
2579.62
2583.04
2588.48
2593.73
2597.68
2600.18
2601.37
2601.77
2602.27
2604.92
2613.02
2626.61
2634.16
2643.23
2641.22
2632.2
2621.86
2610.58
2602.49
2592.03
2591.56
2592.46
2592.05
2590.03
2588.09
2587.63
2588.65
2590.21
2591.5
2592.3
2592.79
2593.21
2593.63
2594.01
2594.24
2594.23
2594
2593.66
2593.36
2593.33
2593.76
2594.76
2596.34
2598.4
2600.74
2603.1
2605.25
2606.97
2608.17
2608.86
2609.21
2609.51
2610.18
2611.73
2614.72
2619.61
2626.59
2635.36
2645.02
2654.23
2661.43
2665.51
2667.82
2673.04
2670.26
2566.27
2586.89
2589.73
2588.3
2584.08
2577.8
2570.72
2564.38
2559.97
2557.82
2557.5
2558.28
2559.41
2560.35
2560.95
2561.69
2563.65
2567.89
2574.38
2581.48
2586.57
2587.57
2584.21
2578.26
2572.84
2570.95
2573.57
2578.99
2584.49
2588.52
2590.93
2591.93
2592.05
2592.51
2596.32
2607.43
2625.39
2635.4
2649.4
2651.82
2641.52
2625.63
2609.49
2599.1
2584.18
2581.09
2581.07
2580.51
2578.74
2577.33
2577.28
2578.26
2579.4
2580.25
2580.83
2581.31
2581.72
2582.01
2582.08
2581.87
2581.39
2580.75
2580.09
2579.59
2579.46
2579.84
2580.77
2582.25
2584.18
2586.37
2588.58
2590.53
2592.04
2592.99
2593.43
2593.54
2593.62
2594.1
2595.5
2598.37
2603.19
2610.13
2618.85
2628.49
2637.7
2644.92
2649.01
2651.26
2656.2
2652.51
2558.73
2578.88
2581.63
2580.13
2575.84
2569.5
2562.36
2555.97
2551.52
2549.31
2548.93
2549.68
2550.84
2551.88
2552.55
2553.07
2554.34
2557.53
2563.13
2570.09
2576.03
2578.59
2576.79
2571.63
2565.81
2562.59
2563.99
2569.17
2575.09
2579.56
2582.19
2583.08
2582.86
2583
2587.51
2601.33
2623.8
2635.56
2661.74
2670.32
2658.39
2634.26
2604.92
2591.85
2572.16
2566.53
2565.89
2565.51
2564.18
2563.13
2562.93
2563.18
2563.42
2563.67
2564.1
2564.63
2565.01
2565.02
2564.66
2564.01
2563.22
2562.44
2561.79
2561.38
2561.35
2561.77
2562.72
2564.18
2566.09
2568.26
2570.47
2572.45
2574.01
2575.03
2575.57
2575.79
2576.02
2576.69
2578.28
2581.37
2586.38
2593.5
2602.39
2612.18
2621.52
2628.86
2633.04
2635.35
2640.12
2635.89
2551.22
2570.89
2573.56
2571.98
2567.62
2561.21
2554.02
2547.58
2543.08
2540.82
2540.38
2541.07
2542.23
2543.37
2544.17
2544.66
2545.42
2547.57
2551.96
2558.23
2564.51
2568.39
2568.33
2564.5
2558.8
2554.38
2554.05
2558.5
2564.8
2570.13
2573.54
2574.7
2574.44
2574.16
2578.52
2593.75
2620.07
2632.32
2653.71
2666.96
2651.48
2616.81
2589.57
2574.63
2551.49
2544.92
2544.29
2544.49
2543.93
2543.46
2543.31
2543.17
2543.04
2543.23
2543.89
2544.7
2545.17
2545.08
2544.54
2543.85
2543.19
2542.69
2542.37
2542.26
2542.49
2543.11
2544.22
2545.84
2547.91
2550.27
2552.69
2554.91
2556.71
2557.97
2558.75
2559.22
2559.71
2560.63
2562.5
2565.82
2571.06
2578.36
2587.4
2597.31
2606.75
2614.17
2618.44
2620.81
2625.5
2621.13
2543.91
2563.09
2565.67
2564.02
2559.58
2553.11
2545.86
2539.37
2534.82
2532.5
2532.01
2532.63
2533.77
2534.97
2535.93
2536.52
2537.04
2538.34
2541.45
2546.64
2552.73
2557.53
2559.13
2556.88
2551.81
2546.53
2544.17
2547.18
2553.4
2559.67
2564.32
2566.28
2566.67
2566.57
2570.36
2585.11
2613.55
2626.09
2704.41
2715.61
2695.08
2652.55
2565.85
2550.86
2528.19
2523.73
2524.28
2525.43
2525.9
2526.31
2526.59
2526.51
2526.23
2526.19
2526.51
2526.92
2527.02
2526.65
2525.98
2525.38
2525.01
2524.94
2525.06
2525.31
2525.83
2526.69
2527.98
2529.74
2531.95
2534.46
2537.04
2539.45
2541.44
2542.91
2543.9
2544.6
2545.32
2546.47
2548.55
2552.06
2557.45
2564.87
2573.99
2583.96
2593.45
2600.93
2605.27
2607.71
2612.38
2608.11
2537.19
2555.91
2558.42
2556.69
2552.19
2545.66
2538.35
2531.81
2527.2
2524.83
2524.28
2524.84
2525.91
2527.12
2528.22
2529
2529.51
2530.28
2532.27
2536.21
2541.67
2546.92
2549.85
2549.23
2545.27
2539.89
2535.91
2536.83
2542.12
2548.77
2554.34
2557.42
2559.22
2560.57
2564.66
2577.98
2606.71
2615.82
2609.96
2612.98
2595.29
2560.03
2545.24
2533.8
2513.62
2511.61
2511.95
2512.99
2513.97
2515.05
2515.77
2515.68
2514.82
2513.68
2512.7
2512.05
2511.6
2511.16
2510.71
2510.45
2510.48
2510.82
2511.31
2511.83
2512.54
2513.51
2514.84
2516.61
2518.8
2521.32
2523.95
2526.43
2528.55
2530.17
2531.33
2532.21
2533.1
2534.41
2536.63
2540.26
2545.73
2553.2
2562.36
2572.35
2581.88
2589.4
2593.82
2596.31
2600.98
2596.9
2531.67
2549.99
2552.44
2550.67
2546.12
2539.54
2532.19
2525.61
2520.96
2518.55
2517.94
2518.43
2519.44
2520.61
2521.76
2522.71
2523.35
2523.88
2525.04
2527.78
2532.32
2537.52
2541.39
2542.35
2540.07
2535.84
2531.78
2530.48
2533.9
2539.67
2544.79
2548.77
2552.39
2556.58
2562.7
2574.71
2602.58
2607.71
2377.15
2377.2
2365.12
2342.04
2538.83
2529.92
2510.23
2507.68
2504.75
2504.14
2505.23
2507.12
2508.47
2508.48
2507.07
2504.76
2502.42
2500.78
2500.03
2499.84
2499.85
2499.99
2500.33
2500.92
2501.62
2502.29
2503.06
2504.01
2505.24
2506.83
2508.84
2511.2
2513.74
2516.22
2518.4
2520.13
2521.42
2522.42
2523.42
2524.83
2527.12
2530.8
2536.3
2543.78
2552.96
2562.97
2572.53
2580.1
2584.56
2587.09
2591.75
2587.86
2527.87
2545.92
2548.33
2546.53
2541.96
2535.39
2528.05
2521.48
2516.84
2514.44
2513.83
2514.3
2515.26
2516.38
2517.52
2518.54
2519.31
2519.8
2520.45
2522.14
2525.55
2530.24
2534.66
2537.22
2537.32
2535.72
2534
2531.2
2532.18
2535.55
2538.09
2542.32
2547.77
2555.85
2565.64
2576.7
2601.99
2602.96
2185.24
2181.6
2175.4
2165.02
2539.7
2533.97
2514.24
2509.36
2501.66
2498.87
2499.92
2502.47
2504.41
2504.73
2503.17
2500.25
2497.07
2494.77
2493.84
2493.91
2494.31
2494.7
2495.13
2495.75
2496.47
2497.05
2497.67
2498.37
2499.27
2500.52
2502.21
2504.32
2506.71
2509.15
2511.37
2513.18
2514.56
2515.62
2516.67
2518.1
2520.4
2524.09
2529.59
2537.08
2546.28
2556.32
2565.9
2573.5
2577.99
2580.54
2585.19
2581.45
2526.09
2543.97
2546.36
2544.54
2539.98
2533.43
2526.14
2519.64
2515.09
2512.78
2512.27
2512.85
2513.88
2515.04
2516.19
2517.26
2518.14
2518.71
2519.12
2520
2522.21
2526.03
2530.7
2535.08
2538.34
2540.41
2543.19
2540.17
2538.62
2538.4
2536.33
2539.88
2546.73
2559.23
2573.82
2584.68
2606.78
2603.78
2098.98
2090.2
2088.8
2090.61
2551.89
2548.48
2527.53
2519.29
2506.02
2499.94
2499.58
2501.65
2503.68
2504.54
2503.69
2501.22
2498
2495.29
2493.96
2493.89
2494.3
2494.62
2494.82
2495.12
2495.49
2495.7
2495.89
2496.14
2496.6
2497.45
2498.8
2500.68
2502.94
2505.33
2507.57
2509.43
2510.84
2511.93
2512.96
2514.37
2516.65
2520.32
2525.82
2533.33
2542.54
2552.6
2562.21
2569.83
2574.32
2576.88
2581.52
2577.86
2526.21
2544.04
2546.4
2544.55
2539.96
2533.4
2526.12
2519.66
2515.18
2512.98
2512.61
2513.36
2514.59
2515.93
2517.23
2518.45
2519.54
2520.36
2520.85
2521.3
2522.51
2525.38
2530.4
2537.1
2544.33
2550.21
2558.19
2556.2
2552.37
2547.87
2540.01
2541.65
2549.57
2566.3
2586.29
2598.47
2622.19
2619.68
2088.63
2076.1
2077.35
2088.18
2597.68
2590.21
2560.52
2545.84
2524.07
2511.68
2507.34
2507.35
2508.87
2510.41
2510.77
2509.24
2506.12
2502.69
2500.27
2499.27
2498.31
2498.13
2497.73
2497.38
2497.14
2496.82
2496.54
2496.4
2496.56
2497.16
2498.31
2500.03
2502.19
2504.52
2506.73
2508.58
2509.97
2511.02
2512
2513.36
2515.6
2519.26
2524.76
2532.29
2541.52
2551.6
2561.22
2568.84
2573.34
2575.88
2580.53
2576.91
2527.75
2545.62
2547.95
2546.04
2541.39
2534.75
2527.38
2520.84
2516.29
2514.05
2513.68
2514.48
2515.82
2517.3
2518.77
2520.17
2521.51
2522.69
2523.55
2524.03
2524.68
2526.96
2532.8
2542.71
2554.79
2564.08
2577.16
2577.48
2571.89
2562.7
2548.28
2546.29
2552.02
2571.15
2595.62
2610.11
2645.19
2651.75
2128.45
2116.35
2117.58
2129.58
2648.2
2635.76
2593.66
2574.24
2544.5
2526.16
2518.59
2517.26
2518.46
2520.22
2520.95
2519.43
2515.68
2510.98
2507.02
2504.71
2502.87
2502.14
2501.22
2500.35
2499.69
2499.11
2498.68
2498.49
2498.63
2499.2
2500.28
2501.88
2503.88
2506.08
2508.18
2509.94
2511.26
2512.23
2513.15
2514.45
2516.66
2520.29
2525.8
2533.33
2542.57
2552.66
2562.29
2569.91
2574.4
2576.94
2581.59
2578
2529.98
2547.98
2550.31
2548.38
2543.68
2536.97
2529.5
2522.81
2518.09
2515.66
2515.11
2515.73
2516.91
2518.28
2519.67
2521.03
2522.39
2523.72
2524.84
2525.44
2525.78
2527.73
2534.69
2548.35
2566
2578.24
2595.6
2600.15
2593.61
2579.2
2558.88
2551.84
2552.01
2569.58
2595.36
2614.18
2675.51
2685.49
2130.2
2109.75
2110.57
2131.66
2692.65
2682.69
2610.78
2583.59
2547.32
2525.6
2517.95
2517.88
2520.32
2523
2524.36
2523.27
2519.73
2514.92
2510.54
2507.75
2505.67
2505.02
2504.24
2503.45
2502.9
2502.49
2502.26
2502.24
2502.5
2503.08
2504.04
2505.42
2507.16
2509.1
2510.99
2512.61
2513.84
2514.73
2515.59
2516.83
2518.99
2522.6
2528.1
2535.62
2544.85
2554.94
2564.56
2572.17
2576.66
2579.19
2583.86
2580.29
2532.22
2550.36
2552.73
2550.85
2546.19
2539.49
2532.02
2525.31
2520.53
2517.99
2517.29
2517.73
2518.7
2519.84
2520.98
2522.09
2523.2
2524.32
2525.3
2525.72
2525.59
2526.94
2534.38
2550.96
2573.78
2588.39
2617.77
2628.74
2621.33
2599.7
2566.15
2554.2
2547.58
2560.69
2582.85
2605.8
2727.79
2733.15
2210.76
2184.3
2183.87
2211.42
2767.06
2776.45
2627.51
2586.12
2541.86
2516.11
2507.98
2509.33
2513.02
2516.77
2519.34
2519.81
2518.03
2514.84
2511.57
2509.36
2507.7
2507.69
2507.56
2507.31
2507.23
2507.12
2507.13
2507.24
2507.5
2507.97
2508.69
2509.72
2511.08
2512.67
2514.3
2515.75
2516.86
2517.67
2518.46
2519.64
2521.74
2525.31
2530.77
2538.26
2547.48
2557.55
2567.16
2574.76
2579.24
2581.75
2586.44
2582.92
2533.98
2552.24
2554.65
2552.81
2548.22
2541.61
2534.22
2527.61
2522.91
2520.46
2519.82
2520.29
2521.26
2522.37
2523.45
2524.45
2525.4
2526.34
2527.13
2527.35
2526.8
2527.34
2534.14
2551.55
2577.56
2593.24
2619.23
2636.09
2626.38
2594.97
2562.61
2547.07
2535.16
2544.84
2560.23
2553.79
2559.47
2555.8
2526.11
2507.16
2501.48
2502.48
2505.39
2508.89
2512.36
2514.7
2515.06
2513.78
2511.79
2510.1
2508.56
2508.88
2509.25
2509.52
2509.99
2510.17
2510.41
2510.64
2510.95
2511.37
2511.96
2512.77
2513.87
2515.23
2516.68
2518.03
2519.09
2519.9
2520.67
2521.83
2523.91
2527.45
2532.89
2540.38
2549.59
2559.66
2569.27
2576.88
2581.35
2583.86
2588.56
2585.01
2535.09
2553.41
2555.82
2554
2549.42
2542.85
2535.52
2528.96
2524.35
2521.99
2521.45
2522.02
2523.1
2524.31
2525.49
2526.59
2527.6
2528.57
2529.4
2529.73
2529.22
2529.24
2534.5
2550.13
2576.15
2593.04
2681.74
2700.31
2687.2
2647.77
2552.07
2535.92
2524.83
2537.49
2558.51
2553.47
2552.43
2553.28
2525.64
2508.06
2502.5
2502.77
2504.79
2507.45
2510.3
2512.55
2513.98
2514.02
2512.75
2511.05
2508.96
2509.03
2509.52
2510.12
2511.06
2511.49
2511.99
2512.39
2512.78
2513.22
2513.75
2514.44
2515.37
2516.54
2517.85
2519.12
2520.17
2520.99
2521.78
2522.96
2525.04
2528.59
2534.04
2541.55
2550.78
2560.87
2570.5
2578.12
2582.59
2585.09
2589.76
2586.01
2535.64
2553.96
2556.35
2554.5
2549.91
2543.31
2535.96
2529.39
2524.78
2522.42
2521.89
2522.48
2523.59
2524.85
2526.07
2527.22
2528.29
2529.29
2530.18
2530.69
2530.48
2530.21
2533.34
2544.93
2567.16
2580.89
2595.37
2605.26
2593.11
2560.09
2532.15
2520.2
2513.69
2530.34
2556.07
2555.3
2549.76
2549.23
2522.43
2505.97
2501.11
2501.68
2503.51
2505.75
2508.36
2510.85
2512.9
2513.66
2512.94
2511.56
2509.41
2509.24
2509.79
2510.61
2511.79
2512.52
2513.36
2514
2514.53
2515.04
2515.53
2516.09
2516.82
2517.78
2518.89
2520.02
2521
2521.81
2522.6
2523.77
2525.84
2529.37
2534.81
2542.31
2551.55
2561.64
2571.27
2578.87
2583.31
2585.75
2590.34
2586.26
2535.81
2554.12
2556.49
2554.62
2549.99
2543.36
2535.97
2529.36
2524.71
2522.31
2521.76
2522.34
2523.44
2524.7
2525.94
2527.11
2528.2
2529.21
2530.12
2530.78
2530.89
2530.58
2531.71
2538.3
2553.97
2561.49
2352.75
2356.58
2348.45
2328.05
2514.45
2507.59
2505.59
2524.22
2552.52
2555.43
2548.46
2546.47
2520.35
2505.6
2502.19
2503.16
2504.61
2506.17
2508.26
2510.66
2513.01
2514.27
2514.26
2513.87
2512.77
2512.45
2512.86
2513.3
2513.65
2514.38
2515.31
2516.09
2516.69
2517.17
2517.56
2517.96
2518.48
2519.18
2520.07
2521.02
2521.9
2522.67
2523.45
2524.61
2526.65
2530.15
2535.56
2543.04
2552.26
2562.35
2571.96
2579.53
2583.92
2586.29
2590.77
2586.38
2535.81
2554.1
2556.47
2554.59
2549.95
2543.29
2535.87
2529.23
2524.52
2522.08
2521.48
2522.02
2523.09
2524.33
2525.56
2526.74
2527.84
2528.87
2529.79
2530.56
2531.01
2530.98
2530.96
2532.98
2539.9
2537.3
2131.87
2128.11
2124.37
2118.57
2494.76
2496.17
2498.66
2516.33
2544.35
2550.77
2547.62
2543.96
2519.65
2508.16
2506.57
2507.8
2508.61
2509.21
2510.39
2512.27
2514.58
2516.38
2517.63
2519.14
2520.74
2520.62
2520.63
2519.85
2517.68
2517.72
2518.11
2518.82
2519.45
2519.86
2520.1
2520.29
2520.56
2520.99
2521.61
2522.35
2523.1
2523.8
2524.56
2525.7
2527.7
2531.16
2536.52
2543.97
2553.16
2563.22
2572.8
2580.33
2584.67
2586.98
2591.37
2586.78
2535.78
2554.08
2556.46
2554.59
2549.96
2543.32
2535.91
2529.27
2524.55
2522.09
2521.45
2521.93
2522.95
2524.13
2525.3
2526.42
2527.46
2528.43
2529.3
2530.07
2530.7
2531.07
2531.01
2530.57
2529.3
2514.16
2004.25
1991.1
1990.9
2000.45
2479.82
2490.87
2495.48
2507.74
2531.36
2540.98
2546.09
2541.92
2522.23
2515.39
2514.96
2515.61
2515.34
2514.78
2514.85
2516.04
2518.09
2520.77
2524.15