/*--------------------------------*- C++ -*----------------------------------*\
| =========                 |                                                 |
| \\      /  F ield         | OpenFOAM: The Open Source CFD Toolbox           |
|  \\    /   O peration     | Version:  v2012                                 |
|   \\  /    A nd           | Website:  www.openfoam.com                      |
|    \\/     M anipulation  |                                                 |
\*---------------------------------------------------------------------------*/
FoamFile
{
    version     2.0;
    format      ascii;
    class       volScalarField;
    location    "150/air";
    object      GLeaf;
}
// * * * * * * * * * * * * * * * * * * * * * * * * * * * * * * * * * * * * * //

dimensions      [1 0 -3 0 0 0 0];


internalField   nonuniform List<scalar> 
287104
(
676.462
700.381
700.02
695.778
689.137
680.71
671.637
663.395
657.119
653.109
650.932
649.882
649.35
648.971
648.581
648.133
647.627
647.073
646.478
645.845
645.178
644.481
643.762
643.025
642.261
641.454
640.587
639.66
638.704
637.763
636.882
636.078
635.342
634.644
633.946
633.228
632.498
631.768
631.021
630.265
629.524
628.797
628.097
627.427
626.732
626.001
625.244
624.46
623.66
622.859
622.077
621.334
620.645
620.019
619.459
618.965
618.536
618.181
617.911
617.75
617.726
617.876
618.241
618.861
619.775
621.004
622.545
624.359
626.36
628.415
630.359
632.017
633.25
633.995
634.3
634.344
634.431
634.981
636.498
639.518
644.476
651.496
660.191
669.623
678.437
685.111
688.611
690.474
695.667
689.761
685.141
711.521
710.886
706.101
698.832
689.732
680.026
671.252
664.559
660.228
657.795
656.522
655.785
655.205
654.616
653.97
653.268
652.521
651.736
650.917
650.069
649.198
648.309
647.397
646.442
645.414
644.3
643.126
641.958
640.878
639.94
639.134
638.397
637.645
636.814
635.896
634.96
634.063
633.165
632.254
631.361
630.474
629.623
628.834
628.014
627.14
626.246
625.325
624.387
623.45
622.535
621.661
620.846
620.098
619.421
618.815
618.282
617.827
617.465
617.217
617.113
617.189
617.485
618.044
618.902
620.081
621.581
623.358
625.326
627.348
629.252
630.861
632.031
632.7
632.925
632.892
632.917
633.429
634.946
638.017
643.088
650.29
659.24
668.986
678.143
685.131
688.872
691.034
697.08
691.347
672.944
698.585
697.644
692.657
685.247
676.035
666.23
657.366
650.589
646.178
643.666
642.319
641.511
640.864
640.209
639.5
638.739
637.936
637.099
636.234
635.344
634.437
633.515
632.57
631.577
630.5
629.321
628.063
626.803
625.645
624.666
623.872
623.188
622.497
621.694
620.754
619.769
618.839
617.919
616.982
616.065
615.145
614.263
613.467
612.637
611.739
610.824
609.883
608.929
607.98
607.059
606.184
605.368
604.621
603.944
603.34
602.81
602.361
602.006
601.766
601.672
601.759
602.068
602.642
603.516
604.714
606.233
608.028
610.011
612.042
613.951
615.562
616.737
617.42
617.671
617.678
617.756
618.328
619.904
623.026
628.134
635.36
644.323
654.075
663.232
670.209
673.925
676.127
682.442
677.321
660.908
685.803
684.718
679.642
672.164
662.898
653.05
644.148
637.338
632.894
630.352
628.98
628.15
627.482
626.808
626.078
625.295
624.473
623.62
622.743
621.846
620.935
620.01
619.061
618.064
616.987
615.81
614.546
613.256
612.042
611
610.173
609.511
608.892
608.171
607.273
606.286
605.345
604.417
603.473
602.553
601.625
600.732
599.942
599.117
598.207
597.282
596.332
595.373
594.425
593.508
592.639
591.828
591.084
590.41
589.809
589.282
588.837
588.487
588.253
588.168
588.269
588.599
589.203
590.12
591.364
592.926
594.757
596.767
598.819
600.749
602.386
603.598
604.333
604.652
604.741
604.908
605.57
607.232
610.43
615.607
622.892
631.905
641.692
650.86
657.811
661.483
663.664
669.976
664.908
649.656
673.961
672.806
667.683
660.157
650.848
640.964
632.035
625.203
620.741
618.186
616.806
615.973
615.304
614.627
613.893
613.102
612.27
611.409
610.529
609.634
608.726
607.8
606.847
605.853
604.806
603.7
602.535
601.326
600.12
598.994
598.031
597.26
596.621
595.969
595.167
594.233
593.302
592.367
591.423
590.515
589.605
588.72
587.931
587.114
586.206
585.283
584.339
583.392
582.462
581.566
580.717
579.926
579.198
578.537
577.945
577.428
576.994
576.661
576.466
576.45
576.638
577.063
577.761
578.762
580.081
581.71
583.6
585.661
587.761
589.738
591.43
592.71
593.529
593.942
594.131
594.397
595.151
596.896
600.171
605.417
612.761
621.814
631.614
640.75
647.62
651.17
653.216
659.311
653.988
638.813
662.61
661.413
656.258
648.694
639.348
629.436
620.489
613.649
609.182
606.633
605.258
604.432
603.771
603.102
602.371
601.58
600.744
599.88
598.998
598.106
597.202
596.271
595.3
594.292
593.276
592.294
591.353
590.403
589.369
588.228
587.058
585.998
585.142
584.445
583.739
582.91
582.005
581.057
580.112
579.223
578.359
577.503
576.691
575.872
574.977
574.066
573.14
572.217
571.313
570.444
569.62
568.848
568.136
567.491
566.917
566.427
566.055
565.815
565.72
565.789
566.054
566.549
567.311
568.369
569.738
571.408
573.334
575.429
577.569
579.6
581.362
582.73
583.648
584.166
584.453
584.806
585.632
587.435
590.753
596.023
603.369
612.397
622.137
631.185
637.962
641.437
643.364
649.174
643.638
628.208
651.531
650.299
645.113
637.51
628.123
618.177
609.209
602.365
597.905
595.395
594.028
593.211
592.561
591.901
591.18
590.398
589.566
588.702
587.821
586.932
586.029
585.086
584.078
583.023
582.008
581.162
580.552
580.077
579.485
578.539
577.202
575.692
574.345
573.365
572.664
571.963
571.106
570.148
569.213
568.353
567.581
566.794
565.934
565.102
564.249
563.375
562.494
561.617
560.755
559.921
559.128
558.394
557.761
557.24
556.824
556.507
556.289
556.177
556.19
556.353
556.7
557.266
558.089
559.197
560.605
562.306
564.262
566.393
568.581
570.674
572.514
573.969
574.977
575.58
575.946
576.364
577.242
579.077
582.405
587.65
594.943
603.882
613.506
622.433
629.113
632.527
634.386
639.885
634.152
617.773
640.635
639.372
634.161
626.52
617.084
607.081
598.061
591.177
586.699
584.215
582.829
582
581.353
580.707
580.008
579.252
578.448
577.608
576.745
575.872
574.98
574.031
572.98
571.846
570.776
570.023
569.782
569.967
570.142
569.743
568.454
566.455
564.345
562.743
561.834
561.211
560.402
559.451
558.558
557.746
557.126
556.476
555.547
554.721
554.002
553.27
552.558
551.872
551.226
550.639
550.129
549.707
549.375
549.127
548.957
548.861
548.843
548.914
549.093
549.408
549.891
550.578
551.503
552.697
554.178
555.947
557.972
560.182
562.457
564.644
566.575
568.113
569.197
569.869
570.295
570.769
571.689
573.546
576.863
582.048
589.248
598.064
607.552
616.36
622.971
626.376
628.234
633.443
627.042
607.493
629.898
628.609
623.383
615.716
606.24
596.172
587.06
580.047
575.385
572.481
570.854
569.906
569.223
568.579
567.903
567.187
566.434
565.646
564.828
563.988
563.116
562.167
561.073
559.835
558.637
557.867
557.926
558.86
560.113
560.735
559.955
557.716
554.783
552.298
550.962
550.382
549.704
548.933
548.308
547.756
547.56
547.355
546.562
545.939
545.602
545.227
544.861
544.499
544.16
543.872
543.661
543.534
543.485
543.501
543.572
543.699
543.888
544.154
544.516
545.003
545.646
546.48
547.542
548.87
550.491
552.414
554.612
557.014
559.498
561.898
564.038
565.771
567.021
567.835
568.385
568.97
569.989
571.932
575.331
580.641
587.915
596.751
606.231
615.036
621.676
625.156
627.132
632.321
625.062
597.369
619.32
618.007
612.771
605.095
595.604
585.502
576.308
569.08
563.722
557.002
553.511
551.576
550.361
549.418
548.586
547.81
547.059
546.308
545.536
544.729
543.868
542.904
541.75
540.372
538.95
537.976
538.079
539.543
541.838
543.696
543.782
541.569
537.784
534.066
531.783
530.768
529.82
528.927
528.329
527.741
527.692
527.681
526.64
525.837
525.558
525.193
524.826
524.455
524.113
523.842
523.667
523.588
523.584
523.636
523.737
523.888
524.097
524.379
524.751
525.236
525.864
526.674
527.709
529.015
530.628
532.558
534.777
537.204
539.705
542.108
544.231
545.927
547.131
547.889
548.373
548.876
549.801
551.657
555.103
561.289
569.247
578.565
588.396
597.484
604.373
608.106
610.416
616.168
610.505
587.41
608.909
607.57
602.324
594.644
585.164
575.092
565.935
558.484
550.341
509.268
495.894
490.957
488.839
487.587
486.566
485.58
484.583
483.569
482.532
481.474
480.395
479.271
478.03
476.612
475.146
474.124
474.321
476.285
479.685
483.119
484.75
483.427
479.527
474.927
471.779
470.361
469.27
468.579
468.431
468.127
468.466
468.857
467.628
466.64
466.419
466.008
465.545
465.038
464.537
464.091
463.715
463.396
463.113
462.855
462.628
462.443
462.316
462.26
462.294
462.444
462.746
463.247
464
465.057
466.453
468.19
470.227
472.471
474.778
476.977
478.891
480.384
481.391
481.953
482.226
482.478
483.075
484.537
488.272
504.482
519.911
534.407
548
559.906
569.02
574.638
578.775
586.983
586.325
577.621
598.674
597.311
592.052
584.364
574.887
564.834
555.705
548.246
539.835
497.198
483.448
478.579
476.652
475.6
474.754
473.918
473.065
472.206
471.336
470.431
469.473
468.439
467.274
465.903
464.384
463.153
463.077
465.006
468.962
473.622
476.769
476.562
472.781
467.28
462.844
460.356
458.423
457.456
457.529
457.318
457.89
458.621
457.066
455.763
455.573
455.114
454.592
454.03
453.493
453.017
452.598
452.209
451.829
451.461
451.117
450.811
450.554
450.356
450.237
450.232
450.389
450.767
451.431
452.43
453.793
455.509
457.521
459.728
461.982
464.11
465.939
467.331
468.224
468.656
468.77
468.829
469.207
470.434
473.899
488.655
503.12
517.026
530.236
542.019
551.261
557.244
561.975
571
571.642
568.006
588.62
587.236
581.967
574.269
564.79
554.739
545.618
538.173
529.808
487.868
474.322
469.535
467.637
466.58
465.702
464.82
463.933
463.079
462.268
461.465
460.622
459.706
458.685
457.49
456.112
454.851
454.517
456.155
460.205
465.676
470.261
471.556
468.588
462.824
457.39
453.736
450.658
449.249
449.628
449.638
450.541
451.762
449.999
448.495
448.51
448.193
447.837
447.479
447.173
446.924
446.7
446.472
446.238
446.014
445.814
445.641
445.494
445.385
445.341
445.409
445.652
446.139
446.931
448.072
449.576
451.429
453.568
455.889
458.249
460.479
462.403
463.875
464.81
465.232
465.296
465.281
465.58
466.753
470.546
485.912
500.563
514.534
527.829
539.743
549.13
555.232
559.964
568.653
567.937
558.566
578.747
577.346
572.068
564.363
554.881
544.833
535.72
528.298
520.028
478.976
465.71
461.019
459.154
458.107
457.218
456.297
455.346
454.431
453.597
452.824
452.053
451.238
450.363
449.398
448.295
447.185
446.679
447.825
451.423
456.994
462.486
465.236
463.557
458.237
452.31
447.541
442.966
440.733
441.283
441.496
442.652
444.28
442.198
440.329
440.414
440.144
439.9
439.711
439.583
439.465
439.315
439.138
438.986
438.897
438.858
438.843
438.844
438.877
438.981
439.214
439.642
440.328
441.321
442.648
444.313
446.281
448.5
450.871
453.254
455.475
457.351
458.729
459.53
459.793
459.695
459.545
459.779
461.025
465.1
480.561
495.309
509.42
522.882
534.954
544.455
550.607
555.252
563.357
561.7
549.299
569.055
567.64
562.358
554.649
545.166
535.12
526.012
518.608
510.427
470.216
457.214
452.613
450.797
449.807
448.984
448.107
447.14
446.144
445.198
444.341
443.549
442.785
442.051
441.359
440.667
439.959
439.545
440.263
443.086
448.081
453.748
457.567
457.373
453.171
447.481
441.971
435.75
432.293
432.823
433.261
434.687
436.727
434.321
432.051
432.171
431.952
431.849
431.83
431.808
431.684
431.451
431.2
431.045
430.99
430.998
431.027
431.071
431.16
431.343
431.679
432.223
433.02
434.106
435.498
437.201
439.197
441.424
443.788
446.142
448.297
450.062
451.285
451.906
451.99
451.743
451.498
451.706
452.994
457.151
472.573
487.363
501.56
515.103
527.216
536.705
542.795
547.291
555.11
553.266
540.208
559.543
558.12
552.839
545.134
535.658
525.619
516.515
509.122
501.018
461.59
448.827
444.301
442.539
441.653
441.004
440.323
439.482
438.462
437.344
436.25
435.263
434.42
433.759
433.333
433.129
433.033
433.042
433.609
435.619
439.564
444.647
448.872
449.975
447.282
442.547
436.879
429.082
423.982
424.185
424.836
426.606
429.138
426.456
423.821
423.992
423.903
424.028
424.205
424.228
423.985
423.567
423.171
422.938
422.879
422.9
422.944
423.014
423.156
423.419
423.843
424.462
425.307
426.406
427.789
429.47
431.44
433.64
435.955
438.222
440.248
441.846
442.885
443.335
443.293
442.99
442.77
443.079
444.528
448.856
464.27
479.093
493.325
506.873
518.948
528.375
534.387
538.748
546.355
544.498
531.303
550.222
548.789
543.514
535.821
526.366
516.349
507.261
499.881
491.845
453.147
440.601
436.129
434.405
433.644
433.265
432.964
432.474
431.603
430.339
428.863
427.438
426.282
425.541
425.309
425.591
426.223
426.941
427.736
429.175
431.922
435.854
439.749
441.633
440.445
437.142
431.947
422.874
415.779
415.229
415.988
418.189
421.351
418.492
415.599
415.896
416.05
416.486
416.839
416.788
416.293
415.617
415.075
414.802
414.733
414.747
414.791
414.903
415.115
415.455
415.939
416.58
417.41
418.472
419.809
421.447
423.37
425.505
427.723
429.851
431.705
433.125
434.015
434.374
434.317
434.078
433.991
434.482
436.135
440.637
456.004
470.786
484.967
498.439
510.427
519.768
525.687
529.91
537.341
535.565
522.595
541.098
539.654
534.379
526.701
517.278
507.307
498.267
490.934
482.989
445.004
432.678
428.246
426.519
425.851
425.775
426.004
426.124
425.676
424.418
422.5
420.383
418.593
417.509
417.313
418.002
419.357
420.931
422.294
423.556
425.288
427.84
430.819
432.823
432.755
430.995
426.814
417.025
407.883
406.099
406.719
409.357
413.225
410.336
407.366
407.935
408.465
409.243
409.673
409.386
408.51
407.536
406.884
406.646
406.668
406.783
406.931
407.132
407.412
407.779
408.235
408.803
409.532
410.49
411.727
413.264
415.069
417.052
419.086
421.014
422.682
423.962
424.785
425.16
425.192
425.09
425.156
425.779
427.561
432.141
447.346
461.981
476.025
489.374
501.257
510.509
516.323
520.403
527.698
526.214
514.076
532.166
530.706
525.425
517.751
508.355
498.439
489.484
482.274
474.548
437.526
425.514
421.13
419.34
418.67
418.828
419.628
420.558
420.845
419.872
417.6
414.622
411.85
410.065
409.654
410.598
412.574
414.981
417.086
418.551
419.657
420.955
422.735
424.264
424.709
424.259
421.489
411.857
401.239
397.806
397.818
400.587
404.849
402.017
399.123
400.149
401.199
402.31
402.691
402.048
400.786
399.619
398.992
398.888
399.061
399.313
399.582
399.877
400.202
400.552
400.94
401.407
402.023
402.855
403.945
405.3
406.879
408.605
410.375
412.072
413.576
414.784
415.628
416.102
416.281
416.343
416.558
417.287
419.022
423.33
438.249
452.73
466.701
480.027
491.917
501.176
506.966
510.966
518.301
517.205
505.72
523.4
521.924
516.632
508.95
499.561
489.679
480.803
473.791
466.663
432.63
421.417
417.079
415.045
414.123
414.266
415.498
417.323
418.683
418.483
416.29
412.656
408.837
406.141
405.331
406.437
408.962
412.127
414.998
416.928
417.863
418.303
418.962
419.683
420.077
420.576
419.561
411.253
400.562
395.259
393.859
395.801
399.257
396.07
392.864
394.073
395.271
396.192
396.018
394.703
393.009
391.812
391.455
391.726
392.259
392.826
393.366
393.88
394.365
394.824
395.286
395.806
396.483
397.335
398.366
399.578
400.957
402.473
404.074
405.684
407.198
408.504
409.51
410.176
410.548
410.775
411.112
411.908
413.644
417.906
432.968
447.611
461.716
475.127
487.041
496.261
501.932
505.707
512.584
511.087
497.503
514.778
513.289
507.988
500.294
490.891
480.99
472.096
465.291
460.55
455.514
453.065
451.725
450.778
450.266
450.768
452.74
455.866
458.876
460.115
458.543
454.438
449.3
445.08
443.194
443.94
446.652
450.244
453.59
455.885
456.844
456.804
456.645
456.594
456.754
458.172
459.535
453.844
445.127
438.22
434.697
434.756
435.987
432.008
428.025
429.403
430.663
430.879
429.265
426.323
423.296
421.177
420.119
419.691
419.463
419.284
419.154
419.116
419.19
419.387
419.726
420.218
420.796
421.457
422.266
423.289
424.58
426.159
427.999
430.007
432.04
433.932
435.537
436.775
437.668
438.362
439.124
440.336
442.485
446.182
452.463
460.633
470.282
480.564
490.197
497.682
501.968
504.538
510.136
507.164
489.432
506.309
504.81
499.501
491.798
482.388
472.477
463.569
456.793
452.391
449.821
448.374
447.318
446.262
445.424
445.561
447.444
451.067
455.19
457.777
457.167
453.127
447.092
441.456
438.343
438.543
441.344
445.286
449.001
451.65
452.878
452.831
452.317
451.783
451.882
454.479
458.977
457.363
453.33
446.153
440.163
437.109
434.505
429.294
423.95
425.279
426.512
426.307
424.165
421.138
418.711
417.672
417.757
418.237
418.6
418.741
418.779
418.835
418.958
419.145
419.379
419.643
419.93
420.268
420.744
421.454
422.495
423.926
425.721
427.763
429.867
431.824
433.455
434.664
435.47
436.023
436.6
437.594
439.494
442.845
448.111
455.403
464.364
474.104
483.294
490.402
494.346
496.555
501.725
498.686
481.545
498.031
496.522
491.205
483.495
474.081
464.171
455.268
448.501
444.15
441.801
440.51
439.545
438.473
437.432
437.192
438.757
442.504
447.443
451.389
452.132
448.798
442.448
435.627
431.099
430.366
432.947
437.02
440.855
443.56
444.873
444.862
444.184
443.452
443.936
448.273
456.443
459.08
460.769
454.665
446.175
439.072
431.75
424.671
416.774
417.149
417.851
416.94
414.136
410.934
408.918
408.522
409.073
409.683
409.917
409.828
409.649
409.562
409.589
409.652
409.668
409.597
409.455
409.33
409.386
409.794
410.684
412.098
413.972
416.141
418.379
420.447
422.153
423.399
424.21
424.746
425.294
426.258
428.137
431.472
436.699
443.998
453.028
462.887
472.234
479.52
483.651
486.024
491.382
488.905
473.858
489.963
488.445
483.12
475.401
465.982
456.074
447.173
440.406
436.053
433.678
432.434
431.561
430.551
429.394
428.755
429.748
433.129
438.342
443.331
445.543
443.457
437.529
430.086
424.272
422.382
424.507
428.656
432.619
435.289
436.536
436.488
435.691
435.007
436.468
443.317
455.553
461.698
469.269
465.787
455.38
443.755
431.322
422.141
410.661
409.154
409.016
407.58
404.557
401.648
400.255
400.371
401.071
401.55
401.591
401.381
401.159
401.017
400.901
400.699
400.326
399.8
399.213
398.721
398.544
398.857
399.768
401.287
403.319
405.69
408.15
410.444
412.378
413.853
414.895
415.667
416.461
417.685
419.84
423.475
429.047
436.704
446.091
456.296
465.968
473.556
477.95
480.509
485.8
482.903
466.331
482.057
480.53
475.197
467.469
458.046
448.137
439.239
432.473
428.114
425.716
424.5
423.721
422.828
421.664
420.697
420.997
423.605
428.49
433.994
437.504
436.975
432.154
424.816
418.089
414.924
416.291
420.453
424.698
427.472
428.649
428.446
427.403
426.712
429.359
439.209
455.782
464.349
476.815
477.761
466.182
449.236
432.236
421.074
405.447
401.609
400.784
399.412
396.847
394.66
393.862
394.114
394.572
394.789
394.802
394.775
394.761
394.698
394.498
394.103
393.513
392.837
392.22
391.829
391.873
392.482
393.773
395.734
398.238
401.066
403.957
406.651
408.941
410.729
412.072
413.142
414.223
415.713
418.104
421.924
427.607
435.299
444.658
454.787
464.351
471.8
476.025
478.347
483.18
479.164
458.873
474.213
472.678
467.338
459.602
450.175
440.266
431.372
424.608
420.245
417.831
416.627
415.922
415.173
414.109
412.962
412.614
414.224
418.265
423.676
428.084
429.141
425.903
419.378
412.258
407.809
407.996
411.961
416.663
419.92
421.345
421.061
419.711
418.732
422.104
434.676
455.721
466.045
490.859
498.446
486.08
461.987
433.028
420.416
401.244
396.051
395.607
395.31
393.99
392.877
392.568
392.652
392.696
392.735
392.949
393.29
393.513
393.423
393.013
392.399
391.711
391.11
390.72
390.641
391.053
392.043
393.609
395.747
398.39
401.339
404.337
407.112
409.445
411.224
412.482
413.395
414.272
415.53
417.668
421.215
426.604
433.981
443.007
452.799
462.024
469.137
473.031
474.997
479.311
474.463
451.453
466.393
464.85
459.503
451.76
442.329
432.422
423.532
416.772
412.407
409.981
408.77
408.11
407.498
406.61
405.463
404.654
405.268
408.15
412.92
417.712
420.133
418.668
413.487
406.521
400.899
399.405
402.696
407.815
411.967
414.213
414.223
412.848
411.478
414.709
428.686
453.553
464.675
486.131
500.571
487.238
455.136
430.354
417.551
396.29
391.213
391.693
392.54
392.256
391.822
391.543
391.158
390.703
390.553
390.868
391.363
391.583
391.305
390.672
389.973
389.404
389.117
389.128
389.419
390.094
391.187
392.761
394.831
397.331
400.099
402.89
405.44
407.529
409.051
410.048
410.708
411.349
412.387
414.315
417.651
422.817
429.954
438.725
448.252
457.211
464.068
467.725
469.455
473.432
468.228
444.226
458.76
457.21
451.856
444.106
434.671
424.762
415.874
409.118
404.752
402.315
401.086
400.441
399.932
399.246
398.252
397.238
397.05
398.701
402.443
407.097
410.483
410.694
407.124
400.808
394.353
390.87
392.767
397.854
402.987
406.482
407.308
406.582
405.376
408.028
421.505
448.507
461.288
543.332
559.883
544.169
505.308
421.672
408.753
387.59
384.104
385.193
386.569
387.022
387.198
387.176
386.755
386.154
385.831
385.933
386.225
386.31
385.992
385.45
385.015
384.861
385.014
385.381
385.877
386.612
387.648
389.072
390.944
393.227
395.782
398.381
400.757
402.691
404.073
404.946
405.499
406.049
407.004
408.848
412.085
417.128
424.116
432.718
442.064
450.845
457.543
461.073
462.681
466.47
461.225
437.596
451.748
450.192
444.832
437.076
427.637
417.726
408.835
402.075
397.703
395.251
393.998
393.338
392.882
392.367
391.601
390.615
389.931
390.505
393.05
397.128
400.997
402.577
400.655
395.459
388.915
383.83
383.658
387.848
393.373
397.804
399.73
400.387
400.58
403.473
415.463
443.16
455.023
460.122
471.477
459.008
426.78
413.466
402.693
382.877
380.924
381.131
381.929
382.616
383.425
383.884
383.632
382.768
381.734
380.923
380.465
380.214
379.953
379.672
379.562
379.732
380.173
380.744
381.322
382.057
383.023
384.314
385.991
388.053
390.393
392.805
395.041
396.879
398.202
399.037
399.565
400.092
401.02
402.821
405.993
410.946
417.82
426.295
435.516
444.184
450.792
454.258
455.802
459.479
454.329
432.139
445.968
444.415
439.058
431.305
421.874
411.971
403.085
396.325
391.947
389.481
388.2
387.503
387.04
386.612
386.042
385.212
384.323
384.105
385.485
388.676
392.534
395.074
394.746
391.223
385.813
380.625
378.221
380.536
385.159
389.119
391.915
394.339
397.286
402.1
412.7
439.477
447.5
230.44
240.878
235.794
217.129
414.307
405.343
385.487
382.605
379.274
378.273
379.04
380.699
382.002
382.148
380.983
378.972
376.935
375.574
375.064
375.069
375.22
375.455
375.849
376.451
377.128
377.722
378.389
379.195
380.241
381.622
383.378
385.448
387.663
389.778
391.562
392.871
393.709
394.237
394.751
395.649
397.402
400.505
405.375
412.158
420.544
429.685
438.288
444.847
448.275
449.777
453.374
448.35
428.392
441.99
440.446
435.102
427.373
417.976
408.115
399.273
392.553
388.21
385.769
384.496
383.781
383.286
382.86
382.385
381.702
380.789
380.071
380.429
382.524
385.899
388.998
390.27
389.108
386.273
383.342
379.363
379.156
381.331
382.667
385.665
389.838
396.584
404.98
414.607
438.704
442.359
39.6109
47.9156
50.1717
45.4411
419.487
412.906
392.369
386.654
378.251
374.936
375.635
377.998
379.999
380.581
379.433
376.995
374.316
372.489
371.972
372.378
373.024
373.583
374.111
374.761
375.439
375.943
376.419
376.936
377.616
378.597
379.973
381.734
383.74
385.752
387.514
388.844
389.71
390.25
390.75
391.61
393.308
396.35
401.157
407.884
416.223
425.327
433.9
440.432
443.833
445.3
448.84
443.922
426.639
440.1
438.556
433.218
425.512
416.159
406.363
397.605
390.984
386.75
384.424
383.259
382.63
382.182
381.777
381.351
380.786
379.955
378.997
378.55
379.458
381.967
385.338
388.396
390.346
391.092
392.529
388.188
385.326
383.815
380.482
382.76
388.302
399.452
412.704
422.324
443.175
442.261
-47.8388
-44.2406
-36.6547
-28.8524
430.849
425.692
403.197
393.655
379.546
373.067
372.504
374.551
376.821
378.175
378.028
376.401
374.08
372.258
371.73
372.342
373.303
374.054
374.555
375.057
375.535
375.769
375.904
376.038
376.326
376.938
378.004
379.538
381.413
383.378
385.151
386.514
387.4
387.931
388.398
389.211
390.862
393.866
398.649
405.362
413.696
422.797
431.364
437.882
441.264
442.706
446.214
441.362
426.768
440.178
438.608
433.239
425.51
416.149
406.367
397.65
391.104
386.979
384.797
383.808
383.37
383.099
382.842
382.556
382.182
381.587
380.704
379.825
379.72
381.29
384.988
390.343
396.167
400.613
407.075
403.587
398.294
392.39
383.242
383.648
390.385
406.048
425.199
436.883
459.724
456.187
-69.4101
-75.6035
-67.4954
-50.5222
459.119
451.59
421.785
407.009
385.481
373.643
370.015
370.913
373.497
376.28
378.066
378.09
376.598
374.776
373.866
374.2
374.398
375.159
375.503
375.72
375.897
375.856
375.738
375.662
375.788
376.275
377.247
378.716
380.556
382.52
384.316
385.705
386.604
387.123
387.559
388.338
389.966
392.964
397.756
404.489
412.844
421.964
430.542
437.064
440.441
441.875
445.378
440.562
428.293
441.734
440.122
434.693
426.888
417.438
407.562
398.756
392.134
387.961
385.772
384.826
384.485
384.351
384.249
384.137
384
383.752
383.216
382.343
381.665
382.633
387.134
395.637
406.21
413.921
425.303
423.945
416.75
406.115
390.507
387.581
392.693
411.653
436.553
451.887
486.393
491.738
-27.5024
-35.8915
-31.2455
-16.2264
499.811
485.207
441.593
421.146
391.005
372.939
366.515
367.024
370.535
374.842
378.184
379.279
378.08
375.825
374.132
373.841
373.773
374.54
374.859
374.985
375.116
375.141
375.161
375.276
375.603
376.254
377.321
378.817
380.641
382.583
384.371
385.769
386.68
387.207
387.644
388.429
390.075
393.107
397.945
404.727
413.127
422.285
430.895
437.442
440.835
442.28
445.808
441.025
430.508
444.051
442.424
436.96
429.097
419.559
409.562
400.602
393.8
389.429
387.036
385.9
385.396
385.14
384.95
384.785
384.658
384.543
384.245
383.471
382.473
383.097
388.697
400.88
416.907
427.426
442.947
445.683
437.521
421.861
400.824
393.643
394.359
413.266
441.049
461.584
521.627
529.535
-21.3454
-37.714
-33.2939
-9.27595
547.392
533.308
457.976
428.684
391.963
370.295
362.709
363.53
367.576
372.342
376.07
377.461
376.388
373.975
371.854
371.131
370.962
372.005
372.687
373.142
373.634
374.075
374.531
375.053
375.713
376.578
377.723
379.185
380.916
382.765
384.504
385.903
386.851
387.428
387.916
388.753
390.459
393.559
398.47
405.323
413.791
423.009
431.676
438.274
441.71
443.191
446.777
442.055
432.72
446.396
444.79
439.349
431.506
421.975
411.964
402.962
396.081
391.591
389.04
387.708
386.981
386.485
386.045
385.616
385.225
384.889
384.443
383.476
381.993
382.005
388.061
403.107
424.194
437.003
464.447
473.683
465.077
442.991
409.891
399.152
394.518
410.2
434.992
458.721
577.118
577.702
60.6961
39.2102
42.7058
72.4177
612.706
607.033
464.463
430.136
396.476
375.738
367.999
365.466
366.992
369.9
372.926
374.485
374.096
372.409
370.674
369.928
369.673
370.907
371.893
372.641
373.443
374.109
374.781
375.459
376.205
377.061
378.091
379.362
380.893
382.589
384.254
385.664
386.68
387.35
387.933
388.86
390.653
393.841
398.841
405.784
414.335
423.634
432.377
439.045
442.54
444.073
447.735
443.101
434.463
448.241
446.659
441.257
433.468
424.005
414.071
405.148
398.345
393.922
391.416
390.103
389.365
388.823
388.305
387.76
387.205
386.667
386.019
384.833
382.918
382.118
387.519
403.372
427.599
441.536
466.161
482.337
472.915
442.7
412.185
398.811
389.279
401.152
417.849
409.587
417.024
419.878
394.645
377.78
372.716
373.494
375.858
378.724
381.678
383.998
384.643
383.606
381.778
380.191
378.757
379.103
379.442
379.649
380.019
380.09
380.231
380.368
380.59
380.929
381.429
382.165
383.192
384.461
385.809
387.015
387.918
388.529
389.076
389.973
391.744
394.92
399.921
406.874
415.443
424.761
433.525
440.212
443.72
445.259
448.94
444.295
435.573
449.393
447.807
442.408
434.635
425.201
415.309
406.445
399.713
395.373
392.96
391.744
391.101
390.653
390.223
389.756
389.254
388.739
388.119
387.025
385.14
383.799
387.663
401.749
426.02
442.017
531.338
551.874
541.16
503.881
410.613
396.293
386.499
399.571
419.37
409.263
415.789
423.578
400.341
385.23
381.066
382.166
384.539
387.28
390.126
392.412
393.786
393.417
391.765
389.755
387.413
387.171
387.297
387.516
388.051
388.057
388.146
388.119
388.093
388.124
388.242
388.521
389.035
389.792
390.681
391.512
392.123
392.498
392.838
393.538
395.121
398.125
402.972
409.791
418.241
427.454
436.118
442.707
446.116
447.55
451.116
446.197
436.12
449.942
448.335
442.91
435.112
425.655
415.743
406.863
400.122
395.782
393.377
392.178
391.562
391.148
390.76
390.34
389.882
389.398
388.832
387.917
386.302
384.661
386.413
396.516
417.443
432.622
453.497
468.697
459.809
428.412
401.152
389.206
382.172
397.338
419.566
410.418
415.782
422.518
400.232
386.767
383.748
385.296
387.626
390.081
392.749
395.248
397.101
397.337
396.167
394.4
391.915
391.372
391.521
391.91
392.644
392.919
393.304
393.469
393.531
393.553
393.564
393.64
393.878
394.328
394.93
395.532
395.98
396.241
396.483
397.08
398.549
401.436
406.173
412.892
421.253
430.38
438.957
445.452
448.755
450.07
453.487
448.19
436.293
450.106
448.48
443.031
435.204
425.713
415.763
406.844
400.066
395.692
393.262
392.047
391.425
391.015
390.641
390.242
389.802
389.323
388.772
387.995
386.703
385.012
384.763
389.935
404.509
413.834
214.381
225.922
223.144
206.028
391.799
383.921
380.373
396.318
419.509
411.461
415.618
420.619
398.825
387.222
385.598
387.614
389.671
391.55
393.769
396.22
398.336
399.06
398.608
397.79
396.31
395.593
395.594
395.641
395.601
395.936
396.469
396.85
397.053
397.117
397.09
397.06
397.131
397.376
397.778
398.227
398.591
398.817
399.041
399.611
401.036
403.871
408.557
415.232
423.555
432.646
441.182
447.622
450.854
452.08
455.377
449.763
436.29
450.1
448.473
443.017
435.178
425.666
415.688
406.732
399.911
395.491
393.015
391.759
391.106
390.678
390.299
389.907
389.483
389.015
388.48
387.812
386.849
385.44
384.046
384.713
390.707
390.16
-3.55486
2.57501
6.2095
5.57941
380.201
379.882
380.223
394.699
417.081
411.429
413.781
416.473
395.997
387.247
387.553
390.098
391.821
392.996
394.534
396.646
398.763
400.095
400.938
402.008
403.166
402.632
402.246
401.127
398.673
398.434
398.533
398.938
399.235
399.304
399.2
399.043
398.944
398.987
399.195
399.503
399.799
400.026
400.285
400.89
402.331
405.168
409.854
416.534
424.865
433.961
442.494
448.919
452.121
453.302
456.531
450.725
436.266
450.081
448.468
443.029
435.208
425.714
415.747
406.793
399.962
395.518
393.006
391.703
390.995
390.508
390.069
389.617
389.136
388.612
388.029
387.365
386.582
385.569
384.142
382.393
380.259
367.209
-130.147
-132.544
-124.575
-109.148
368.038
376.818
378.982
388.152
406.709
405.865
408.943
409.146
392.355
387.779
389.881
392.507
393.781
394.327
395.221