/*--------------------------------*- C++ -*----------------------------------*\
| =========                 |                                                 |
| \\      /  F ield         | OpenFOAM: The Open Source CFD Toolbox           |
|  \\    /   O peration     | Version:  v2012                                 |
|   \\  /    A nd           | Website:  www.openfoam.com                      |
|    \\/     M anipulation  |                                                 |
\*---------------------------------------------------------------------------*/
FoamFile
{
    version     2.0;
    format      ascii;
    class       volScalarField;
    location    "150/air";
    object      ILambda_46_0;
}
// * * * * * * * * * * * * * * * * * * * * * * * * * * * * * * * * * * * * * //

dimensions      [1 0 -3 0 0 0 0];


internalField   nonuniform List<scalar> 
287104
(
166.869
167.041
167.178
167.311
167.436
167.555
167.667
167.775
167.879
167.979
168.076
168.171
168.263
168.354
168.442
168.529
168.614
168.698
168.78
168.861
168.941
169.019
169.097
169.173
169.248
169.323
169.396
169.469
169.541
169.613
169.684
169.755
169.826
169.896
169.966
170.036
170.106
170.176
170.246
170.316
170.385
170.454
170.523
170.591
170.659
170.726
170.791
170.856
170.918
170.98
171.039
171.097
171.153
171.207
171.259
171.31
171.358
171.405
171.45
171.493
171.535
171.576
171.616
171.655
171.693
171.731
171.768
171.805
171.842
171.879
171.916
171.953
171.99
172.027
172.064
172.101
172.138
172.175
172.212
172.249
172.287
172.326
172.366
172.406
172.439
172.452
172.449
172.589
173.57
177.054
166.699
166.697
166.694
166.694
166.696
166.7
166.706
166.713
166.722
166.731
166.741
166.752
166.764
166.776
166.788
166.801
166.815
166.828
166.842
166.857
166.871
166.886
166.901
166.916
166.932
166.948
166.964
166.98
166.997
167.014
167.031
167.048
167.066
167.083
167.101
167.119
167.137
167.155
167.173
167.191
167.208
167.225
167.242
167.258
167.274
167.289
167.304
167.318
167.332
167.345
167.358
167.37
167.382
167.394
167.405
167.416
167.427
167.438
167.449
167.46
167.471
167.482
167.493
167.504
167.515
167.526
167.537
167.549
167.56
167.571
167.582
167.593
167.603
167.614
167.624
167.634
167.644
167.653
167.662
167.67
167.678
167.684
167.69
167.695
167.699
167.708
167.816
168.421
170.58
175.953
166.723
166.725
166.726
166.727
166.729
166.732
166.734
166.737
166.741
166.745
166.749
166.753
166.757
166.762
166.767
166.772
166.778
166.783
166.789
166.795
166.801
166.807
166.814
166.821
166.827
166.835
166.842
166.849
166.857
166.865
166.872
166.88
166.888
166.896
166.904
166.912
166.92
166.927
166.935
166.942
166.949
166.956
166.962
166.969
166.975
166.981
166.986
166.992
166.997
167.002
167.007
167.012
167.017
167.022
167.026
167.031
167.035
167.039
167.043
167.048
167.052
167.056
167.059
167.063
167.067
167.07
167.074
167.077
167.08
167.083
167.085
167.088
167.09
167.092
167.094
167.095
167.097
167.098
167.098
167.098
167.098
167.098
167.105
167.125
167.17
167.266
167.522
168.316
170.576
175.738
166.745
166.756
166.763
166.771
166.778
166.785
166.792
166.798
166.805
166.811
166.818
166.824
166.83
166.837
166.843
166.849
166.856
166.862
166.868
166.875
166.881
166.887
166.894
166.9
166.907
166.913
166.92
166.926
166.933
166.94
166.946
166.953
166.96
166.966
166.973
166.979
166.986
166.992
166.998
167.004
167.01
167.016
167.022
167.028
167.033
167.039
167.044
167.049
167.054
167.059
167.064
167.068
167.073
167.077
167.081
167.085
167.089
167.092
167.096
167.099
167.102
167.105
167.108
167.11
167.113
167.115
167.117
167.119
167.121
167.123
167.124
167.126
167.127
167.128
167.129
167.13
167.131
167.131
167.131
167.132
167.134
167.142
167.164
167.211
167.296
167.438
167.719
168.462
170.537
175.407
166.757
166.769
166.777
166.786
166.794
166.802
166.81
166.817
166.825
166.832
166.839
166.847
166.854
166.861
166.867
166.874
166.881
166.888
166.895
166.901
166.908
166.914
166.921
166.928
166.934
166.941
166.948
166.954
166.961
166.967
166.974
166.981
166.987
166.994
167
167.007
167.013
167.019
167.026
167.032
167.038
167.044
167.05
167.055
167.061
167.066
167.072
167.077
167.082
167.086
167.091
167.095
167.1
167.104
167.107
167.111
167.115
167.118
167.121
167.124
167.127
167.129
167.132
167.134
167.136
167.138
167.14
167.142
167.144
167.145
167.147
167.149
167.15
167.151
167.152
167.153
167.154
167.154
167.156
167.159
167.166
167.182
167.214
167.273
167.366
167.503
167.747
168.404
170.338
175.033
166.767
166.78
166.787
166.796
166.804
166.812
166.819
166.827
166.835
166.842
166.849
166.856
166.864
166.871
166.878
166.884
166.891
166.898
166.905
166.912
166.919
166.926
166.932
166.939
166.946
166.953
166.96
166.967
166.973
166.98
166.987
166.994
167
167.007
167.014
167.02
167.027
167.033
167.039
167.045
167.051
167.057
167.063
167.068
167.074
167.079
167.084
167.089
167.094
167.098
167.102
167.106
167.11
167.114
167.117
167.12
167.123
167.126
167.129
167.132
167.134
167.136
167.139
167.141
167.143
167.145
167.146
167.148
167.15
167.151
167.153
167.154
167.154
167.155
167.155
167.155
167.156
167.157
167.159
167.164
167.174
167.192
167.226
167.282
167.366
167.483
167.693
168.294
170.139
174.7
166.778
166.79
166.797
166.806
166.814
166.821
166.829
166.836
166.844
166.851
166.858
166.865
166.872
166.879
166.886
166.893
166.9
166.907
166.914
166.921
166.928
166.935
166.942
166.95
166.957
166.964
166.971
166.978
166.985
166.992
166.999
167.006
167.012
167.019
167.026
167.032
167.038
167.045
167.051
167.057
167.062
167.068
167.073
167.079
167.084
167.088
167.093
167.097
167.102
167.106
167.11
167.113
167.117
167.12
167.123
167.126
167.129
167.131
167.134
167.136
167.138
167.14
167.142
167.144
167.145
167.147
167.149
167.15
167.151
167.152
167.152
167.152
167.152
167.151
167.15
167.15
167.149
167.15
167.153
167.159
167.168
167.185
167.215
167.265
167.339
167.441
167.631
168.194
169.962
174.367
166.788
166.8
166.807
166.815
166.823
166.831
166.838
166.845
166.853
166.86
166.867
166.874
166.881
166.888
166.896
166.903
166.91
166.917
166.924
166.932
166.939
166.946
166.954
166.961
166.968
166.975
166.982
166.989
166.996
167.003
167.01
167.017
167.024
167.03
167.036
167.043
167.049
167.055
167.06
167.066
167.071
167.076
167.081
167.086
167.091
167.095
167.099
167.103
167.107
167.111
167.114
167.117
167.12
167.123
167.126
167.128
167.13
167.132
167.134
167.136
167.138
167.139
167.141
167.142
167.143
167.145
167.146
167.146
167.146
167.146
167.145
167.144
167.142
167.14
167.138
167.137
167.136
167.137
167.14
167.144
167.152
167.167
167.192
167.237
167.304
167.399
167.576
168.106
169.77
173.92
166.798
166.81
166.817
166.825
166.832
166.84
166.847
166.855
166.862
166.869
166.877
166.884
166.892
166.899
166.906
166.914
166.921
166.929
166.936
166.944
166.951
166.959
166.966
166.973
166.98
166.988
166.995
167.002
167.008
167.015
167.022
167.028
167.035
167.041
167.047
167.052
167.058
167.063
167.069
167.074
167.079
167.083
167.088
167.092
167.096
167.099
167.103
167.106
167.109
167.112
167.115
167.118
167.12
167.122
167.124
167.126
167.127
167.129
167.13
167.131
167.132
167.133
167.134
167.135
167.136
167.136
167.136
167.136
167.135
167.134
167.131
167.129
167.126
167.123
167.12
167.118
167.117
167.117
167.119
167.122
167.128
167.14
167.163
167.203
167.268
167.361
167.532
168.02
169.516
173.208
166.808
166.819
166.826
166.834
166.842
166.85
166.858
166.865
166.873
166.88
166.888
166.896
166.903
166.911
166.919
166.927
166.935
166.943
166.95
166.958
166.966
166.973
166.981
166.988
166.996
167.003
167.01
167.017
167.023
167.03
167.036
167.043
167.049
167.055
167.06
167.066
167.071
167.076
167.081
167.086
167.091
167.095
167.099
167.103
167.106
167.11
167.113
167.115
167.118
167.12
167.123
167.125
167.126
167.128
167.129
167.131
167.132
167.133
167.134
167.134
167.135
167.135
167.136
167.136
167.136
167.136
167.135
167.134
167.132
167.13
167.127
167.123
167.12
167.116
167.113
167.111
167.109
167.109
167.11
167.112
167.117
167.128
167.148
167.185
167.244
167.333
167.507
168.025
169.6
173.443
166.818
166.829
166.837
166.845
166.853
166.861
166.869
166.877
166.885
166.893
166.903
166.912
166.922
166.931
166.941
166.95
166.96
166.969
166.978
166.987
166.995
167.004
167.012
167.02
167.027
167.035
167.042
167.049
167.056
167.062
167.069
167.075
167.082
167.087
167.093
167.099
167.104
167.109
167.114
167.119
167.124
167.128
167.132
167.136
167.14
167.143
167.146
167.149
167.151
167.153
167.156
167.157
167.159
167.16
167.162
167.163
167.164
167.165
167.165
167.166
167.166
167.167
167.167
167.167
167.167
167.166
167.165
167.164
167.162
167.159
167.156
167.153
167.149
167.146
167.143
167.141
167.139
167.138
167.139
167.14
167.144
167.152
167.167
167.194
167.242
167.347
167.635
168.461
170.565
174.957
166.828
166.84
166.848
166.857
166.865
166.873
166.881
166.889
166.898
166.907
166.916
166.926
166.936
166.946
166.956
166.965
166.975
166.984
166.993
167.002
167.011
167.019
167.027
167.035
167.043
167.05
167.057
167.064
167.07
167.077
167.083
167.089
167.095
167.101
167.107
167.112
167.118
167.123
167.128
167.132
167.137
167.141
167.146
167.15
167.153
167.157
167.16
167.163
167.166
167.169
167.171
167.174
167.176
167.177
167.179
167.181
167.182
167.183
167.184
167.185
167.186
167.187
167.187
167.187
167.187
167.187
167.186
167.184
167.182
167.179
167.176
167.172
167.169
167.166
167.163
167.16
167.159
167.158
167.158
167.159
167.161
167.167
167.176
167.196
167.254
167.428
167.902
169.024
171.373
175.606
166.84
166.853
166.86
166.869
166.878
166.886
166.894
166.902
166.911
166.919
166.929
166.939
166.948
166.958
166.967
166.977
166.986
166.994
167.003
167.011
167.019
167.027
167.034
167.042
167.049
167.055
167.062
167.068
167.074
167.08
167.085
167.091
167.096
167.101
167.106
167.111
167.116
167.12
167.124
167.128
167.132
167.136
167.14
167.143
167.147
167.15
167.153
167.156
167.158
167.161
167.163
167.166
167.168
167.17
167.172
167.173
167.175
167.176
167.178
167.179
167.179
167.18
167.18
167.18
167.18
167.179
167.177
167.175
167.173
167.17
167.166
167.162
167.158
167.155
167.151
167.148
167.146
167.145
167.144
167.144
167.146
167.149
167.156
167.181
167.265
167.499
168.047
169.166
171.279
174.948
166.852
166.865
166.873
166.882
166.89
166.898
166.907
166.914
166.922
166.931
166.94
166.949
166.958
166.967
166.976
166.985
166.993
167.001
167.009
167.016
167.024
167.031
167.037
167.044
167.05
167.055
167.061
167.066
167.072
167.076
167.081
167.086
167.091
167.095
167.099
167.103
167.107
167.111
167.114
167.118
167.121
167.124
167.127
167.13
167.133
167.136
167.138
167.141
167.143
167.146
167.148
167.15
167.152
167.154
167.155
167.157
167.158
167.16
167.161
167.161
167.162
167.162
167.162
167.161
167.16
167.158
167.156
167.153
167.15
167.147
167.143
167.138
167.134
167.13
167.126
167.123
167.12
167.119
167.118
167.118
167.119
167.122
167.132
167.165
167.262
167.5
168.006
168.994
170.889
174.348
166.865
166.877
166.885
166.893
166.901
166.909
166.917
166.924
166.932
166.939
166.948
166.956
166.965
166.973
166.981
166.988
166.996
167.003
167.01
167.017
167.023
167.029
167.035
167.041
167.046
167.051
167.056
167.06
167.065
167.069
167.073
167.077
167.081
167.085
167.088
167.092
167.095
167.098
167.101
167.104
167.107
167.11
167.113
167.116
167.119
167.121
167.124
167.126
167.129
167.131
167.133
167.135
167.137
167.139
167.14
167.142
167.143
167.144
167.144
167.145
167.145
167.144
167.143
167.142
167.14
167.137
167.135
167.132
167.128
167.124
167.12
167.115
167.111
167.106
167.102
167.099
167.097
167.096
167.095
167.095
167.096
167.1
167.112
167.147
167.241
167.455
167.905
168.808
170.619
174.04
166.875
166.887
166.894
166.902
166.909
166.916
166.923
166.93
166.936
166.943
166.951
166.959
166.966
166.973
166.981
166.987
166.994
167.001
167.007
167.013
167.018
167.023
167.028
167.033
167.038
167.042
167.046
167.05
167.054
167.057
167.061
167.065
167.068
167.071
167.075
167.078
167.081
167.084
167.087
167.09
167.093
167.096
167.099
167.102
167.104
167.107
167.11
167.113
167.115
167.118
167.12
167.122
167.124
167.126
167.127
167.129
167.13
167.13
167.13
167.13
167.13
167.128
167.127
167.125
167.122
167.119
167.116
167.113
167.109
167.104
167.1
167.095
167.09
167.086
167.082
167.08
167.078
167.077
167.076
167.076
167.078
167.082
167.094
167.127
167.212
167.406
167.823
168.687
170.461
173.843
166.882
166.893
166.899
166.906
166.913
166.919
166.925
166.931
166.937
166.943
166.949
166.956
166.963
166.969
166.975
166.981
166.987
166.993
166.998
167.003
167.008
167.013
167.017
167.021
167.025
167.029
167.033
167.036
167.04
167.043
167.046
167.05
167.053
167.056
167.059
167.062
167.066
167.069
167.072
167.075
167.078
167.081
167.085
167.088
167.091
167.095
167.098
167.101
167.104
167.106
167.109
167.111
167.113
167.115
167.116
167.117
167.118
167.118
167.118
167.117
167.116
167.114
167.112
167.109
167.106
167.103
167.099
167.095
167.091
167.087
167.082
167.077
167.073
167.069
167.065
167.063
167.061
167.06
167.06
167.06
167.062
167.066
167.077
167.107
167.184
167.366
167.764
168.603
170.348
173.69
166.885
166.894
166.9
166.906
166.911
166.917
166.922
166.927
166.932
166.937
166.943
166.949
166.955
166.96
166.966
166.971
166.976
166.981
166.986
166.991
166.995
166.999
167.003
167.007
167.011
167.014
167.017
167.021
167.024
167.027
167.031
167.034
167.037
167.04
167.044
167.047
167.05
167.054
167.057
167.06
167.064
167.068
167.072
167.075
167.079
167.083
167.086
167.089
167.093
167.095
167.098
167.1
167.102
167.104
167.105
167.106
167.106
167.106
167.105
167.104
167.102
167.1
167.097
167.094
167.091
167.087
167.083
167.079
167.075
167.07
167.066
167.061
167.057
167.053
167.051
167.048
167.047
167.046
167.046
167.047
167.048
167.051
167.061
167.088
167.16
167.331
167.715
168.537
170.266
173.599
166.883
166.891
166.895
166.901
166.905
166.91
166.914
166.919
166.923
166.927
166.933
166.938
166.943
166.948
166.953
166.958
166.963
166.967
166.972
166.976
166.98
166.984
166.988
166.991
166.995
166.998
167.001
167.005
167.008
167.011
167.014
167.017
167.02
167.024
167.027
167.03
167.034
167.037
167.041
167.045
167.049
167.053
167.057
167.061
167.065
167.069
167.073
167.077
167.08
167.083
167.086
167.088
167.09
167.092
167.093
167.094
167.094
167.093
167.092
167.091
167.089
167.086
167.083
167.08
167.076
167.073
167.069
167.065
167.061
167.056
167.052
167.048
167.044
167.041
167.038
167.036
167.035
167.035
167.035
167.035
167.036
167.039
167.047
167.071
167.138
167.301
167.674
168.485
170.206
173.544
166.877
166.884
166.888
166.893
166.897
166.901
166.905
166.908
166.912
166.916
166.921
166.925
166.93
166.935
166.939
166.944
166.948
166.952
166.956
166.96
166.964
166.967
166.97
166.973
166.977
166.979
166.982
166.985
166.988
166.991
166.994
166.997
167
167.003
167.006
167.009
167.012
167.016
167.02
167.024
167.028
167.033
167.037
167.042
167.047
167.051
167.056
167.06
167.063
167.067
167.07
167.072
167.075
167.076
167.077
167.078
167.078
167.077
167.076
167.074
167.072
167.069
167.066
167.063
167.059
167.055
167.052
167.048
167.044
167.039
167.035
167.032
167.028
167.025
167.022
167.021
167.019
167.019
167.018
167.018
167.019
167.021
167.028
167.05
167.112
167.265
167.613
168.371
170.007
173.253
166.87
166.875
166.879
166.883
166.887
166.89
166.894
166.897
166.9
166.903
166.907
166.91
166.913
166.916
166.919
166.922
166.925
166.928
166.931
166.934
166.937
166.94
166.943
166.946
166.948
166.951
166.954
166.957
166.96
166.963
166.966
166.968
166.971
166.974
166.977
166.981
166.984
166.987
166.991
166.995
166.999
167.003
167.007
167.011
167.015
167.018
167.022
167.025
167.029
167.031
167.034
167.037
167.039
167.04
167.041
167.042
167.042
167.041
167.04
167.038
167.036
167.034
167.031
167.027
167.024
167.02
167.017
167.013
167.009
167.005
167.001
166.998
166.994
166.991
166.989
166.987
166.986
166.985
166.985
166.985
166.986
166.989
166.996
167.019
167.077
167.21
167.494
168.117
169.557
172.65
166.862
166.867
166.871
166.874
166.878
166.881
166.884
166.887
166.89
166.893
166.895
166.898
166.901
166.904
166.906
166.909
166.912
166.914
166.917
166.92
166.923
166.926
166.929
166.931
166.934
166.937
166.94
166.943
166.945
166.948
166.951
166.954
166.957
166.96
166.963
166.966
166.969
166.973
166.977
166.98
166.984
166.988
166.991
166.995
166.998
167.001
167.003
167.006
167.008
167.01
167.011
167.013
167.014
167.014
167.014
167.014
167.013
167.012
167.01
167.008
167.005
167.002
166.999
166.996
166.992
166.988
166.985
166.981
166.977
166.974
166.97
166.967
166.964
166.961
166.959
166.958
166.957
166.956
166.956
166.957
166.958
166.961
166.969
166.99
167.04
167.139
167.341
167.831
169.148
172.278
166.855
166.86
166.863
166.867
166.87
166.873
166.876
166.879
166.881
166.884
166.887
166.889
166.892
166.895
166.898
166.9
166.903
166.906
166.909
166.912
166.915
166.918
166.92
166.923
166.926
166.929
166.932
166.935
166.938
166.94
166.943
166.946
166.949
166.952
166.955
166.958
166.962
166.965
166.969
166.973
166.977
166.98
166.983
166.987
166.989
166.992
166.994
166.996
166.998
166.999
167
167.001
167.001
167.001
167
166.999
166.998
166.996
166.994
166.991
166.988
166.985
166.982
166.978
166.974
166.97
166.967
166.963
166.96
166.956
166.953
166.95
166.947
166.944
166.942
166.94
166.939
166.939
166.939
166.939
166.939
166.94
166.946
166.963
167
167.068
167.215
167.637
168.911
172.053
166.85
166.854
166.857
166.861
166.864
166.867
166.869
166.872
166.875
166.878
166.88
166.883
166.886
166.888
166.891
166.894
166.897
166.9
166.902
166.905
166.908
166.911
166.914
166.917
166.92
166.923
166.926
166.929
166.931
166.934
166.937
166.94
166.943
166.946
166.949
166.952
166.956
166.959
166.963
166.967
166.97
166.974
166.977
166.98
166.983
166.985
166.987
166.989
166.99
166.991
166.992
166.993
166.992
166.992
166.991
166.99
166.988
166.986
166.984
166.981
166.978
166.974
166.971
166.967
166.963
166.96
166.956
166.952
166.949
166.945
166.942
166.938
166.935
166.931
166.929
166.927
166.925
166.924
166.923
166.921
166.918
166.915
166.915
166.924
166.95
167.002
167.127
167.51
168.681
171.543
166.846
166.85
166.853
166.856
166.859
166.862
166.865
166.867
166.87
166.873
166.875
166.878
166.88
166.883
166.886
166.889
166.891
166.894
166.897
166.9
166.903
166.906
166.909
166.912
166.914
166.917
166.92
166.923
166.925
166.928
166.931
166.934
166.937
166.94
166.943
166.946
166.95
166.953
166.957
166.96
166.964
166.967
166.97
166.973
166.975
166.977
166.979
166.981
166.982
166.983
166.983
166.984
166.983
166.983
166.982
166.98
166.978
166.976
166.974
166.97
166.967
166.963
166.96
166.955
166.951
166.947
166.943
166.939
166.935
166.93
166.926
166.921
166.917
166.913
166.909
166.906
166.903
166.9
166.897
166.892
166.884
166.875
166.868
166.869
166.888
166.935
167.047
167.376
168.367
170.794
166.842
166.846
166.849
166.852
166.855
166.858
166.861
166.863
166.866
166.868
166.871
166.873
166.876
166.879
166.881
166.884
166.887
166.889
166.892
166.895
166.898
166.901
166.904
166.906
166.909
166.912
166.915
166.917
166.92
166.923
166.926
166.929
166.932
166.935
166.938
166.941
166.944
166.947
166.95
166.953
166.956
166.959
166.961
166.963
166.965
166.967
166.968
166.969
166.97
166.97
166.97
166.97
166.969
166.968
166.967
166.965
166.963
166.96
166.957
166.953
166.949
166.945
166.94
166.936
166.931
166.926
166.921
166.916
166.911
166.906
166.901
166.896
166.891
166.887
166.882
166.878
166.873
166.868
166.861
166.851
166.838
166.823
166.81
166.807
166.821
166.862
166.955
167.218
168.03
170.099
166.839
166.843
166.846
166.849
166.852
166.854
166.857
166.86
166.862
166.864
166.867
166.869
166.872
166.874
166.877
166.88
166.882
166.885
166.888
166.89
166.893
166.896
166.899
166.901
166.904
166.907
166.91
166.912
166.915
166.917
166.919
166.922
166.924
166.927
166.932
166.937
166.941
166.945
166.946
166.947
166.947
166.948
166.949
166.95
166.951
166.951
166.952
166.952
166.952
166.952
166.951
166.95
166.949
166.947
166.945
166.943
166.94
166.937
166.933
166.929
166.925
166.92
166.915
166.91
166.904
166.899
166.894
166.889
166.883
166.878
166.873
166.868
166.863
166.857
166.852
166.846
166.84
166.831
166.82
166.806
166.788
166.769
166.753
166.747
166.758
166.791
166.861
167.065
167.746
169.58
166.836
166.84
166.843
166.846
166.848
166.851
166.853
166.856
166.858
166.86
166.863
166.865
166.868
166.87
166.873
166.875
166.878
166.88
166.883
166.886
166.888
166.891
166.894
166.896
166.899
166.902
166.904
166.906
166.908
166.91
166.913
166.916
166.918
166.918
166.913
166.904
166.894
166.891
166.897
166.91
166.923
166.932
166.933
166.932
166.932
166.932
166.932
166.931
166.931
166.93
166.929
166.927
166.926
166.923
166.921
166.918
166.914
166.911
166.906
166.902
166.897
166.892
166.887
166.882
166.876
166.871
166.866
166.861
166.856
166.851
166.846
166.841
166.835
166.829
166.823
166.815
166.805
166.793
166.779
166.761
166.741
166.721
166.705
166.698
166.707
166.731
166.78
166.942
167.536
169.213
166.833
166.837
166.84
166.842
166.845
166.847
166.85
166.852
166.854
166.857
166.859
166.861
166.864
166.866
166.868
166.871
166.873
166.876
166.878
166.881
166.884
166.886
166.889
166.892
166.894
166.896
166.899
166.902
166.906
166.91
166.916
166.921
166.927
166.937
166.962
167.008
167.064
167.095
167.076
167.024
166.959
166.907
166.903
166.912
166.909
166.909
166.909
166.908
166.907
166.906
166.904
166.902
166.9
166.898
166.895
166.891
166.888
166.884
166.879
166.875
166.87
166.865
166.86
166.855
166.85
166.845
166.841
166.836
166.832
166.827
166.822
166.817
166.811
166.803
166.795
166.784
166.772
166.758
166.741
166.723
166.703
166.684
166.67
166.663
166.67
166.687
166.721
166.854
167.389
168.954
166.83
166.834
166.836
166.839
166.841
166.844
166.846
166.848
166.851
166.853
166.855
166.857
166.86
166.862
166.864
166.867
166.869
166.872
166.874
166.877
166.879
166.882
166.884
166.887
166.889
166.892
166.896
166.902
166.908
166.913
166.917
166.917
166.92
166.939
166.991
167.074
167.151
167.162
167.094
167.007
166.936
166.886
166.876
166.885
166.883
166.883
166.883
166.882
166.882
166.88
166.879
166.877
166.874
166.872
166.869
166.865
166.862
166.858
166.854
166.85
166.845
166.841
166.836
166.832
166.828
166.824
166.82
166.816
166.811
166.807
166.802
166.796
166.789
166.78
166.769
166.757
166.743
166.727
166.711
166.693
166.676
166.659
166.647
166.642
166.646
166.658
166.682
166.795
167.288
168.772
166.827
166.83
166.833
166.836
166.838
166.841
166.843
166.845
166.847
166.849
166.852
166.854
166.856
166.858
166.861
166.863
166.865
166.868
166.87
166.873
166.875
166.878
166.88
166.883
166.886
166.891
166.895
166.898
166.896
166.886
166.866
166.841
166.821
166.828
166.875
166.951
167.001
166.968
166.875
166.833
166.856
166.869
166.856
166.855
166.86
166.859
166.86
166.859
166.859
166.858
166.856
166.854
166.852
166.849
166.846
166.843
166.84
166.836
166.833
166.829
166.825
166.821
166.817
166.814
166.81
166.807
166.803
166.8
166.796
166.791
166.785
166.778
166.769
166.759
166.747
166.733
166.719
166.704
166.689
166.674
166.659
166.645
166.634
166.629
166.632
166.64
166.657
166.756
167.222
168.652
166.824
166.828
166.83
166.833
166.835
166.838
166.84
166.842
166.844
166.846
166.848
166.851
166.853
166.855
166.857
166.86
166.862
166.865
166.867
166.869
166.872
166.874
166.878
166.882
166.888
166.891
166.888
166.874
166.845
166.799
166.742
166.687
166.654
166.667
166.736
166.834
166.884
166.83
166.727
166.726
166.814
166.857
166.84
166.835
166.845
166.843
166.845
166.844
166.844
166.843
166.841
166.839
166.836
166.834
166.831
166.827
166.824
166.821
166.817
166.814
166.811
166.807
166.804
166.801
166.798
166.795
166.792
166.788
166.784
166.779
166.772
166.764
166.753
166.742
166.729
166.715
166.702
166.688
166.675
166.662
166.649
166.637
166.628
166.623
166.625
166.629
166.641
166.731
167.181
168.586
166.821
166.825
166.828
166.83
166.833
166.835
166.837
166.839
166.842
166.844
166.846
166.848
166.85
166.852
166.855
166.857
166.859
166.862
166.864
166.866
166.869
166.873
166.878
166.884
166.888
166.884
166.864
166.82
166.753
166.669
166.583
166.513
166.48
166.495
166.556
166.631
166.677
166.678
166.685
166.753
166.834
166.855
166.841
166.839
166.847
166.844
166.845
166.844
166.842
166.84
166.837
166.834
166.831
166.827
166.824
166.82
166.816
166.813
166.809
166.806
166.803
166.799
166.796
166.794
166.791
166.788
166.785
166.781
166.776
166.77
166.762
166.752
166.741
166.729
166.716
166.704
166.691
166.68
166.668
166.657
166.646
166.635
166.626
166.621
166.62
166.622
166.63
166.716
167.163
168.57
166.819
166.823
166.825
166.828
166.83
166.833
166.835
166.837
166.839
166.841
166.844
166.846
166.848
166.85
166.852
166.855
166.857
166.859
166.861
166.863
166.867
166.872
166.88
166.889
166.893
166.881
166.844
166.776
166.68
166.571
166.471
166.4
166.369
166.382
166.432
166.504
166.585
166.669
166.755
166.827
166.86
166.858
166.854
166.857
166.86
166.859
166.859
166.856
166.853
166.85
166.845
166.84
166.836
166.831
166.826
166.821
166.817
166.813
166.809
166.805
166.801
166.798
166.795
166.792
166.789
166.786
166.782
166.778
166.772
166.765
166.756
166.745
166.733
166.721
166.709
166.697
166.686
166.676
166.666
166.656
166.645
166.635
166.625
166.619
166.617
166.616
166.622
166.709
167.165
168.597
166.817
166.821
166.823
166.826
166.828
166.831
166.833
166.835
166.837
166.839
166.841
166.844
166.846
166.848
166.85
166.853
166.855
166.857
166.858
166.861
166.865
166.873
166.883
166.891
166.887
166.861
166.802
166.712
166.601
166.489
166.401
166.355
166.36
166.412
166.497
166.599
166.701
166.787
166.846
166.868
166.866
166.863
166.869
166.875
166.879
166.879
166.878
166.875
166.87
166.864
166.858
166.852
166.846
166.84
166.834
166.829
166.824
166.819
166.814
166.81
166.806
166.802
166.799
166.796
166.792
166.788
166.784
166.779
166.772
166.763
166.753
166.742
166.731
166.719
166.707
166.696
166.686
166.677
166.667
166.657
166.647
166.636
166.625
166.617
166.613
166.61
166.616
166.709
167.187
168.664
166.815
166.819
166.821
166.824
166.826
166.829
166.831
166.833
166.835
166.837
166.84
166.842
166.844
166.846
166.848
166.851
166.853
166.855
166.858
166.862
166.867
166.873
166.876
166.873
166.859
166.83
166.787
166.738
166.694
166.671
166.682
166.726
166.789
166.844
166.872
166.872
166.874
166.911
166.911
166.906
166.903
166.909
166.918
166.917
166.906
166.897
166.886
166.879
166.875
166.871
166.867
166.861
166.856
166.85
166.844
166.838
166.833
166.828
166.823
166.819
166.814
166.811
166.807
166.803
166.799
166.794
166.789
166.783
166.775
166.766
166.755
166.744
166.732
166.721
166.71
166.7
166.69
166.681
166.671
166.661
166.65
166.637
166.625
166.614
166.608
166.604
166.613
166.718
167.225
168.756
166.814
166.817
166.82
166.822
166.825
166.827
166.829
166.831
166.834
166.836
166.838
166.84
166.842
166.844
166.847
166.849
166.852
166.854
166.855
166.855
166.854
166.857
166.867
166.888
166.92
166.953
166.977
166.982
166.965
166.922
166.837
166.693
166.493
166.278
166.139
166.167
166.902
166.884
166.876
166.871
166.867
166.864
166.86
166.856
166.852
166.847
166.842
166.837
166.833
166.829
166.825
166.821
166.818
166.814
166.81
166.807
166.803
166.798
166.792
166.785
166.777
166.768
166.758
166.746
166.735
166.724
166.714
166.704
166.695
166.686
166.676
166.665
166.652
166.638
166.623
166.61
166.602
166.598
166.612
166.732
167.265
168.825
166.812
166.815
166.818
166.821
166.823
166.825
166.828
166.83
166.832
166.834
166.836
166.838
166.841
166.843
166.845
166.847
166.849
166.849
166.848
166.849
166.853
166.862
166.875
166.881
166.874
166.852
166.82
166.766
166.646
166.404
166.04
165.654
165.36
165.25
165.431
165.887
166.884
166.866
166.861
166.857
166.853
166.85
166.847
166.843
166.84
166.836
166.833
166.829
166.826
166.823
166.82
166.817
166.814
166.811
166.808
166.804
166.8
166.796
166.79
166.784
166.776
166.767
166.757
166.747
166.737
166.726
166.717
166.707
166.698
166.689
166.678
166.666
166.652
166.635
166.618
166.603
166.594
166.593
166.613
166.742
167.277
168.803
166.811
166.814
166.817
166.819
166.821
166.824
166.826
166.828
166.83
166.832
166.834
166.837
166.839
166.841
166.843
166.845
166.847
166.85
166.856
166.868
166.887
166.912
166.942
166.978
167.005
166.971
166.777
166.325
165.639
164.973
164.606
164.44
164.441
164.714
165.219
165.864
166.868
166.852
166.848
166.844
166.841
166.838
166.835
166.832
166.83
166.827
166.825
166.822
166.82
166.817
166.815
166.813
166.81
166.807
166.804
166.801
166.797
166.793
166.788
166.781
166.774
166.766
166.757
166.748
166.738
166.729
166.72
166.71
166.701
166.691
166.68
166.666
166.65
166.631
166.612
166.596
166.586
166.586
166.609
166.736
167.251
168.716
166.809
166.813
166.815
166.818
166.82
166.822
166.825
166.827
166.829
166.831
166.833
166.835
166.837
166.839
166.842
166.845
166.85
166.858
166.869
166.884
166.9
166.921
166.959
167.02
167.068
166.967
166.499
165.538
164.311
163.468
163.433
163.717
164.03
164.547
165.155
165.834
166.856
166.843
166.839
166.836
166.833
166.831
166.828
166.826
166.824
166.822
166.821
166.819
166.817
166.815
166.813
166.811
166.808
166.806
166.803
166.8
166.796
166.792
166.787
166.781
166.774
166.767
166.759
166.75
166.741
166.733
166.724
166.714
166.705
166.694
166.681
166.666
166.648
166.627
166.606
166.589
166.579
166.579
166.599
166.715
167.203
168.625
166.808
166.811
166.814
166.816
166.819
166.821
166.823
166.825
166.827
166.829
166.831
166.834
166.837
166.84
166.843
166.845
166.844
166.839
166.828
166.811
166.792
166.781
166.798
166.847
166.85
166.61
165.884
164.621
163.221
162.489
162.785
163.341
163.77
164.345
164.974
165.671
166.848
166.836
166.833
166.831
166.829
166.827
166.825
166.823
166.822
166.82
166.819
166.818
166.816
166.815
166.813
166.811
166.809
166.806
166.803
166.8
166.796
166.792
166.788
166.782
166.776
166.77
166.763
166.755
166.747
166.738
166.729
166.72
166.709
166.697
166.683
166.666
166.647
166.625
166.603
166.584
166.573
166.57
166.581
166.684
167.155
168.569
166.807
166.81
166.813
166.815
166.818
166.82
166.822
166.824
166.826
166.828
166.831
166.835
166.84
166.843
166.841
166.827
166.798
166.752
166.693
166.627
166.572
166.553
166.6
166.7
166.742
166.481
165.65
164.237
162.727
162.018
162.45
163.08
163.487
164.059
164.708
165.428
166.843
166.834
166.831
166.829
166.827
166.825
166.823