/*--------------------------------*- C++ -*----------------------------------*\
| =========                 |                                                 |
| \\      /  F ield         | OpenFOAM: The Open Source CFD Toolbox           |
|  \\    /   O peration     | Version:  v2012                                 |
|   \\  /    A nd           | Website:  www.openfoam.com                      |
|    \\/     M anipulation  |                                                 |
\*---------------------------------------------------------------------------*/
FoamFile
{
    version     2.0;
    format      ascii;
    class       volScalarField;
    location    "150/air";
    object      k;
}
// * * * * * * * * * * * * * * * * * * * * * * * * * * * * * * * * * * * * * //

dimensions      [0 2 -2 0 0 0 0];


internalField   nonuniform List<scalar> 
287104
(
0.0833914
0.0716833
0.0632791
0.0569525
0.0520329
0.0481124
0.0449257
0.0422926
0.0400865
0.0382162
0.0366139
0.0352287
0.0340214
0.0329615
0.0320246
0.0311916
0.0304466
0.0297769
0.0291719
0.0286229
0.0281225
0.0276645
0.0272436
0.0268552
0.0264955
0.026161
0.0258488
0.0255561
0.0252807
0.0250202
0.0247727
0.0245363
0.0243093
0.0240899
0.0238766
0.0236679
0.0234625
0.0232591
0.0230568
0.0228546
0.0226519
0.0224483
0.0222437
0.0220383
0.0218324
0.0216268
0.0214224
0.0212205
0.0210222
0.0208293
0.0206432
0.0204655
0.0202979
0.0201418
0.0199986
0.0198693
0.0197547
0.0196553
0.0195715
0.0195031
0.0194497
0.0194105
0.0193847
0.0193711
0.0193684
0.0193752
0.01939
0.0194114
0.019438
0.0194686
0.0195019
0.0195371
0.0195732
0.0196096
0.0196457
0.0196813
0.019716
0.0197497
0.0197826
0.0198147
0.0198463
0.0198775
0.0199084
0.019939
0.0199688
0.0199966
0.0200201
0.0200334
0.0200346
0.0199347
0.0833881
0.0716769
0.0632703
0.0569418
0.0520209
0.0480993
0.0449118
0.042278
0.0400714
0.0382007
0.0365982
0.0352129
0.0340057
0.0329459
0.0320094
0.0311766
0.030432
0.0297628
0.0291583
0.0286098
0.0281099
0.0276524
0.027232
0.0268442
0.026485
0.0261511
0.0258394
0.0255473
0.0252725
0.0250126
0.0247657
0.0245299
0.0243034
0.0240846
0.0238719
0.0236637
0.0234588
0.023256
0.0230542
0.0228526
0.0226506
0.0224478
0.0222443
0.02204
0.0218356
0.0216317
0.0214293
0.0212296
0.0210339
0.0208437
0.0206606
0.0204862
0.0203219
0.0201692
0.0200293
0.0199032
0.0197916
0.019695
0.0196135
0.0195468
0.0194946
0.0194561
0.0194303
0.019416
0.0194119
0.0194166
0.0194288
0.019447
0.01947
0.0194965
0.0195255
0.019556
0.0195873
0.0196187
0.0196498
0.0196803
0.0197098
0.0197386
0.0197664
0.0197936
0.0198202
0.0198465
0.0198727
0.0198986
0.0199236
0.0199468
0.0199659
0.019975
0.0199722
0.0198703
0.0833867
0.0716741
0.0632664
0.056937
0.0520153
0.048093
0.0449048
0.0422705
0.0400635
0.0381923
0.0365896
0.0352042
0.033997
0.0329373
0.032001
0.0311685
0.0304242
0.0297552
0.0291511
0.028603
0.0281035
0.0276464
0.0272265
0.0268392
0.0264805
0.0261472
0.0258362
0.0255448
0.0252706
0.0250115
0.0247654
0.0245305
0.024305
0.0240872
0.0238754
0.0236683
0.0234646
0.0232629
0.0230623
0.022862
0.0226614
0.0224601
0.0222581
0.0220556
0.021853
0.0216511
0.0214509
0.0212535
0.0210604
0.0208731
0.020693
0.0205218
0.020361
0.020212
0.0200759
0.0199539
0.0198465
0.0197542
0.0196771
0.019615
0.0195673
0.0195333
0.0195119
0.0195019
0.0195019
0.0195104
0.0195262
0.0195476
0.0195736
0.0196028
0.0196343
0.0196672
0.0197008
0.0197346
0.019768
0.0198009
0.0198331
0.0198646
0.0198955
0.0199258
0.0199559
0.0199859
0.0200159
0.0200459
0.0200755
0.0201035
0.0201281
0.0201433
0.0201473
0.0200574
0.0833854
0.0716711
0.063262
0.0569313
0.0520083
0.0480848
0.0448955
0.0422601
0.0400522
0.0381804
0.0365772
0.0351915
0.0339842
0.0329245
0.0319883
0.031156
0.0304119
0.0297432
0.0291393
0.0285914
0.0280922
0.0276353
0.0272157
0.0268286
0.0264703
0.0261373
0.0258267
0.0255358
0.0252622
0.0250038
0.0247585
0.0245244
0.0242998
0.024083
0.0238724
0.0236665
0.023464
0.0232636
0.0230643
0.0228654
0.0226661
0.0224662
0.0222656
0.0220644
0.0218632
0.0216627
0.0214638
0.0212677
0.0210759
0.0208899
0.0207111
0.0205413
0.0203819
0.0202344
0.0201
0.0199796
0.0198742
0.019784
0.0197093
0.0196499
0.0196051
0.0195742
0.0195561
0.0195495
0.0195528
0.0195646
0.0195832
0.0196075
0.0196361
0.0196681
0.0197025
0.0197386
0.0197757
0.0198132
0.0198509
0.0198884
0.0199256
0.0199625
0.0199992
0.0200356
0.0200722
0.020109
0.0201461
0.0201836
0.0202211
0.0202575
0.020291
0.0203161
0.0203309
0.0202581
0.0833841
0.0716685
0.0632581
0.0569263
0.0520022
0.0480776
0.0448872
0.0422509
0.040042
0.0381693
0.0365655
0.0351794
0.033972
0.0329124
0.0319763
0.0311443
0.0304005
0.0297321
0.0291285
0.0285809
0.0280819
0.0276254
0.027206
0.0268192
0.0264612
0.0261287
0.0258185
0.0255282
0.0252553
0.0249976
0.0247531
0.02452
0.0242964
0.0240808
0.0238714
0.0236669
0.0234658
0.0232669
0.0230692
0.0228718
0.0226741
0.0224758
0.0222768
0.0220772
0.0218775
0.0216785
0.0214811
0.0212866
0.0210963
0.0209118
0.0207346
0.0205664
0.0204088
0.0202632
0.0201309
0.0200131
0.0199105
0.0198237
0.0197529
0.0196979
0.0196576
0.0196311
0.019617
0.0196138
0.0196198
0.0196336
0.0196539
0.0196793
0.0197087
0.0197412
0.0197761
0.0198126
0.0198503
0.0198888
0.0199277
0.0199669
0.0200063
0.0200458
0.0200854
0.0201253
0.0201654
0.020206
0.020247
0.0202883
0.0203294
0.0203694
0.0204061
0.0204349
0.0204542
0.0203923
0.0833829
0.0716659
0.0632541
0.0569208
0.0519954
0.0480694
0.0448777
0.0422399
0.0400298
0.0381562
0.0365518
0.0351657
0.0339585
0.0328993
0.0319636
0.031132
0.0303886
0.0297205
0.0291171
0.0285696
0.0280707
0.0276143
0.027195
0.0268083
0.0264506
0.0261183
0.0258085
0.0255187
0.0252464
0.0249896
0.0247461
0.0245142
0.024292
0.0240778
0.0238701
0.0236673
0.0234682
0.0232713
0.0230757
0.0228806
0.0226852
0.0224891
0.0222924
0.022095
0.0218976
0.0217007
0.0215054
0.021313
0.0211247
0.0209422
0.020767
0.0206009
0.0204455
0.0203023
0.0201727
0.0200579
0.0199589
0.019876
0.0198088
0.019757
0.0197195
0.0196951
0.0196824
0.01968
0.0196864
0.0197002
0.0197202
0.0197452
0.0197742
0.0198063
0.0198408
0.019877
0.0199145
0.0199529
0.0199919
0.0200313
0.0200709
0.0201108
0.0201509
0.0201911
0.0202315
0.0202721
0.0203131
0.0203546
0.0203961
0.0204368
0.0204747
0.0205051
0.0205263
0.0204721
0.0833817
0.0716632
0.0632501
0.0569154
0.0519885
0.0480609
0.0448673
0.0422277
0.0400155
0.0381399
0.0365339
0.0351471
0.0339397
0.0328807
0.0319455
0.0311144
0.0303715
0.0297038
0.0291008
0.0285536
0.0280549
0.0275986
0.0271795
0.0267931
0.0264356
0.0261037
0.0257946
0.0255055
0.0252342
0.0249786
0.0247366
0.0245064
0.0242861
0.0240742
0.0238689
0.0236688
0.0234726
0.0232789
0.0230867
0.022895
0.0227032
0.0225109
0.0223179
0.0221243
0.0219306
0.0217376
0.0215461
0.0213574
0.0211729
0.0209942
0.020823
0.0206611
0.0205104
0.0203722
0.0202477
0.0201379
0.0200433
0.0199641
0.0198997
0.0198494
0.0198124
0.0197875
0.0197736
0.0197693
0.0197734
0.0197847
0.0198022
0.0198246
0.0198511
0.0198808
0.0199132
0.0199474
0.0199833
0.0200202
0.020058
0.0200965
0.0201355
0.020175
0.0202147
0.0202545
0.0202944
0.0203343
0.0203745
0.0204151
0.0204559
0.0204961
0.0205341
0.0205655
0.0205873
0.0205392
0.0833805
0.0716606
0.063246
0.0569098
0.0519812
0.0480518
0.0448562
0.0422143
0.0399998
0.0381223
0.0365157
0.0351295
0.0339233
0.0328655
0.0319312
0.0311006
0.0303577
0.0296896
0.0290858
0.0285375
0.0280375
0.0275798
0.0271593
0.0267716
0.0264129
0.0260801
0.0257704
0.0254812
0.0252102
0.0249554
0.0247148
0.0244865
0.0242686
0.0240594
0.0238574
0.023661
0.0234689
0.0232797
0.0230923
0.0229057
0.0227194
0.0225327
0.0223456
0.0221579
0.0219698
0.0217822
0.0215963
0.0214135
0.0212354
0.0210635
0.0208994
0.0207449
0.0206012
0.0204696
0.0203509
0.0202458
0.0201547
0.0200774
0.0200137
0.0199631
0.0199249
0.0198981
0.0198817
0.0198746
0.0198757
0.0198839
0.0198981
0.0199174
0.0199409
0.0199677
0.0199973
0.020029
0.0200624
0.0200972
0.0201332
0.0201701
0.0202078
0.020246
0.0202846
0.0203231
0.0203611
0.0203988
0.0204368
0.0204755
0.0205147
0.020554
0.0205917
0.0206243
0.0206478
0.0206062
0.0833794
0.071658
0.0632418
0.0569039
0.0519732
0.0480412
0.0448423
0.0421959
0.0399752
0.03809
0.036487
0.0351162
0.0339301
0.032891
0.0319701
0.0311462
0.030403
0.0297287
0.029114
0.0285516
0.0280356
0.0275611
0.0271241
0.0267208
0.0263481
0.0260031
0.0256834
0.0253863
0.0251095
0.0248509
0.0246083
0.0243795
0.0241623
0.0239548
0.0237552
0.0235621
0.023374
0.0231895
0.0230075
0.0228267
0.0226459
0.0224646
0.0222826
0.0220998
0.0219169
0.0217348
0.0215548
0.0213783
0.0212066
0.0210413
0.0208838
0.0207358
0.0205984
0.0204728
0.02036
0.0202606
0.0201749
0.0201028
0.0200443
0.0199986
0.0199651
0.019943
0.019931
0.0199283
0.0199336
0.0199458
0.019964
0.0199871
0.0200142
0.0200446
0.0200776
0.0201126
0.0201492
0.020187
0.0202258
0.0202655
0.020306
0.0203473
0.0203891
0.0204308
0.0204706
0.0205088
0.0205465
0.0205844
0.0206227
0.020661
0.0206981
0.0207313
0.0207591
0.020734
0.0833782
0.0716553
0.0632376
0.056898
0.0519653
0.0480308
0.0448286
0.0421783
0.0399518
0.0380629
0.0374654
0.0371504
0.036702
0.0360475
0.0352264
0.0343045
0.033341
0.0323801
0.0314515
0.0305741
0.0297584
0.0290093
0.028328
0.0277128
0.0271603
0.0266659
0.0262243
0.0258295
0.0254752
0.0251545
0.0248601
0.0245846
0.0243206
0.0240611
0.0237986
0.0235584
0.0233418
0.0231408
0.0229494
0.0227635
0.0225804
0.022398
0.0222156
0.0220354
0.0218591
0.0216877
0.0215216
0.0213618
0.021209
0.0210643
0.0209287
0.0208033
0.020689
0.0205866
0.0204969
0.0204201
0.0203564
0.0203058
0.0202678
0.020242
0.0202274
0.0202231
0.0202283
0.0202417
0.0202623
0.0202891
0.0203211
0.0203575
0.0203974
0.0204401
0.0204853
0.0205323
0.0205809
0.0206309
0.0206821
0.0207346
0.0207883
0.0208432
0.0208995
0.0209564
0.0209676
0.0209682
0.0209716
0.0209809
0.0209954
0.0210132
0.0210308
0.0210423
0.021036
0.0209546
0.0833771
0.0716527
0.0632333
0.0568917
0.0519563
0.048018
0.0448093
0.0421473
0.0398892
0.0381154
0.11833
0.141712
0.141426
0.132995
0.122719
0.112887
0.104212
0.0968204
0.090634
0.0855195
0.0813387
0.0779648
0.0752844
0.0731959
0.0716067
0.0704311
0.069589
0.0690064
0.0686149
0.0683534
0.0681684
0.0680144
0.0678548
0.0676632
0.0674209
0.0671282
0.0668091
0.0664755
0.0661308
0.0657763
0.0654136
0.0650398
0.0646576
0.0642656
0.0638675
0.0634725
0.0630887
0.0627227
0.0623789
0.0620597
0.0617668
0.0615015
0.0612644
0.0610555
0.0608735
0.0607169
0.0605833
0.0604704
0.0603755
0.0602959
0.0602287
0.0601711
0.0601204
0.0600743
0.0600304
0.059987
0.0599429
0.0598972
0.0598496
0.0598007
0.0597513
0.059703
0.0596584
0.0596218
0.0595993
0.0595999
0.0596397
0.0597406
0.0600002
0.0602544
0.0414038
0.0322081
0.0272977
0.0245446
0.0229501
0.0220089
0.0214464
0.021102
0.0208773
0.0206345
0.0833759
0.0716502
0.0632293
0.056886
0.0519486
0.0480079
0.0447961
0.0421302
0.0398669
0.0380878
0.118327
0.141762
0.141414
0.132842
0.12239
0.11237
0.103508
0.0959381
0.089587
0.0843235
0.0800114
0.0765252
0.0737533
0.0715953
0.0699594
0.0687596
0.0679148
0.0673485
0.0669893
0.0667722
0.0666394
0.0665415
0.0664377
0.0662964
0.0660947
0.0658174
0.0654569
0.0650108
0.0644808
0.0638714
0.0631899
0.0624524
0.0616707
0.0608577
0.0600284
0.0591982
0.058382
0.0575916
0.0568372
0.056127
0.0554675
0.0548634
0.0543176
0.053831
0.0534028
0.0530311
0.0527127
0.0524437
0.0522195
0.0520354
0.0518864
0.0517676
0.0516744
0.0516022
0.0515471
0.0515057
0.051475
0.051453
0.0514382
0.05143
0.0514285
0.0514347
0.0514506
0.0514803
0.0515292
0.0516024
0.0517107
0.0518654
0.0521419
0.0523762
0.0377524
0.0306863
0.0270047
0.0249796
0.0238172
0.0231235
0.0226897
0.0223971
0.0221713
0.0218889
0.0833748
0.0716477
0.0632253
0.0568804
0.0519411
0.0479978
0.0447827
0.0421124
0.0398428
0.0380557
0.118101
0.141529
0.141235
0.132718
0.122304
0.112304
0.103448
0.095872
0.0895095
0.0842332
0.0799104
0.0764192
0.0736506
0.0715066
0.0698968
0.068736
0.0679429
0.0674401
0.0671545
0.0670192
0.0669743
0.0669686
0.0669594
0.0669138
0.066808
0.0666261
0.0663594
0.0660045
0.0655625
0.0650378
0.0644371
0.0637697
0.0630469
0.0622805
0.0614839
0.0606701
0.0598529
0.0590474
0.0582667
0.0575222
0.0568233
0.0561777
0.0555911
0.055067
0.0546068
0.0542101
0.0538747
0.0535973
0.0533741
0.0532003
0.053071
0.0529807
0.0529245
0.0528973
0.0528948
0.0529133
0.0529522
0.0530091
0.0530819
0.0531692
0.0532706
0.0533869
0.0535198
0.0536712
0.0538441
0.054045
0.054286
0.0545808
0.0550083
0.0556641
0.0407369
0.0335746
0.0297772
0.0276037
0.0262753
0.0254117
0.0248076
0.0243463
0.0239974
0.0236359
0.0833738
0.0716453
0.0632217
0.0568753
0.0519346
0.0479897
0.0447727
0.0421004
0.0398286
0.0380395
0.118025
0.141453
0.141171
0.132661
0.122248
0.112244
0.10338
0.0957962
0.0894257
0.0841427
0.0798153
0.0763221
0.0735547
0.0714154
0.0698142
0.0686663
0.0678903
0.0674087
0.0671484
0.0670421
0.0670298
0.06706
0.0670899
0.0670858
0.0670232
0.0668857
0.0666639
0.0663535
0.0659549
0.0654714
0.0649085
0.0642749
0.0635811
0.0628397
0.0620656
0.0612748
0.0604827
0.0597043
0.0589538
0.0582437
0.0575843
0.0569843
0.0564514
0.0559958
0.055619
0.0553095
0.0550583
0.0548589
0.0547063
0.0545965
0.0545247
0.054486
0.0544757
0.0544894
0.0545236
0.0545753
0.054641
0.0547204
0.0548131
0.054919
0.0550386
0.0551726
0.0553221
0.0554902
0.055682
0.0559058
0.0561784
0.0565265
0.0570676
0.0579176
0.042419
0.0349794
0.0310125
0.0287161
0.0272891
0.0263428
0.0256687
0.0251425
0.0246361
0.0241552
0.0833727
0.071643
0.0632182
0.0568707
0.0519286
0.0479824
0.0447639
0.0420898
0.0398161
0.0380249
0.117932
0.141335
0.141053
0.132551
0.122146
0.112148
0.103288
0.0957055
0.0893349
0.0840511
0.0797232
0.0762304
0.073465
0.0713299
0.0697354
0.0685968
0.0678331
0.0673665
0.0671237
0.0670373
0.0670474
0.0671024
0.06716
0.0671864
0.0671567
0.0670542
0.0668682
0.0665931
0.0662275
0.0657728
0.0652331
0.0646149
0.0639283
0.0631858
0.0624027
0.0615966
0.0607841
0.0599825
0.0592082
0.0584752
0.0577963
0.0571826
0.0566482
0.0562041
0.055839
0.0555417
0.0553035
0.0551187
0.0549818
0.0548875
0.05483
0.054804
0.0548046
0.0548274
0.0548692
0.0549271
0.0549992
0.0550837
0.0551801
0.0552883
0.0554087
0.0555423
0.0556912
0.0558588
0.0560505
0.0562748
0.0565488
0.0568993
0.0574439
0.0582948
0.0426704
0.0351665
0.0311614
0.0288394
0.0273943
0.0264347
0.0257512
0.0252197
0.024714
0.0242341
0.0833717
0.0716408
0.0632149
0.0568664
0.0519235
0.0479763
0.0447569
0.0420819
0.0398072
0.0380149
0.117868
0.141246
0.140951
0.132442
0.122034
0.112033
0.103171
0.0955884
0.0892183
0.083936
0.0796107
0.0761219
0.0733619
0.0712338
0.0696481
0.0685201
0.0677685
0.0673155
0.0670876
0.0670175
0.0670454
0.0671201
0.0671997
0.0672511
0.0672496
0.0671778
0.067024
0.066781
0.0664447
0.0660143
0.0654908
0.0648786
0.0641866
0.0634274
0.0626183
0.0617792
0.0609297
0.0600897
0.0592767
0.0585066
0.0577925
0.057146
0.056577
0.056098
0.0557124
0.0554053
0.0551642
0.0549804
0.0548474
0.0547589
0.0547087
0.0546908
0.0546999
0.0547314
0.0547816
0.0548478
0.0549277
0.05502
0.0551243
0.05524
0.0553675
0.0555076
0.0556626
0.0558362
0.0560338
0.0562639
0.056544
0.056901
0.0574522
0.0583108
0.0426875
0.0351815
0.0311734
0.0288487
0.0274015
0.0264408
0.0257574
0.0252277
0.0247271
0.0242575
0.0833707
0.0716387
0.0632119
0.0568627
0.0519191
0.0479715
0.0447517
0.0420766
0.039802
0.0380097
0.117837
0.141189
0.140871
0.132341
0.121916
0.111903
0.103033
0.0954448
0.0890734
0.083793
0.0794726
0.0759914
0.0732415
0.0711255
0.0695536
0.0684406
0.0677047
0.0672676
0.0670554
0.0670007
0.0670441
0.0671353
0.0672337
0.0673074
0.0673327
0.0672922
0.0671737
0.0669671
0.0666652
0.0662627
0.0657558
0.0651452
0.0644378
0.0636464
0.0627907
0.0618938
0.06098
0.0600714
0.0591886
0.0583505
0.0575735
0.0568698
0.0562482
0.0557139
0.0552689
0.0549126
0.0546429
0.0544552
0.0543336
0.0542648
0.0542391
0.0542489
0.0542874
0.0543488
0.0544288
0.054524
0.0546319
0.0547508
0.0548797
0.0550184
0.0551669
0.0553264
0.0554989
0.0556879
0.0558992
0.0561412
0.0564312
0.0567969
0.0573573
0.0582288
0.0426442
0.0351549
0.0311535
0.0288309
0.0273836
0.026422
0.025738
0.025209
0.0247117
0.0242547
0.0833698
0.0716367
0.0632091
0.0568592
0.0519152
0.0479674
0.0447476
0.0420727
0.0397983
0.0380057
0.117779
0.141079
0.140723
0.132174
0.121742
0.111731
0.102868
0.0952915
0.0889341
0.0836699
0.0793681
0.0759085
0.0731835
0.0710959
0.0695551
0.0684752
0.0677728
0.0673685
0.0671877
0.0671628
0.0672354
0.067357
0.0674892
0.0676026
0.0676749
0.0676891
0.0676305
0.067484
0.0672349
0.0668685
0.0663718
0.0657394
0.0649768
0.064101
0.0631401
0.0621278
0.0611009
0.0600867
0.0591031
0.0581683
0.0572998
0.0565115
0.0558128
0.0552088
0.0547013
0.0542884
0.0539659
0.0537273
0.0535647
0.0534695
0.0534329
0.0534461
0.0535003
0.053587
0.053699
0.0538302
0.0539758
0.0541324
0.0542961
0.0544662
0.0546431
0.0548274
0.0550207
0.0552258
0.0554477
0.0556937
0.0559787
0.0563275
0.056883
0.0577653
0.0423322
0.0349028
0.0309238
0.0286073
0.0271593
0.0261948
0.0255079
0.0249778
0.024493
0.0240785
0.0833688
0.0716348
0.0632065
0.0568563
0.0519124
0.0479652
0.0447469
0.0420744
0.0398045
0.038018
0.117882
0.141142
0.140711
0.132095
0.121617
0.111586
0.10273
0.0951905
0.0889003
0.0837353
0.0795646
0.0762657
0.0737265
0.0718425
0.0705145
0.0696475
0.0691508
0.0689399
0.0689382
0.0690797
0.0693093
0.0695835
0.0698688
0.0701392
0.0703738
0.0705526
0.070653
0.0706463
0.0704979
0.0701688
0.0696238
0.0688434
0.0678337
0.0666272
0.0652788
0.0638555
0.0624186
0.0610488
0.0597648
0.05858
0.0575042
0.0565424
0.0556949
0.0549598
0.0543333
0.0538104
0.0533848
0.0530498
0.0527979
0.0526212
0.0525115
0.0524601
0.0524584
0.0524994
0.0525787
0.0526926
0.0528355
0.0530029
0.0531926
0.053402
0.0536276
0.0538673
0.0541213
0.0543911
0.0546801
0.0549933
0.0553422
0.055744
0.0562798
0.0570641
0.0416017
0.0341076
0.0300766
0.0277268
0.0262622
0.0252948
0.0246162
0.024107
0.023718
0.0233641
0.0833679
0.0716329
0.063204
0.0568535
0.0519096
0.0479628
0.0447457
0.042075
0.0398082
0.0380237
0.117717
0.140859
0.140471
0.131993
0.121727
0.112035
0.103669
0.0967685
0.0912507
0.0869607
0.0837279
0.0813859
0.0797796
0.0787676
0.0782241
0.0780389
0.0781186
0.0783859
0.0787789
0.07925
0.0797635
0.0802939
0.0808228
0.0813356
0.0818182
0.0822521
0.0826091
0.082845
0.0828956
0.0826761
0.0820908
0.0810595
0.0795389
0.0775352
0.0751076
0.072362
0.0694271
0.0664963
0.063794
0.0614614
0.0595286
0.0579729
0.0567491
0.0558045
0.0550861
0.0545464
0.0541451
0.0538504
0.0536387
0.0534937
0.0534056
0.0533591
0.0533776
0.0534892
0.0536911
0.0539686
0.0543063
0.0546905
0.0551067
0.0555434
0.0559965
0.056466
0.0569529
0.057459
0.0579873
0.0585426
0.0591373
0.059793
0.060601
0.0616271
0.0430719
0.0341245
0.029351
0.0266145
0.0249605
0.0239191
0.0232376
0.0227696
0.0224154
0.0221272
0.083367
0.0716311
0.0632017
0.0568511
0.0519079
0.0479631
0.0447506
0.0420898
0.039853
0.0379522
0.0366796
0.0356054
0.0345215
0.0334485
0.0324658
0.0315644
0.0307389
0.0299846
0.0292972
0.0286718
0.0281038
0.0275885
0.0271217
0.0266991
0.0263168
0.0259714
0.0256592
0.0253772
0.0251222
0.0248916
0.024683
0.0244945
0.0243246
0.0241722
0.0240366
0.0239174
0.0238142
0.0237259
0.0236501
0.0235826
0.0235161
0.0234426
0.0233534
0.023242
0.0231043
0.0229385
0.0227453
0.0225895
0.022503
0.0224333
0.0223486
0.0222329
0.0220809
0.0218948
0.0216811
0.0214501
0.0212112
0.0209717
0.0207366
0.0205091
0.0202897
0.0200884
0.0199529
0.0198674
0.0198198
0.0198012
0.0198047
0.019825
0.0198599
0.0199083
0.019967
0.0200328
0.0201033
0.0201767
0.020252
0.0203289
0.0204072
0.0204874
0.0205705
0.0206576
0.0206992
0.0207299
0.0207642
0.020806
0.0208551
0.0209101
0.0209676
0.0210229
0.0210574
0.021052
0.0833661
0.0716293
0.0631992
0.0568483
0.0519051
0.0479607
0.0447493
0.0420901
0.0398562
0.0379574
0.0363314
0.0349286
0.0337068
0.0326332
0.0316827
0.0308354
0.0300756
0.0293908
0.0287709
0.0282073
0.0276932
0.0272227
0.0267911
0.0263946
0.0260298
0.0256942
0.0253855
0.0251015
0.0248404
0.0246006
0.0243809
0.0241802
0.0239981
0.0238343
0.0236895
0.0235646
0.0234607
0.0233783
0.0233166
0.0232703
0.0232302
0.0231852
0.0231243
0.0230393
0.0229261
0.022784
0.0226158
0.0224245
0.0222146
0.0219886
0.0217521
0.0215097
0.0212653
0.0210229
0.0207862
0.020559
0.0203452
0.0201482
0.0199707
0.0198147
0.0196814
0.0195712
0.0194841
0.0194188
0.0193733
0.0193453
0.0193323
0.0193316
0.0193413
0.0193601
0.0193877
0.0194237
0.0194675
0.0195188
0.0195769
0.0196417
0.019713
0.0197907
0.019875
0.0199654
0.0200601
0.0201583
0.0202611
0.0203694
0.0204831
0.0206016
0.0207226
0.020843
0.0209498
0.0210216
0.0833652
0.0716275
0.0631968
0.0568455
0.0519024
0.0479585
0.0447483
0.0420914
0.0398615
0.037968
0.0363447
0.0349409
0.0337163
0.0326392
0.0316849
0.030834
0.0300706
0.0293823
0.0287587
0.0281914
0.0276732
0.0271984
0.0267621
0.0263604
0.0259901
0.0256486
0.0253337
0.0250434
0.024776
0.02453
0.0243043
0.024098
0.0239111
0.0237439
0.023598
0.0234759
0.0233808
0.023316
0.0232832
0.0232762
0.0232815
0.0232818
0.0232597
0.0232034
0.0231069
0.02297
0.0227964
0.0225904
0.0223578
0.0221051
0.0218391
0.0215661
0.0212925
0.0210238
0.0207648
0.0205202
0.0202935
0.0200876
0.019905
0.0197475
0.0196153
0.0195083
0.0194251
0.0193641
0.0193234
0.0193009
0.0192945
0.0193022
0.0193221
0.0193525
0.0193931
0.0194432
0.0195026
0.0195715
0.0196503
0.0197396
0.01984
0.019952
0.0200763
0.0202127
0.020361
0.0205206
0.0206911
0.0208718
0.0210611
0.0212569
0.0214552
0.0216522
0.0218379
0.0219899
0.0833644
0.0716256
0.0631942
0.0568423
0.0518986
0.0479544
0.0447439
0.0420869
0.0398566
0.0379621
0.0363364
0.0349288
0.0336997
0.0326181
0.0316593
0.0308039
0.0300363
0.0293436
0.0287157
0.0281441
0.0276217
0.0271426
0.0267019
0.0262956
0.0259207
0.0255745
0.0252549
0.0249601
0.0246882
0.0244378
0.0242078
0.0239974
0.0238067
0.0236367
0.0234897
0.0233703
0.023285
0.0232417
0.023249
0.0233019
0.0233809
0.0234574
0.0235017
0.0234946
0.0234279
0.0233022
0.0231277
0.0229115
0.0226615
0.022386
0.0220932
0.0217913
0.0214878
0.0211897
0.0209033
0.0206341
0.0203866
0.0201644
0.0199701
0.0198051
0.01967
0.0195645
0.0194876
0.0194379
0.0194134
0.0194122
0.0194322
0.0194717
0.0195322
0.0196177
0.0197259
0.0198552
0.0200056
0.0201767
0.0203681
0.0205791
0.020809
0.0210563
0.0213194
0.0215961
0.0218849
0.0221821
0.0224831
0.0227841
0.0230813
0.0233713
0.0236494
0.0239117
0.0241415
0.0243317
0.0833635
0.0716238
0.0631915
0.0568389
0.0518946
0.0479498
0.0447389
0.0420814
0.0398506
0.0379554
0.0363283
0.0349182
0.0336859
0.0326002
0.031637
0.0307766
0.0300036
0.0293053
0.0286716
0.0280939
0.0275654
0.0270802
0.0266333
0.026221
0.0258401
0.0254879
0.0251625
0.024862
0.0245846
0.0243287
0.0240932
0.0238771
0.0236803
0.0235042
0.0233517
0.0232298
0.0231486
0.0231254
0.0231913
0.0233589
0.0236049
0.0238717
0.024091
0.0242218
0.0242476
0.0241686
0.0240117
0.023803
0.0235541
0.0232768
0.0229819
0.0226799
0.0223803
0.0220918
0.021822
0.0215775
0.0213636
0.0211844
0.0210426
0.0209396
0.0208756
0.0208501
0.0208617
0.0209084
0.0209882
0.0210991
0.0212552
0.0214552
0.02169
0.0219493
0.0222307
0.0225327
0.0228521
0.0231856
0.0235317
0.0238894
0.0242514
0.0246113
0.0249639
0.0253053
0.0256322
0.0259424
0.026234
0.026506
0.0267576
0.026988
0.0271954
0.0273791
0.0275244
0.0276262
0.0833626
0.0716219
0.0631886
0.0568351
0.0518898
0.047944
0.044732
0.0420732
0.0398409
0.0379435
0.0363136
0.0349001
0.0336636
0.0325733
0.0316051
0.0307394
0.0299608
0.0292566
0.0286166
0.0280326
0.0274975
0.0270056
0.026552
0.026133
0.0257454
0.0253866
0.0250547
0.0247478
0.024464
0.0242018
0.0239595
0.0237361
0.0235311
0.0233455
0.0231821
0.0230501
0.0229637
0.0229592
0.0231743
0.0237382
0.02463
0.0256447
0.0265542
0.0272639
0.0277437
0.0280048
0.0280531
0.0280065
0.0279156
0.0277854
0.0276212
0.0274296
0.027219
0.0269993
0.0267811
0.0265749
0.0263904
0.0262354
0.026116
0.0260365
0.0259989
0.0260041
0.0260514
0.0261394
0.02628
0.0264753
0.0267015
0.0269506
0.0272292
0.0275256
0.0278315
0.028138
0.0284385
0.0287286
0.0290046
0.0292641
0.0295052
0.0297268
0.0299279
0.0301083
0.0302677
0.0304067
0.0305259
0.0306261
0.0307083
0.0307734
0.0308209
0.0308519
0.0308531
0.0308275
0.0833618
0.0716199
0.0631856
0.056831
0.0518847
0.0479377
0.0447243
0.042064
0.0398299
0.0379304
0.0362978
0.0348809
0.0336406
0.0325459
0.0315726
0.0307014
0.0299167
0.0292059
0.0285588
0.0279671
0.0274241
0.026924
0.0264623
0.026035
0.0256392
0.0252724
0.0249325
0.0246178
0.0243264
0.0240564
0.0238059
0.0235733
0.023357
0.0231568
0.0229736
0.0228175
0.0227034
0.0227167
0.0236234
0.0261373
0.0299993
0.0341159
0.0375815
0.0401882
0.041927
0.0429178
0.0433067
0.0431544
0.0426157
0.04188
0.0410094
0.0400666
0.0391076
0.0381777
0.0373113
0.0365315
0.035852
0.0352793
0.0348142
0.0344559
0.0341969
0.0340424
0.0339756
0.0339717
0.0340111
0.0340779
0.0341618
0.0342547
0.0343499
0.034442
0.0345256
0.0345986
0.034659
0.0347053
0.0347362
0.034751
0.0347497
0.0347323
0.0346993
0.0346516
0.0345904
0.034517
0.0344329
0.0343397
0.0342387
0.0341314
0.0340174
0.0338984
0.0337613
0.0336147
0.0833609
0.071618
0.0631825
0.0568268
0.0518792
0.0479308
0.0447158
0.0420536
0.0398172
0.0379151
0.0362793
0.0348588
0.0336141
0.0325146
0.0315359
0.0306586
0.0298672
0.0291491
0.0284941
0.0278939
0.0273419
0.0268325
0.0263612
0.0259243
0.025519
0.0251428
0.0247937
0.0244701
0.02417
0.0238914
0.023632
0.0233897
0.0231621
0.0229472
0.0227421
0.0225556
0.0223952
0.0225046
0.0272155
0.038249
0.0514852
0.0620889
0.0682429
0.0707049
0.0705323
0.0687588
0.0661511
0.0632012
0.0602044
0.0573052
0.0546639
0.0523309
0.0503199
0.0486279
0.0472382
0.0461501
0.045309
0.0446438
0.0441084
0.0436709
0.0433079
0.0430004
0.0427334
0.0424945
0.0422641
0.0420338
0.041805
0.0415849
0.0413676
0.041149
0.0409247
0.0406916
0.0404505
0.0402021
0.0399468
0.039685
0.0394177
0.0391459
0.0388707
0.0385934
0.0383155
0.0380384
0.0377636
0.0374924
0.0372259
0.0369652
0.0367096
0.0364607
0.0362048
0.0359546
0.0833601
0.0716161
0.0631795
0.0568226
0.0518737
0.0479238
0.0447071
0.0420429
0.0398042
0.0378993
0.0362603
0.034836
0.0335869
0.0324823
0.0314979
0.0306141
0.0298155
0.0290893
0.0284253
0.0278153
0.0272527
0.0267321
0.0262493
0.0258008
0.0253838
0.0249963
0.0246364
0.0243024
0.0239922
0.0237037
0.0234346
0.0231824
0.0229437
0.0227148
0.0224856
0.0222579
0.022
0.0225492
0.0422868
0.0726154
0.096299
0.107411
0.107591
0.101727
0.0935783
0.0853041
0.077906
0.0717153
0.0667269
0.0628278
0.0598446
0.0576518
0.0561752
0.055178
0.0544408
0.0538414
0.0533118
0.052815
0.0523314
0.051851
0.0513687
0.0508824
0.0503908
0.0498938
0.0493916
0.0488847
0.0483729
0.0478499
0.0473209
0.0467896
0.0462586
0.0457328
0.0452117
0.0446946
0.044182
0.0436756
0.0431768
0.0426867
0.0422065
0.0417374
0.0412805
0.0408369
0.0404076
0.0399935
0.0395951
0.039213
0.0388459
0.0384954
0.0381466
0.037816
0.0833594
0.0716144
0.0631768
0.0568187
0.0518685
0.047917
0.0446985
0.0420322
0.039791
0.0378832
0.0362408
0.0348124
0.0335587
0.0324487
0.031458
0.0305672
0.0297605
0.0290252
0.0283511
0.0277299
0.0271549
0.0266212
0.0261246
0.025662
0.0252311
0.0248302
0.0244578
0.024112
0.0237909
0.0234921
0.0232138
0.0229551
0.0227148
0.0224929
0.0222809
0.0220812
0.021846
0.022442
0.0439213
0.0768055
0.102257
0.112816
0.112494
0.105884
0.0968315
0.0876992
0.0796328
0.0730239
0.0678921
0.0641216
0.0616446
0.0602621
0.05954
0.0591786
0.0589771
0.0588098
0.0586057
0.0583306
0.0579734
0.0575356
0.0570254
0.0564536
0.0558314
0.0551693
0.0544769
0.0537624
0.053033
0.052295
0.0515536
0.0508131
0.0500772
0.0493463
0.0486232
0.0479116
0.0472139
0.0465316
0.0458674
0.0452221
0.0445967
0.043992
0.043409
0.0428484
0.0423107
0.0417964
0.0413056
0.0408386
0.0403935
0.0399718
0.039558
0.0391713
0.0833588
0.0716131
0.0631747
0.0568155
0.051864
0.0479111
0.0446908
0.0420223
0.0397786
0.0378678
0.0362219
0.0347894
0.0335308
0.0324151
0.0314178
0.0305194
0.0297039
0.0289585
0.0282728
0.0276385
0.0270491
0.0264996
0.0259862
0.0255063
0.0250584
0.0246413
0.0242542
0.0238952
0.0235617
0.0232514
0.0229632
0.0226998
0.0224662
0.0222748
0.0221296
0.0220505
0.0219513
0.0225334
0.0428293
0.0751133
0.100666
0.111396
0.111218
0.104712
0.0957904
0.0868541
0.0790147
0.0726055
0.0675976
0.0638996
0.06157
0.060294
0.0597481
0.0596624
0.059814
0.060034
0.0602084
0.060272
0.0601956
0.0599743
0.0596173
0.059141
0.0585644
0.0579066
0.0571851
0.0564156
0.0556118
0.0547852
0.0539454
0.0531006
0.0522573
0.0514211
0.0505963
0.0497866
0.0489947
0.0482228
0.0474715
0.0467426
0.0460375
0.0453572
0.0447028
0.0440753
0.0434753
0.042903
0.0423583
0.0418413
0.0413501
0.0408862
0.0404335
0.0400139
0.0833585
0.0716123
0.0631732
0.0568131
0.0518605
0.0479061
0.0446841
0.0420135
0.0397673
0.0378535
0.036204
0.0347672
0.0335036
0.0323819
0.0313777
0.030471
0.0296459
0.0288893
0.0281906
0.0275414
0.026935
0.0263666
0.0258329
0.0253321
0.0248634
0.0244271
0.0240233
0.0236499
0.0233033
0.0229807
0.0226825
0.0224183
0.0222072
0.0220936
0.0221235
0.0223778
0.0226184
0.0232014
0.04002
0.0688813
0.0927636
0.103391
0.102702
0.0963361
0.0882438
0.0806084
0.0742084
0.0691135
0.0649609
0.061615
0.0592002
0.057662
0.05687
0.056683
0.0569255
0.057409
0.057964
0.0584635
0.0588279
0.0590185
0.059026
0.0588596
0.0585382
0.0580846
0.0575224
0.0568738
0.0561585
0.055394
0.054595
0.0537739
0.0529409
0.0521045
0.0512716
0.0504478
0.0496375
0.0488442
0.0480709
0.0473198
0.0465926
0.0458908
0.0452155
0.0445672
0.0439466
0.0433542
0.0427901
0.0422545
0.0417454
0.0412647
0.0407958
0.040363
0.0833585
0.071612
0.0631723
0.0568116
0.0518579
0.0479022
0.0446786
0.042006
0.0397573
0.0378406
0.0361875
0.0347464
0.0334777
0.0323499
0.0313384
0.030423
0.0295876
0.0288186
0.0281054
0.0274391
0.0268129
0.026222
0.0256635
0.0251366
0.0246422
0.0241823
0.0237595
0.0233717
0.0230135
0.0226814
0.0223793
0.0221314
0.0219887
0.0220741
0.0225614
0.0236728
0.0245894
0.0250999
0.0257771
0.0281226
0.0327985
0.0384463
0.0438583
0.0478449
0.0500753
0.0510662
0.0514279
0.0515135
0.051271
0.0508336
0.0502818
0.0498313
0.0496263
0.0497834
0.0503318
0.0511997
0.0522477
0.0533222
0.0542963
0.055088
0.055658
0.0559985
0.0561224
0.0560532
0.0558185
0.0554466
0.0549636
0.0543931
0.0537557
0.0530687
0.052347
0.0516026
0.0508457
0.0500846
0.0493258