/*--------------------------------*- C++ -*----------------------------------*\
| =========                 |                                                 |
| \\      /  F ield         | OpenFOAM: The Open Source CFD Toolbox           |
|  \\    /   O peration     | Version:  v2012                                 |
|   \\  /    A nd           | Website:  www.openfoam.com                      |
|    \\/     M anipulation  |                                                 |
\*---------------------------------------------------------------------------*/
FoamFile
{
    version     2.0;
    format      ascii;
    class       volScalarField;
    location    "150/air";
    object      nut;
}
// * * * * * * * * * * * * * * * * * * * * * * * * * * * * * * * * * * * * * //

dimensions      [0 2 -1 0 0 0 0];


internalField   nonuniform List<scalar> 
287104
(
0.00648493
0.00601249
0.00564906
0.00535924
0.00512257
0.00492582
0.00475992
0.00461835
0.00449631
0.00439018
0.00429719
0.00421515
0.00414232
0.00407731
0.00401899
0.0039664
0.00391878
0.00387549
0.00383596
0.00379973
0.00376642
0.00373567
0.0037072
0.00368074
0.00365607
0.003633
0.00361134
0.00359094
0.00357164
0.00355333
0.00353587
0.00351915
0.00350305
0.00348746
0.00347228
0.00345741
0.00344274
0.00342819
0.00341368
0.00339913
0.00338448
0.00336969
0.00335472
0.00333958
0.00332427
0.00330883
0.0032933
0.00327776
0.00326231
0.00324706
0.00323212
0.00321763
0.00320372
0.00319054
0.0031782
0.00316683
0.00315653
0.00314737
0.00313941
0.00313269
0.00312719
0.0031229
0.00311977
0.00311772
0.00311667
0.0031165
0.0031171
0.00311836
0.00312015
0.00312236
0.00312489
0.00312764
0.00313052
0.00313347
0.00313643
0.00313935
0.00314222
0.003145
0.00314769
0.00315031
0.00315285
0.00315533
0.00315775
0.0031601
0.00316234
0.00316437
0.00316603
0.00316681
0.00316658
0.00315811
0.0064848
0.00601222
0.00564867
0.00535874
0.00512198
0.00492515
0.00475918
0.00461755
0.00449546
0.0043893
0.00429627
0.00421421
0.00414137
0.00407635
0.00401803
0.00396545
0.00391785
0.00387457
0.00383506
0.00379886
0.00376557
0.00373485
0.00370641
0.00367998
0.00365535
0.00363231
0.00361069
0.00359033
0.00357108
0.00355281
0.00353539
0.00351872
0.00350266
0.00348712
0.00347199
0.00345715
0.00344253
0.00342802
0.00341355
0.00339904
0.00338443
0.00336969
0.00335479
0.00333971
0.00332449
0.00330915
0.00329374
0.00327835
0.00326306
0.00324799
0.00323327
0.00321901
0.00320535
0.00319242
0.00318035
0.00316925
0.0031592
0.00315029
0.00314255
0.00313601
0.00313067
0.00312648
0.00312341
0.00312136
0.00312026
0.00311998
0.00312043
0.00312148
0.00312301
0.00312494
0.00312714
0.00312953
0.00313204
0.00313461
0.00313717
0.00313969
0.00314215
0.00314453
0.00314682
0.00314904
0.00315118
0.00315327
0.0031553
0.00315728
0.00315914
0.00316081
0.00316212
0.00316257
0.00316203
0.0031534
0.00648475
0.0060121
0.00564849
0.00535852
0.0051217
0.00492483
0.00475882
0.00461714
0.00449501
0.00438882
0.00429577
0.00421368
0.00414084
0.00407582
0.0040175
0.00396493
0.00391734
0.00387407
0.00383459
0.00379841
0.00376514
0.00373445
0.00370604
0.00367964
0.00365504
0.00363204
0.00361046
0.00359015
0.00357095
0.00355274
0.00353538
0.00351877
0.00350279
0.00348732
0.00347226
0.00345751
0.00344297
0.00342855
0.00341417
0.00339975
0.00338525
0.00337062
0.00335583
0.00334088
0.00332579
0.00331059
0.00329535
0.00328013
0.00326503
0.00325017
0.00323567
0.00322166
0.00320827
0.00319563
0.00318386
0.00317308
0.00316338
0.00315482
0.00314745
0.00314128
0.00313632
0.00313252
0.00312983
0.00312816
0.00312741
0.00312748
0.00312825
0.0031296
0.00313141
0.00313357
0.003136
0.0031386
0.00314131
0.00314406
0.00314682
0.00314953
0.0031522
0.00315479
0.00315731
0.00315977
0.00316218
0.00316455
0.00316689
0.00316919
0.00317141
0.00317347
0.0031752
0.00317616
0.00317618
0.00316858
0.0064847
0.00601198
0.0056483
0.00535824
0.00512136
0.00492441
0.00475832
0.00461658
0.00449438
0.00438813
0.00429504
0.00421292
0.00414005
0.00407503
0.0040167
0.00396414
0.00391655
0.00387329
0.00383381
0.00379764
0.00376438
0.0037337
0.0037053
0.00367891
0.00365433
0.00363135
0.0036098
0.00358952
0.00357036
0.00355219
0.00353489
0.00351834
0.00350242
0.00348703
0.00347205
0.00345739
0.00344294
0.00342862
0.00341433
0.00340002
0.00338562
0.00337109
0.00335641
0.00334156
0.00332657
0.00331148
0.00329633
0.00328121
0.00326621
0.00325145
0.00323705
0.00322313
0.00320985
0.00319732
0.00318567
0.00317501
0.00316545
0.00315704
0.00314984
0.00314388
0.00313913
0.00313558
0.00313315
0.00313176
0.00313131
0.00313166
0.0031327
0.0031343
0.00313634
0.00313874
0.00314139
0.00314424
0.00314721
0.00315025
0.00315332
0.00315639
0.00315942
0.00316242
0.00316538
0.00316831
0.00317121
0.00317411
0.003177
0.00317988
0.00318272
0.00318544
0.00318789
0.00318964
0.00319053
0.00318434
0.00648465
0.00601187
0.00564812
0.00535801
0.00512106
0.00492404
0.00475788
0.00461607
0.00449381
0.00438749
0.00429435
0.0042122
0.00413931
0.00407428
0.00401595
0.00396339
0.00391581
0.00387257
0.0038331
0.00379694
0.00376369
0.00373302
0.00370463
0.00367827
0.00365371
0.00363075
0.00360923
0.00358898
0.00356986
0.00355175
0.00353451
0.00351802
0.00350218
0.00348687
0.00347199
0.00345742
0.00344308
0.00342887
0.0034147
0.00340051
0.00338623
0.00337182
0.00335726
0.00334254
0.00332767
0.00331269
0.00329766
0.00328265
0.00326777
0.00325312
0.00323883
0.00322504
0.00321188
0.00319949
0.00318799
0.00317751
0.00316814
0.00315996
0.00315304
0.00314742
0.00314306
0.00313989
0.00313784
0.0031368
0.00313663
0.00313721
0.00313842
0.00314014
0.00314228
0.00314473
0.00314743
0.00315031
0.00315332
0.0031564
0.00315954
0.00316271
0.00316588
0.00316905
0.00317222
0.00317539
0.00317855
0.00318173
0.00318491
0.00318809
0.00319122
0.00319423
0.00319695
0.00319903
0.00320032
0.00319505
0.0064846
0.00601176
0.00564794
0.00535775
0.00512072
0.00492362
0.00475738
0.00461547
0.00449313
0.00438674
0.00429355
0.00421138
0.00413849
0.00407346
0.00401515
0.00396261
0.00391505
0.00387181
0.00383235
0.00379619
0.00376294
0.00373227
0.00370388
0.00367752
0.00365297
0.00363003
0.00360853
0.00358831
0.00356924
0.00355118
0.00353401
0.00351761
0.00350186
0.00348666
0.0034719
0.00345747
0.00344327
0.00342921
0.00341521
0.00340118
0.00338708
0.00337284
0.00335846
0.00334391
0.00332921
0.0033144
0.00329953
0.00328468
0.00326996
0.00325547
0.00324134
0.00322771
0.00321472
0.0032025
0.0031912
0.00318093
0.00317181
0.00316398
0.00315739
0.00315208
0.00314799
0.00314507
0.00314319
0.00314227
0.00314216
0.00314277
0.00314397
0.00314567
0.00314777
0.00315018
0.00315285
0.00315569
0.00315867
0.00316174
0.00316488
0.00316805
0.00317123
0.00317443
0.00317762
0.00318081
0.00318398
0.00318715
0.00319033
0.00319351
0.00319667
0.00319973
0.00320254
0.00320472
0.00320616
0.00320152
0.00648456
0.00601165
0.00564777
0.0053575
0.00512038
0.00492319
0.00475683
0.0046148
0.00449232
0.0043858
0.0042925
0.00421026
0.00413734
0.00407231
0.00401402
0.00396149
0.00391395
0.00387072
0.00383127
0.00379512
0.00376188
0.00373122
0.00370283
0.00367648
0.00365194
0.00362902
0.00360755
0.00358739
0.00356838
0.00355041
0.00353334
0.00351706
0.00350145
0.00348641
0.00347183
0.0034576
0.00344362
0.0034298
0.00341604
0.00340228
0.00338845
0.0033745
0.00336041
0.00334615
0.00333175
0.00331724
0.00330267
0.00328813
0.00327371
0.00325952
0.0032457
0.00323239
0.00321974
0.00320795
0.00319707
0.00318725
0.00317859
0.00317112
0.00316486
0.00315978
0.00315583
0.00315294
0.00315101
0.00314997
0.0031497
0.00315012
0.00315111
0.00315259
0.00315447
0.00315668
0.00315915
0.00316181
0.00316463
0.00316757
0.00317059
0.00317366
0.00317677
0.00317991
0.00318306
0.0031862
0.00318932
0.00319242
0.00319551
0.00319862
0.0032017
0.00320471
0.00320751
0.00320976
0.00321124
0.0032071
0.00648451
0.00601154
0.00564758
0.00535724
0.00512002
0.00492272
0.00475624
0.00461407
0.00449144
0.00438479
0.00429143
0.00420921
0.00413634
0.00407137
0.00401312
0.00396061
0.00391306
0.0038698
0.00383028
0.00379405
0.00376072
0.00372995
0.00370146
0.003675
0.00365037
0.00362738
0.00360587
0.00358569
0.0035667
0.00354878
0.0035318
0.00351565
0.00350022
0.00348538
0.00347103
0.00345707
0.0034434
0.00342991
0.00341651
0.00340314
0.00338972
0.0033762
0.00336255
0.00334873
0.00333475
0.00332066
0.00330652
0.00329243
0.00327849
0.00326483
0.00325158
0.00323888
0.00322686
0.00321564
0.00320532
0.00319599
0.00318772
0.00318052
0.00317442
0.0031694
0.00316541
0.00316241
0.00316033
0.00315908
0.00315859
0.00315875
0.00315948
0.0031607
0.00316233
0.00316429
0.00316652
0.00316896
0.00317157
0.00317431
0.00317716
0.00318009
0.00318308
0.0031861
0.00318914
0.00319216
0.00319512
0.00319803
0.00320095
0.00320388
0.00320683
0.00320975
0.00321253
0.00321486
0.00321649
0.00321288
0.00648446
0.00601143
0.00564739
0.00535696
0.00511963
0.00492218
0.0047555
0.00461307
0.00449006
0.00438293
0.00428974
0.00420841
0.00413676
0.00407296
0.00401557
0.00396352
0.00391599
0.00387236
0.00383216
0.00379501
0.0037606
0.0037287
0.00369907
0.00367153
0.00364591
0.00362205
0.0035998
0.00357903
0.0035596
0.00354138
0.00352422
0.00350801
0.00349259
0.00347784
0.00346364
0.00344989
0.00343648
0.0034233
0.00341027
0.00339727
0.00338422
0.00337105
0.00335772
0.00334423
0.00333058
0.00331685
0.0033031
0.00328944
0.00327596
0.00326279
0.00325004
0.00323784
0.00322633
0.0032156
0.00320577
0.00319692
0.0031891
0.00318235
0.00317669
0.00317208
0.0031685
0.0031659
0.0031642
0.00316331
0.00316316
0.00316366
0.00316471
0.00316624
0.00316815
0.00317039
0.00317289
0.00317559
0.00317845
0.00318142
0.00318449
0.00318763
0.00319083
0.00319408
0.00319736
0.00320061
0.0032037
0.00320665
0.00320953
0.00321241
0.0032153
0.00321815
0.0032209
0.00322331
0.00322532
0.00322318
0.00648442
0.00601132
0.00564721
0.00535668
0.00511924
0.00492165
0.00475478
0.0046121
0.00448874
0.00438137
0.00434694
0.00432871
0.00430259
0.00426412
0.00421533
0.00415984
0.00410104
0.00404154
0.00398319
0.00392726
0.00387454
0.00382549
0.00378032
0.00373907
0.00370164
0.00366783
0.00363737
0.00360995
0.00358518
0.00356265
0.00354187
0.00352235
0.00350358
0.00348508
0.00346628
0.00344933
0.003434
0.00341972
0.00340607
0.00339274
0.00337953
0.00336627
0.00335289
0.00333953
0.00332632
0.0033133
0.00330053
0.00328804
0.00327591
0.00326421
0.00325305
0.00324251
0.00323269
0.00322369
0.00321558
0.00320844
0.0032023
0.00319719
0.00319311
0.00319003
0.00318792
0.00318671
0.00318633
0.0031867
0.00318774
0.00318936
0.00319148
0.00319402
0.0031969
0.00320007
0.00320347
0.00320705
0.00321079
0.00321464
0.0032186
0.00322265
0.0032268
0.00323103
0.00323535
0.0032397
0.00324045
0.00324039
0.00324054
0.00324115
0.00324215
0.00324339
0.00324459
0.00324528
0.00324463
0.0032381
0.00648437
0.00601121
0.00564702
0.00535638
0.0051188
0.00492099
0.00475375
0.00461041
0.00448523
0.00438439
0.00772545
0.00845446
0.00844605
0.00819055
0.0078679
0.00754628
0.00725068
0.00698895
0.00676213
0.00656871
0.00640627
0.00627213
0.0061635
0.00607754
0.00601134
0.00596196
0.00592641
0.00590181
0.00588538
0.00587458
0.00586716
0.00586117
0.00585506
0.00584766
0.00583815
0.00582661
0.00581401
0.00580073
0.00578681
0.00577227
0.00575716
0.0057413
0.00572481
0.0057076
0.00568986
0.00567197
0.00565431
0.0056372
0.00562088
0.00560546
0.00559107
0.00557779
0.00556568
0.00555479
0.00554511
0.0055366
0.0055292
0.00552283
0.00551739
0.00551279
0.00550891
0.00550563
0.00550283
0.0055004
0.00549823
0.00549623
0.00549432
0.00549244
0.00549056
0.00548868
0.00548682
0.00548502
0.00548337
0.00548204
0.00548128
0.00548149
0.00548339
0.00548794
0.00549962
0.00551081
0.00455992
0.00401426
0.00368958
0.00349385
0.00337494
0.00330249
0.00325825
0.00323071
0.00321254
0.00319274
0.00648433
0.0060111
0.00564684
0.00535611
0.00511842
0.00492047
0.00475305
0.00460947
0.00448397
0.0043828
0.00772535
0.00845595
0.00844569
0.00818584
0.00785734
0.00752896
0.00722614
0.00695704
0.00672297
0.00652264
0.00635381
0.00621399
0.00610055
0.00601077
0.00594185
0.00589085
0.00585477
0.00583058
0.00581536
0.00580637
0.00580114
0.00579755
0.00579381
0.00578854
0.0057807
0.00576961
0.00575486
0.00573628
0.00571383
0.00568763
0.00565787
0.00562519
0.00559002
0.00555286
0.00551434
0.00547514
0.00543597
0.0053974
0.00535997
0.00532414
0.0052903
0.00525879
0.00522984
0.00520359
0.0051801
0.00515937
0.0051413
0.00512576
0.00511258
0.00510155
0.00509245
0.00508505
0.00507912
0.00507442
0.00507076
0.00506792
0.00506576
0.00506413
0.00506293
0.0050621
0.00506162
0.00506149
0.00506178
0.0050626
0.00506435
0.00506725
0.00507179
0.0050785
0.00509111
0.00510143
0.00432739
0.0038972
0.00365219
0.00350973
0.00342515
0.00337366
0.00334113
0.00331907
0.00330207
0.00328029
0.00648429
0.006011
0.00564666
0.00535585
0.00511805
0.00491996
0.00475234
0.0046085
0.00448262
0.00438096
0.00771796
0.00844901
0.00844034
0.00818199
0.00785458
0.00752677
0.00722403
0.00695464
0.00672007
0.00651915
0.00634983
0.00620972
0.00609636
0.00600713
0.0059393
0.00588998
0.00585615
0.00583475
0.00582277
0.00581739
0.00581604
0.00581649
0.00581692
0.00581587
0.00581228
0.00580544
0.00579491
0.00578047
0.0057621
0.00573989
0.00571403
0.00568486
0.00565275
0.00561818
0.00558167
0.00554379
0.00550511
0.00546634
0.00542814
0.00539108
0.00535569
0.00532244
0.00529168
0.00526369
0.00523866
0.00521667
0.0051977
0.00518166
0.00516842
0.00515779
0.00514955
0.00514346
0.00513928
0.00513676
0.00513564
0.00513574
0.00513697
0.00513923
0.00514235
0.00514625
0.00515087
0.00515622
0.00516239
0.00516951
0.00517759
0.00518695
0.00519818
0.00521188
0.00523184
0.0052607
0.00449883
0.00408286
0.00384417
0.00370081
0.00361059
0.00355088
0.00350857
0.00347662
0.00345327
0.00342764
0.00648425
0.0060109
0.0056465
0.00535561
0.00511773
0.00491954
0.00475181
0.00460784
0.00448182
0.00438002
0.0077155
0.00844672
0.0084384
0.00818022
0.00785276
0.00752474
0.00722166
0.00695188
0.00671691
0.00651564
0.00634603
0.00620576
0.00609237
0.00600328
0.00593578
0.00588698
0.00585388
0.0058334
0.00582252
0.0058184
0.00581847
0.00582049
0.00582261
0.00582337
0.00582167
0.00581677
0.00580822
0.00579577
0.00577934
0.00575901
0.00573492
0.00570735
0.00567668
0.00564339
0.00560808
0.00557144
0.00553416
0.00549692
0.00546042
0.00542531
0.00539212
0.00536134
0.00533331
0.00530848
0.00528772
0.0052705
0.00525632
0.00524485
0.00523581
0.00522904
0.00522433
0.00522145
0.00522017
0.00522023
0.00522144
0.00522362
0.00522656
0.00523021
0.00523454
0.00523952
0.00524517
0.0052515
0.00525856
0.00526646
0.00527544
0.00528586
0.00529851
0.00531462
0.00533966
0.00537885
0.00460279
0.00417936
0.00393501
0.00378637
0.00369098
0.00362632
0.00357948
0.00354236
0.00350607
0.00347127
0.00648421
0.0060108
0.00564634
0.00535539
0.00511743
0.00491917
0.00475134
0.00460726
0.00448112
0.00437918
0.00771244
0.0084432
0.00843488
0.00817682
0.00784948
0.00752152
0.00721843
0.00694857
0.00671348
0.00651207
0.00634235
0.00620201
0.00608863
0.00599966
0.0059324
0.00588397
0.00585138
0.00583154
0.00582141
0.00581815
0.00581919
0.00582229
0.00582561
0.00582768
0.0058274
0.00582402
0.00581703
0.00580613
0.00579117
0.00577214
0.00574912
0.0057223
0.00569203
0.00565879
0.00562318
0.00558596
0.00554784
0.00550964
0.00547213
0.00543603
0.00540197
0.00537049
0.00534203
0.005318
0.00529806
0.00528167
0.00526833
0.00525775
0.0052497
0.00524393
0.00524017
0.00523814
0.00523758
0.00523825
0.00523995
0.00524253
0.00524586
0.00524982
0.00525437
0.00525949
0.00526517
0.00527147
0.00527845
0.00528627
0.00529518
0.00530556
0.0053182
0.00533433
0.0053594
0.00539844
0.00461816
0.00419207
0.00394585
0.00379578
0.00369928
0.00363374
0.00358625
0.00354874
0.0035125
0.0034778
0.00648417
0.00601071
0.0056462
0.0053552
0.00511718
0.00491885
0.00475097
0.00460683
0.00448062
0.00437861
0.00771034
0.00844052
0.00843183
0.00817346
0.00784585
0.00751764
0.00721434
0.0069443
0.00670908
0.00650759
0.00633784
0.00619756
0.00608432
0.00599558
0.00592864
0.00588063
0.00584854
0.00582926
0.00581978
0.00581722
0.00581902
0.00582296
0.00582723
0.00583038
0.00583131
0.00582925
0.00582366
0.00581415
0.00580049
0.00578255
0.00576028
0.00573377
0.00570332
0.00566939
0.00563266
0.00559399
0.00555422
0.00551428
0.00547499
0.00543715
0.00540145
0.00536848
0.00533869
0.00531257
0.0052913
0.00527423
0.00526068
0.00525012
0.00524227
0.00523681
0.00523345
0.00523187
0.00523178
0.00523292
0.00523509
0.00523811
0.00524185
0.00524623
0.00525119
0.00525669
0.00526275
0.00526938
0.00527667
0.00528479
0.00529399
0.00530466
0.0053176
0.00533404
0.00535942
0.00539882
0.00461893
0.00419292
0.00394662
0.00379642
0.00369979
0.00363416
0.00358666
0.00354927
0.00351339
0.00347957
0.00648413
0.00601062
0.00564606
0.00535502
0.00511696
0.00491861
0.0047507
0.00460654
0.00448032
0.00437831
0.00770932
0.00843882
0.00842942
0.00817035
0.00784206
0.00751326
0.00720947
0.00693906
0.0067036
0.00650201
0.00633231
0.00619221
0.00607927
0.00599096
0.00592455
0.00587715
0.0058457
0.00582709
0.00581827
0.00581636
0.00581882
0.00582346
0.00582852
0.00583261
0.00583469
0.00583397
0.0058299
0.00582198
0.00580983
0.00579314
0.00577164
0.00574527
0.00571421
0.00567891
0.00564016
0.00559892
0.00555625
0.00551316
0.00547062
0.00542954
0.00539078
0.00535503
0.00532281
0.00529449
0.00527028
0.00525021
0.00523418
0.00522265
0.00521498
0.00521031
0.00520806
0.0052078
0.00520917
0.00521184
0.00521555
0.0052201
0.00522533
0.00523112
0.00523739
0.00524413
0.00525131
0.00525896
0.00526718
0.00527612
0.00528604
0.00529732
0.00531077
0.00532765
0.00535349
0.00539355
0.00461558
0.0041906
0.00394479
0.00379477
0.00369816
0.00363248
0.00358494
0.00354758
0.00351192
0.00347917
0.00648409
0.00601054
0.00564594
0.00535486
0.00511677
0.0049184
0.00475048
0.00460632
0.00448011
0.00437808
0.00770742
0.00843551
0.00842499
0.00816516
0.00783644
0.00750746
0.00720369
0.00693347
0.00669833
0.0064972
0.00632811
0.00618879
0.00607682
0.00598966
0.00592456
0.00587856
0.00584856
0.00583137
0.00582389
0.00582326
0.00582696
0.00583289
0.00583939
0.00584517
0.00584927
0.00585092
0.00584946
0.00584421
0.00583445
0.00581947
0.00579861
0.00577151
0.00573825
0.00569945
0.00565621
0.00560992
0.00556215
0.00551425
0.00546706
0.00542144
0.0053783
0.0053384
0.00530234
0.00527051
0.00524315
0.00522031
0.00520192
0.00518778
0.00517757
0.00517092
0.00516743
0.00516669
0.00516826
0.0051717
0.00517665
0.00518278
0.0051898
0.00519747
0.00520555
0.00521393
0.00522261
0.0052316
0.00524094
0.00525077
0.00526129
0.00527283
0.00528609
0.00530173
0.0053271
0.00536768
0.00459515
0.00417248
0.00392741
0.00377739
0.00368047
0.00361442
0.00356654
0.00352901
0.00349519
0.00346537
0.00648405
0.00601046
0.00564582
0.00535472
0.00511663
0.00491828
0.00475044
0.00460642
0.00448046
0.00437879
0.00771079
0.00843739
0.00842461
0.00816271
0.00783241
0.00750257
0.00719885
0.00692978
0.00669706
0.00649975
0.00633597
0.0062034
0.00609942
0.00602117
0.00596547
0.00592891
0.00590801
0.00589932
0.00589964
0.00590618
0.00591657
0.00592895
0.00594189
0.0059543
0.00596526
0.00597395
0.00597937
0.00598031
0.00597526
0.0059625
0.00594042
0.00590801
0.00586528
0.00581333
0.00575427
0.00569079
0.0056254
0.00556172
0.00550104
0.00544401
0.00539125
0.00534317
0.00529997
0.00526173
0.00522843
0.0052
0.00517628
0.00515704
0.00514202
0.00513089
0.00512332
0.00511888
0.00511717
0.00511786
0.00512076
0.0051256
0.00513207
0.00513988
0.00514887
0.0051589
0.00516976
0.00518132
0.00519355
0.00520651
0.00522035
0.00523527
0.00525181
0.00527072
0.00529582
0.00533094
0.00455046
0.00411909
0.00386728
0.00371278
0.00361329
0.00354615
0.00349834
0.00346205
0.00343526
0.00340985
0.00648402
0.00601038
0.00564571
0.00535459
0.00511649
0.00491816
0.00475038
0.00460645
0.00448067
0.00437911
0.00770539
0.00842893
0.00841743
0.00815955
0.00783597
0.00751775
0.00723185
0.00698729
0.00678545
0.00662433
0.00650034
0.0064091
0.00634585
0.00630578
0.00628429
0.00627716
0.0062807
0.00629181
0.00630798
0.00632729
0.00634833
0.00637007
0.00639178
0.00641293
0.00643294
0.00645113
0.0064664
0.00647704
0.00648057
0.00647366
0.0064525
0.00641376
0.00635531
0.00627676
0.00617967
0.00606734
0.00594435
0.00581736
0.00569575
0.00558744
0.00549519
0.00541903
0.00535765
0.00530908
0.0052712
0.00524193
0.00521946
0.00520232
0.00518941
0.00517994
0.00517348
0.00516876
0.00516874
0.00517372
0.00518312
0.00519611
0.00521193
0.0052299
0.0052493
0.00526966
0.0052908
0.00531273
0.00533546
0.00535908
0.00538367
0.00540946
0.00543696
0.0054671
0.00550395
0.00554933
0.00463564
0.00412329
0.00382215
0.00363854
0.00352318
0.00344878
0.00339935
0.0033651
0.00333953
0.00331816
0.00648398
0.0060103
0.00564561
0.00535448
0.00511642
0.00491818
0.00475064
0.00460726
0.00448319
0.00437499
0.00430097
0.00423746
0.0041724
0.00410713
0.00404643
0.00398992
0.00393746
0.00388891
0.00384412
0.00380292
0.00376511
0.00373049
0.00369884
0.00366997
0.00364367
0.00361976
0.00359802
0.00357829
0.00356039
0.00354415
0.00352944
0.00351614
0.00350416
0.00349343
0.00348393
0.00347564
0.00346852
0.0034625
0.00345741
0.00345294
0.00344854
0.00344362
0.00343752
0.00342975
0.00341996
0.00340801
0.00339392
0.00338041
0.00337264
0.00336649
0.00335942
0.00335005
0.00333788
0.00332296
0.00330572
0.00328685
0.00326707
0.00324696
0.00322697
0.00320738
0.0031883
0.00317226
0.00316088
0.00315331
0.00314877
0.00314661
0.00314631
0.00314747
0.00314994
0.00315358
0.00315813
0.00316329
0.00316886
0.00317469
0.00318067
0.00318676
0.00319296
0.00319927
0.00320578
0.00321258
0.00321583
0.00321822
0.00322088
0.00322411
0.00322788
0.00323207
0.00323642
0.00324055
0.00324302
0.00324222
0.00648395
0.00601022
0.0056455
0.00535434
0.00511628
0.00491806
0.00475057
0.00460728
0.00448337
0.00437529
0.00428057
0.00419714
0.0041231
0.00405694
0.00399744
0.00394365
0.00389479
0.00385023
0.00380944
0.00377198
0.00373748
0.00370564
0.0036762
0.00364894
0.0036237
0.00360033
0.00357871
0.00355873
0.00354028
0.00352329
0.00350767
0.0034934
0.00348043
0.0034688
0.00345853
0.00344973
0.00344248
0.00343682
0.00343269
0.0034297
0.00342719
0.00342431
0.00342023
0.00341434
0.0034063
0.00339604
0.00338369
0.00336946
0.00335365
0.0033364
0.00331812
0.00329915
0.00327979
0.00326034
0.00324111
0.00322242
0.00320459
0.00318794
0.00317272
0.00315914
0.00314734
0.00313742
0.00312941
0.00312322
0.00311872
0.00311572
0.00311402
0.00311341
0.00311371
0.00311482
0.00311669
0.00311929
0.00312257
0.00312646
0.00313093
0.00313594
0.00314147
0.0031475
0.00315403
0.00316103
0.00316835
0.00317592
0.00318383
0.00319214
0.00320085
0.00320991
0.00321913
0.00322825
0.00323629
0.00324143
0.00648391
0.00601015
0.00564539
0.00535421
0.00511614
0.00491794
0.00475051
0.00460735
0.00448367
0.0043759
0.00428135
0.00419788
0.00412368
0.0040573
0.00399758
0.00394356
0.00389446
0.00384966
0.00380862
0.0037709
0.00373612
0.00370397
0.00367418
0.00364655
0.0036209
0.00359709
0.00357502
0.00355457
0.00353564
0.00351817
0.0035021
0.00348739
0.00347404
0.00346212
0.00345174
0.00344311
0.00343648
0.00343208
0.00343005
0.00342994
0.00343075
0.00343119
0.00342999
0.00342625
0.00341951
0.00340968
0.00339702
0.0033818
0.00336441
0.00334527
0.00332485
0.00330364
0.00328207
0.00326061
0.00323963
0.00321953
0.00320062
0.00318321
0.00316751
0.00315374
0.00314199
0.00313228
0.00312456
0.00311872
0.00311462
0.0031121
0.00311098
0.00311109
0.00311228
0.00311439
0.00311734
0.0031211
0.0031256
0.00313086
0.00313689
0.00314373
0.00315141
0.00315998
0.00316948
0.00317989
0.00319121
0.00320339
0.0032164
0.00323019
0.00324461
0.0032595
0.00327455
0.00328945
0.0033035
0.0033148
0.00648388
0.00601007
0.00564527
0.00535406
0.00511596
0.00491773
0.00475028
0.0046071
0.00448339
0.00437556
0.00428087
0.00419715
0.00412267
0.00405599
0.00399596
0.00394164
0.00389224
0.00384712
0.00380577
0.00376773
0.00373263
0.00370015
0.00367003
0.00364205
0.00361605
0.00359188
0.00356944
0.00354863
0.00352935
0.00351153
0.00349511
0.00348007
0.00346642
0.00345425
0.00344375
0.00343529
0.00342933
0.00342648
0.00342738
0.00343166
0.00343786
0.0034439
0.00344759
0.00344751
0.00344306
0.0034342
0.0034216
0.00340577
0.00338724
0.00336656
0.00334429
0.00332103
0.0032973
0.00327367
0.00325062
0.00322862
0.00320807
0.00318932
0.00317264
0.00315821
0.00314615
0.00313647
0.00312915
0.0031241
0.00312118
0.00312024
0.0031211
0.00312361
0.00312772
0.00313389
0.00314192
0.00315162
0.00316297
0.00317592
0.00319039
0.00320634
0.00322369
0.00324234
0.00326213
0.00328285
0.00330438
0.00332663
0.00334919
0.00337174
0.00339396
0.00341558
0.00343624
0.00345564
0.00347261
0.0034866
0.00648385
0.00601
0.00564515
0.0053539
0.00511576
0.00491749
0.00475001
0.0046068
0.00448306
0.00437517
0.00428039
0.00419652
0.00412182
0.00405488
0.00399455
0.00393988
0.00389012
0.00384461
0.00380284
0.00376437
0.00372882
0.00369589
0.00366531
0.00363688
0.00361041
0.00358579
0.00356289
0.00354164
0.00352193
0.00350367
0.00348681
0.00347131
0.00345718
0.00344452
0.00343358
0.00342487
0.00341918
0.00341777
0.00342296
0.00343563
0.00345405
0.00347394
0.00349036
0.0035004
0.00350289
0.00349785
0.00348679
0.00347181
0.0034537
0.00343325
0.00341121
0.0033883
0.00336523
0.00334264
0.00332114
0.00330128
0.00328352
0.00326825
0.00325574
0.00324619
0.00323966
0.00323615
0.00323558
0.00323781
0.00324268
0.00325001
0.0032606
0.00327463
0.0032915
0.00331024
0.00333057
0.00335241
0.00337545
0.00339946
0.00342401
0.0034496
0.00347563
0.00350159
0.00352704
0.00355168
0.00357524
0.00359756
0.00361852
0.00363804
0.00365606
0.00367255
0.00368736
0.00370046
0.00371083
0.00371807
0.00648381
0.00600992
0.00564502
0.00535372
0.00511552
0.0049172
0.00474965
0.00460635
0.00448251
0.00437449
0.00427952
0.00419543
0.00412046
0.00405321
0.00399254
0.0039375
0.00388734
0.00384141
0.0037992
0.00376026
0.00372423
0.0036908
0.00365971
0.00363077
0.00360379
0.00357865
0.00355524
0.00353348
0.00351327
0.0034945
0.00347711
0.00346103
0.00344624
0.00343283
0.00342103
0.00341154
0.0034054
0.00340533
0.00342149
0.00346306
0.00352771
0.00359996
0.0036638
0.0037132
0.00374664
0.00376522
0.00376978
0.00376637
0.00375978
0.00375032
0.00373834
0.00372427
0.00370866
0.00369219
0.00367561
0.00365966
0.00364506
0.0036324
0.00362215
0.00361467
0.00361016
0.00360869
0.00361024
0.00361472
0.00362279
0.00363479
0.00364923
0.00366484
0.00368279
0.00370231
0.00372273
0.00374339
0.00376376
0.00378349
0.00380234
0.0038201
0.00383666
0.00385193
0.00386585
0.0038784
0.00388957
0.00389938
0.00390788
0.00391511
0.00392113
0.00392599
0.00392965
0.00393216
0.00393268
0.00393132
0.00648378
0.00600983
0.00564489
0.00535353
0.00511527
0.00491688
0.00474925
0.00460585
0.00448189
0.00437373
0.00427859
0.00419428
0.00411905
0.0040515
0.00399049
0.00393507
0.00388448
0.00383808
0.00379535
0.00375586
0.00371925
0.00368522
0.00365352
0.00362395
0.00359634
0.00357058
0.00354656
0.00352418
0.00350336
0.00348398
0.00346594
0.00344912
0.00343345
0.00341891
0.00340559
0.00339423
0.00338596
0.00338714
0.00345399
0.00363256
0.00389079
0.00414865
0.00435431
0.00450314
0.00459998
0.00465439
0.00467566
0.00466826
0.00463851
0.00459765
0.00454876
0.00449503
0.00443947
0.00438467
0.00433267
0.00428503
0.00424274
0.00420642
0.00417622
0.00415238
0.00413466
0.00412284
0.00411706
0.00411567
0.00411752
0.00412132
0.0041264
0.00413222
0.00413835
0.00414444
0.00415012
0.00415524
0.00415967
0.00416331
0.00416605
0.00416786
0.0041687
0.00416857
0.00416748
0.00416548
0.00416262
0.00415897
0.00415461
0.00414964
0.00414412
0.00413813
0.00413164
0.00412476
0.00411665
0.00410781
0.00648375
0.00600975
0.00564475
0.00535333
0.005115
0.00491653
0.0047488
0.00460529
0.00448118
0.00437286
0.00427751
0.00419295
0.00411744
0.00404956
0.00398817
0.00393233
0.00388127
0.00383435
0.00379105
0.00375094
0.00371367
0.00367895
0.00364653
0.00361623
0.0035879
0.00356141
0.00353667
0.0035136
0.00349208
0.00347201
0.00345325
0.00343567
0.0034191
0.00340341
0.00338838
0.00337468
0.00336286
0.00337116
0.00370558
0.00439018
0.00509188
0.00559127
0.00586225
0.00596753
0.00596037
0.00588466
0.00577131
0.00564046
0.00550461
0.00536936
0.00524241
0.00512734
0.00502564
0.00493786
0.00486422
0.00480456
0.00475823
0.00472147
0.00469183
0.00466763
0.00464763
0.00463083
0.00461642
0.00460371
0.00459155
0.00457951
0.00456774
0.00455648
0.0045454
0.00453427
0.00452281
0.00451085
0.0044984
0.0044855
0.00447215
0.00445837
0.00444418
0.00442964
0.00441481
0.00439975
0.00438453
0.00436923
0.00435395
0.00433874
0.00432369
0.00430884
0.00429416
0.00427975
0.00426478
0.00424998
0.00648372
0.00600967
0.00564462
0.00535314
0.00511473
0.00491617
0.00474834
0.0046047
0.00448045
0.00437195
0.00427639
0.00419158
0.00411578
0.00404755
0.00398577
0.00392948
0.00387791
0.00383042
0.00378647
0.00374565
0.00370761
0.00367206
0.00363878
0.0036076
0.00357838
0.00355102
0.00352543
0.00350153
0.00347922
0.00345836
0.00343882
0.00342044
0.00340298
0.00338617
0.00336926
0.00335237
0.00333305
0.00337427
0.00461556
0.00604675
0.00696345
0.00735431
0.00736081
0.00715732
0.00686383
0.00655166
0.00625868
0.00600177
0.00578583
0.0056105
0.00547203
0.00536695
0.00529307
0.00524321
0.00520671
0.00517742
0.00515188
0.00512816
0.00510521
0.00508247
0.00505965
0.0050366
0.00501326
0.00498957
0.00496553
0.00494114
0.00491629
0.00489074
0.00486474
0.00483843
0.00481196
0.0047856
0.00475926
0.00473291
0.00470657
0.00468035
0.0046543
0.0046285
0.00460303
0.00457794
0.00455332
0.00452922
0.00450573
0.00448289
0.00446075
0.00443935
0.00441864
0.0043987
0.0043787
0.00435955
0.00648369
0.00600961
0.0056445
0.00535296
0.00511448
0.00491583
0.00474789
0.00460413
0.00447972
0.00437103
0.00427525
0.00419017
0.00411405
0.00404546
0.00398325
0.00392647
0.00387434
0.0038262
0.00378153
0.0037399
0.00370095
0.00366443
0.00363012
0.00359788
0.0035676
0.0035392
0.00351263
0.0034878
0.0034646
0.00344291
0.00342262
0.00340369
0.00338604
0.00336969
0.003354
0.00333914
0.00332144
0.00336632
0.0047042
0.00621955
0.00717686
0.00753851
0.00752808
0.00730327
0.00698273
0.00664277
0.00632625
0.00605341
0.00583143
0.00566067
0.00554234
0.00547403
0.00543745
0.00541909
0.00540948
0.00540244
0.00539436
0.00538338
0.00536876
0.00535043
0.00532864
0.0053038
0.00527639