/*--------------------------------*- C++ -*----------------------------------*\
| =========                 |                                                 |
| \\      /  F ield         | OpenFOAM: The Open Source CFD Toolbox           |
|  \\    /   O peration     | Version:  v2012                                 |
|   \\  /    A nd           | Website:  www.openfoam.com                      |
|    \\/     M anipulation  |                                                 |
\*---------------------------------------------------------------------------*/
FoamFile
{
    version     2.0;
    format      ascii;
    class       volScalarField;
    location    "150/air";
    object      qin;
}
// * * * * * * * * * * * * * * * * * * * * * * * * * * * * * * * * * * * * * //

dimensions      [1 0 -3 0 0 0 0];


internalField   uniform 0;

boundaryField
{
    inlet
    {
        type            calculated;
        value           nonuniform List<scalar> 
3200
(
554.944
558.396
556.805
555.539
554.454
553.409
552.38
551.36
550.351
549.355
548.375
547.415
546.478
545.565
544.678
543.817
542.984
542.177
541.396
540.636
539.9
539.195
538.527
537.891
537.27
536.639
535.989
535.348
534.779
534.363
534.172
534.244
534.572
535.098
535.716
536.316
536.829
537.243
537.573
537.835
538.036
538.183
538.293
538.382
538.457
538.514
538.554
538.581
538.6
538.616
538.633
538.659
538.702
538.771
538.872
539.006
539.165
539.333
539.504
539.686
539.911
540.229
540.69
541.316
542.091
542.961
543.864
544.763
545.681
546.705
547.931
549.428
551.15
552.908
554.414
555.401
555.731
555.342
554.003
548.526
544.975
554.769
554.37
552.873
551.571
550.402
549.316
548.279
547.271
546.287
545.331
544.409
543.519
542.65
541.789
540.93
540.075
539.234
538.413
537.614
536.84
536.102
535.408
534.76
534.143
533.539
532.94
532.366
531.867
531.51
531.357
531.449
531.779
532.287
532.871
533.439
533.946
534.38
534.742
535.034
535.261
535.433
535.572
535.697
535.807
535.899
535.976
536.041
536.098
536.151
536.204
536.264
536.336
536.43
536.555
536.713
536.902
537.115
537.345
537.603
537.918
538.334
538.899
539.639
540.543
541.562
542.63
543.698
544.755
545.843
547.014
548.296
549.628
550.841
551.688
551.928
551.432
550.301
548.433
542.05
536.065
548.69
550.733
549.877
548.76
547.638
546.537
545.479
544.467
543.498
542.567
541.664
540.775
539.889
539.004
538.124
537.264
536.436
535.64
534.866
534.106
533.362
532.645
531.965
531.327
530.724
530.154
529.631
529.189
528.88
528.756
528.85
529.157
529.626
530.175
530.728
531.24
531.692
532.076
532.391
532.64
532.838
533.002
533.15
533.281
533.394
533.495
533.583
533.665
533.743
533.824
533.912
534.018
534.151
534.32
534.532
534.784
535.069
535.381
535.723
536.121
536.609
537.225
537.983
538.86
539.796
540.716
541.56
542.32
543.048
543.828
544.73
545.734
546.698
547.383
547.577
547.317
546.884
545.49
538.929
529.93
542.758
546.897
547.018
546.344
545.467
544.447
543.366
542.297
541.268
540.295
539.36
538.432
537.507
536.601
535.741
534.945
534.21
533.506
532.797
532.039
531.232
530.415
529.635
528.927
528.305
527.768
527.312
526.953
526.723
526.659
526.785
527.091
527.532
528.046
528.574
529.076
529.528
529.915
530.234
530.488
530.691
530.861
531.009
531.14
531.256
531.362
531.465
531.568
531.677
531.798
531.934
532.09
532.273
532.494
532.759
533.072
533.425
533.805
534.196
534.595
535.016
535.482
536.012
536.603
537.227
537.844
538.433
539.018
539.676
540.489
541.494
542.613
543.649
544.38
544.759
545.054
545.294
543.64
536.833
525.519
537.373
542.924
543.891
543.547
542.917
542.091
541.13
540.118
539.108
538.133
537.184
536.24
535.298
534.378
533.514
532.726
532.005
531.309
530.583
529.784
528.926
528.071
527.291
526.635
526.111
525.695
525.357
525.089
524.909
524.851
524.942
525.183
525.547
525.991
526.468
526.939
527.372
527.748
528.06
528.313
528.521
528.696
528.852
528.992
529.124
529.254
529.388
529.531
529.686
529.855
530.037
530.233
530.443
530.671
530.92
531.187
531.464
531.735
531.989
532.227
532.469
532.751
533.11
533.57
534.132
534.783
535.51
536.314
537.217
538.224
539.3
540.349
541.247
541.956
542.65
543.542
543.978
541.573
535.004
521.92
532.256
538.666
540.413
540.311
539.88
539.335
538.684
537.965
537.206
536.366
535.42
534.413
533.389
532.369
531.385
530.478
529.663
528.922
528.2
527.492
526.814
526.165
525.563
525.043
524.614
524.257
523.946
523.67
523.442
523.292
523.256
523.359
523.598
523.943
524.353
524.781
525.19
525.557
525.873
526.142
526.372
526.578
526.766
526.943
527.114
527.283
527.453
527.625
527.799
527.972
528.14
528.3
528.453
528.603
528.754
528.911
529.072
529.231
529.385
529.549
529.754
530.053
530.494
531.11
531.894
532.803
533.768
534.723
535.628
536.474
537.278
538.066
538.879
539.813
541.008
542.268
542.33
539.136
533.335
518.558
527.3
534.253
536.949
537.253
537.047
536.779
536.447
536.067
535.666
535.062
534.129
532.992
531.798
530.599
529.434
528.378
527.49
526.788
526.203
525.76
525.452
525.133
524.696
524.161
523.598
523.061
522.58
522.168
521.829
521.574
521.427
521.42
521.566
521.844
522.212
522.621
523.032
523.418
523.768
524.08
524.359
524.613
524.848
525.067
525.269
525.456
525.628
525.786
525.927
526.05
526.154
526.242
526.321
526.4
526.494
526.612
526.758
526.935
527.147
527.409
527.759
528.243
528.896
529.722
530.671
531.649
532.548
533.29
533.875
534.39
534.975
535.758
536.82
538.188
539.757
540.907
540.221
536.533
531.831
515.584
522.967
530.222
534.04
534.979
535.024
534.947
534.782
534.558
534.378
533.991
533.126
531.906
530.569
529.221
527.926
526.791
525.913
525.332
524.939
524.749
524.736
524.636
524.215
523.488
522.614
521.758
521.024
520.457
520.046
519.766
519.609
519.591
519.726
520.001
520.373
520.796
521.232
521.653
522.043
522.395
522.707
522.984
523.228
523.445
523.632
523.793
523.929
524.041
524.133
524.209
524.274
524.336
524.407
524.502
524.634
524.816
525.055
525.352
525.708
526.134
526.649
527.275
528.016
528.838
529.666
530.405
530.979
531.383
531.711
532.133
532.827
533.894
535.327
537.005
538.585
539.223
537.756
533.979
530.465
513.517
519.752
526.937
531.778
533.432
533.681
533.689
533.6
533.396
533.239
532.949
532.191
531.002
529.634
528.247
526.928
525.797
524.966
524.484
524.209
524.115
524.178
524.117
523.642
522.747
521.649
520.588
519.72
519.099
518.702
518.473
518.374
518.402
518.565
518.852
519.227
519.646
520.075
520.489
520.869
521.203
521.486
521.72
521.913
522.075
522.211
522.324
522.42
522.501
522.576
522.65
522.731
522.827
522.95
523.112
523.327
523.609
523.961
524.378
524.85
525.366
525.92
526.506
527.106
527.688
528.206
528.623
528.94
529.221
529.595
530.215
531.196
532.561
534.22
535.942
537.224
537.186
535.126
531.592
529.181
512.655
517.777
524.385
529.869
532.18
532.557
532.555
532.559
532.446
532.274
531.969
531.267
530.144
528.822
527.491
526.249
525.198
524.434
523.998
523.755
523.629
523.606
523.485
522.998
522.11
521.027
520.003
519.195
518.643
518.309
518.129
518.06
518.094
518.236
518.478
518.786
519.125
519.466
519.79
520.082
520.329
520.525
520.678
520.804
520.914
521.012
521.099
521.179
521.256
521.339
521.435
521.552
521.697
521.878
522.108
522.401
522.763
523.192
523.665
524.15
524.616
525.039
525.41
525.734
526.025
526.299
526.578
526.901
527.326
527.932
528.804
529.999
531.506
533.199
534.759
535.58
534.882
532.487
529.399
527.917
512.769
516.774
522.357
528.009
530.903
531.421
531.318
531.389
531.495
531.448
531.144
530.426
529.297
527.984
526.714
525.6
524.704
524.066
523.69
523.456
523.265
523.111
522.903
522.456
521.714
520.827
520.006
519.373
518.937
518.647
518.449
518.321
518.271
518.311
518.431
518.606
518.803
519.002
519.191
519.358
519.492
519.596
519.689
519.787
519.894
520.001
520.096
520.179
520.258
520.347
520.458
520.601
520.782
521.011
521.295
521.64
522.037
522.465
522.885
523.251
523.531
523.717
523.838
523.946
524.103
524.36
524.745
525.263
525.915
526.719
527.726
528.993
530.512
532.117
533.392
533.683
532.432
529.945
527.389
526.635
513.297
516.316
520.652
526.065
529.504
530.311
530.075
530.065
530.375
530.613
530.462
529.759
528.557
527.142
525.83
524.798
524.083
523.643
523.4
523.225
523.013
522.762
522.469
522.051
521.463
520.791
520.182
519.71
519.356
519.06
518.785
518.54
518.358
518.261
518.245
518.286
518.358
518.444
518.533
518.611
518.672
518.726
518.792
518.884
518.994
519.106
519.204
519.286
519.366
519.463
519.596
519.773
519.998
520.268
520.578
520.916
521.26
521.577
521.83
521.989
522.051
522.049
522.05
522.134
522.371
522.789
523.374
524.081
524.869
525.744
526.773
528.034
529.504
530.94
531.842
531.601
529.951
527.574
525.549
525.33
513.709
516.004
519.106
523.979
527.891
529.213
528.958
528.718
529.054
529.585
529.746
529.207
527.994
526.439
524.973
523.904
523.304
523.06
522.989
522.922
522.75
522.466
522.109
521.68
521.173
520.631
520.143
519.751
519.42
519.091
518.741
518.398
518.111
517.912
517.805
517.77
517.787
517.837
517.906
517.981
518.056
518.121
518.164
518.18
518.178
518.18
518.203
518.258
518.35
518.493
518.694
518.952
519.246
519.547
519.829
520.074
520.267
520.396
520.455
520.447
520.403
520.379
520.445
520.667
521.081
521.674
522.395
523.179
523.99
524.86
525.879
527.115
528.485
529.668
530.14
529.418
527.547
525.424
523.874
524.017
513.788
515.648
517.691
521.816
526.029
528.043
528.028
527.572
527.73
528.388
528.869
528.636
527.57
525.954
524.297
523.064
522.431
522.272
522.328
522.388
522.33
522.112
521.758
521.32
520.83
520.326
519.866
519.482
519.144
518.796
518.418
518.037
517.703
517.457
517.309
517.252
517.271
517.344
517.454
517.604
517.779
517.91
517.903
517.723
517.432
517.152
516.984
516.964
517.074
517.292
517.605
517.983
518.365
518.686
518.901
519.007
519.031
519.007
518.967
518.939
518.953
519.05
519.274
519.654
520.194
520.863
521.608
522.379
523.171
524.037
525.056
526.241
527.439
528.292
528.319
527.219
525.298
523.512
522.351
522.716
513.598
515.282
516.532
519.8
524.043
526.773
527.303
526.844
526.743
527.276
527.892
527.951
527.158
525.645
523.901
522.49
521.705
521.467
521.511
521.625
521.67
521.559
521.274
520.88
520.437
519.979
519.546
519.164
518.821
518.473
518.101
517.72
517.377
517.111
516.948
516.893
516.935
517.046
517.21
517.454
517.752
517.954
517.869
517.438
516.789
516.164
515.756
515.622
515.714
515.972
516.36
516.828
517.283
517.623
517.788
517.797
517.725
517.659
517.67
517.799
518.06
518.449
518.953
519.553
520.232
520.976
521.782
522.655
523.615
524.678
525.82
526.926
527.764
528
527.291
525.592
523.465
521.839
520.861
521.335
513.366
515.069
515.786
518.155
522.087
525.356
526.63
526.471
526.175
526.365
526.823
527.016
526.558
525.398
523.877
522.508
521.61
521.168
520.989
520.924
520.86
520.709
520.449
520.146
519.858
519.577
519.288
518.987
518.672
518.334
517.969
517.594
517.245
516.966
516.79
516.737
516.798
516.931
517.128
517.423
517.77
517.964
517.779
517.165
516.304
515.487
514.936
514.701
514.715
514.908
515.249
515.693
516.144
516.486
516.655
516.678
516.644
516.653
516.77
517.014
517.379
517.84
518.375
518.967
519.61
520.307
521.073
521.937
522.915
523.99
525.07
525.989
526.522
526.389
525.358
523.55
521.637
520.381
519.622
520.14
513.306
515.109
515.469
516.931
520.206
523.672
525.687
526.065
525.724
525.481
525.547
525.674
525.529
524.924
523.965
522.947
522.096
521.437
520.904
520.465
520.077
519.706
519.362
519.122
519.024
519.005
518.966
518.844
518.63
518.342
518.008
517.653
517.315
517.028
516.828
516.743
516.776
516.894
517.091
517.374
517.651
517.718
517.416
516.759
515.939
515.197
514.688
514.417
514.315
514.336
514.488
514.768
515.111
515.418
515.628
515.754
515.86
516.009
516.238
516.551
516.939
517.388
517.89
518.439
519.038
519.699
520.453
521.331
522.33
523.377
524.326
525.001
525.217
524.757
523.488
521.68
520.046
519.119
518.505
519.024
513.446
515.338
515.463
516.089
518.491
521.789
524.372
525.397
525.205
524.61
524.197
524.075
524.073
523.961
523.622
523.081
522.41
521.653
520.862
520.112
519.425
518.821
518.345
518.08
518.066
518.224
518.409
518.498
518.454
518.295
518.066
517.803
517.532
517.263
517.015
516.829
516.74
516.77
516.929
517.16
517.302
517.189
516.787
516.201
515.592
515.086
514.73
514.475
514.252
514.054
513.942
513.972
514.131
514.357
514.61
514.885
515.195
515.533
515.885
516.239
516.605
517.002
517.448
517.952
518.521
519.175
519.943
520.842
521.83
522.783
523.536
523.947
523.875
523.149
521.724
520.006
518.676
518.015
517.484
517.977
513.65
515.589
515.609
515.598
517.125
520.002
522.915
524.588
524.753
524.022
523.199
522.708
522.591
522.671
522.716
522.552
522.109
521.423
520.6
519.757
518.947
518.216
517.624
517.26
517.183
517.349
517.622
517.859
517.984
517.998
517.946
517.863
517.738
517.532
517.234
516.891
516.596
516.461
516.536
516.702
516.729
516.493
516.066
515.605
515.209
514.898
514.644
514.384
514.05
513.652
513.298
513.095
513.076
513.216
513.501
513.929
514.464
515.028
515.534
515.948
516.296
516.638
517.027
517.492
518.05
518.719
519.516
520.419
521.339
522.126
522.646
522.809
522.502
521.572
520.074
518.519
517.491
517.02
516.527
516.981
513.787
515.724
515.761
515.357
516.151
518.48
521.475
523.72
524.42
523.837
522.786
521.926
521.517
521.493
521.614
521.62
521.364
520.85
520.169
519.407
518.615
517.846
517.172
516.684
516.463
516.512
516.736
516.998
517.204
517.344
517.462
517.579
517.644
517.557
517.268
516.822
516.349
516.042
515.995
516.068
516.023
515.775
515.434
515.128
514.866
514.596
514.299
513.953
513.508
512.972
512.472
512.145
512.04
512.14
512.447
512.975
513.68
514.434
515.094
515.586
515.937
516.235
516.569
516.998
517.556
518.253
519.071
519.935
520.715
521.284
521.575
521.537
521.045
519.966
518.474
517.149
516.405
516.052
515.567
515.979
513.938
515.803
515.941
515.338
515.531
517.154
519.89
522.538
523.963
523.933
522.992
521.91
521.164
520.835
520.741
520.643
520.4
520.01
519.524
518.958
518.332
517.659
516.995
516.434
516.073
515.955
516.037
516.208
516.372
516.513
516.674
516.872
517.039
517.07
516.904
516.555
516.123
515.786
515.635
515.565
515.438
515.254
515.103
514.999
514.823
514.48
514.012
513.496
512.941
512.369
511.9
511.653
511.634
511.779
512.072
512.552
513.217
513.964
514.643
515.157
515.511
515.785
516.085
516.495
517.057
517.759
518.524
519.227
519.757
520.068
520.158
519.953
519.284
518.099
516.734
515.746
515.282
514.98
514.491
514.859
514.141
515.86
516.119
515.452
515.222
516.104
518.239
520.907
522.964
523.724
523.233
522.178
521.194
520.514
520.06
519.658
519.22
518.774
518.37
517.988
517.638
517.241
516.773
516.303
515.925
515.711
515.668
515.725
515.794
515.839
515.873
515.908
515.933
515.93
515.894
515.801
515.638
515.458
515.284
515.081
514.878
514.785
514.851
514.952
514.867
514.48
513.884
513.241
512.638
512.136
511.838
511.809
511.978
512.21
512.446
512.73
513.116
513.585
514.057
514.459
514.776
515.06
515.387
515.826
516.391
517.023
517.605
518.032
518.278
518.384
518.336
517.975
517.132
515.922
514.816
514.223
513.982
513.674
513.198
513.535
514.579
516.13
516.49
515.847
515.416
515.739
517.161
519.456
521.763
523.2
523.307
522.513
521.475
520.547
519.778
519.082
518.406
517.789
517.309
516.973
516.846
516.781
516.642
516.432
516.212
516.045
515.971
515.96
515.94
515.842
515.628
515.303
514.955
514.716
514.671
514.763
514.85
514.825
514.652
514.382
514.191
514.243
514.516
514.788
514.805
514.481
513.93
513.322
512.764
512.339
512.148
512.234
512.5
512.777
512.962
513.069
513.167
513.307
513.492
513.708
513.954
514.253
514.636
515.111
515.632
516.102
516.425
516.579
516.631
516.627
516.464
515.922
514.93
513.791
513.002
512.733
512.597
512.252
511.818
512.145
515.057
516.456
516.91
516.332
515.85
515.833
516.619
518.326
520.5
522.34
523.036
522.671
521.777
520.758
519.798
518.922
518.1
517.344
516.726
516.296
516.224
516.364
516.511
516.601
516.635
516.634
516.625
516.595
516.482
516.193
515.652
514.882
514.081
513.522
513.362
513.507
513.699
513.708
513.479
513.178
513.101
513.407
513.958
514.436
514.594
514.416
514.048
513.618
513.16
512.716
512.407
512.341
512.494
512.727
512.897
512.957
512.945
512.927
512.949
513.035
513.202
513.466
513.825
514.237
514.611
514.855
514.943
514.939
514.927
514.867
514.558
513.815
512.742
511.772
511.298
511.235
511.103
510.718
510.354
510.688
515.408
516.71
517.274
516.794
516.35
516.182
516.512
517.608
519.393
521.332
522.497
522.654
522.096
521.167
520.149
519.198
518.334
517.529
516.809
516.221
516.025
516.14
516.364
516.616
516.859
517.054
517.169
517.155
516.933
516.408
515.516
514.34
513.166
512.35
512.069
512.189
512.38
512.342
512.024
511.696
511.758
512.363
513.264
514.024
514.376
514.372
514.218
514.005
513.653
513.099
512.476
512.026
511.884
511.98
512.15
512.282
512.371
512.459
512.565
512.678
512.789
512.912
513.059
513.208
513.301
513.303
513.254
513.231
513.233
513.098
512.596
511.676
510.627
509.902
509.695
509.722
509.53
509.122
508.845
509.193
515.523
516.816
517.529
517.181
516.82
516.634
516.705
517.302
518.599
520.388
521.828
522.488
522.389
521.71
520.742
519.761
518.876
518.064
517.292
516.56
516.152
516.058
516.127
516.321
516.614
516.925
517.147
517.153
516.827
516.09
514.94
513.529
512.185
511.259
510.898
510.956
511.099
511.02
510.66
510.318
510.444
511.223
512.376
513.387
513.932
514.073
514.067
514.015
513.752
513.105
512.189
511.356
510.893
510.813
510.957
511.199
511.526
511.942
512.372
512.677
512.755
512.613
512.343
512.04
511.769
511.576
511.508
511.551
511.557
511.278
510.561
509.542
508.626
508.171
508.156
508.183
507.911
507.508
507.328
507.69
515.404
516.779
517.681
517.497
517.229
517.087
517.055
517.32
518.157
519.631
521.114
522.134
522.495
522.156
521.319
520.31
519.353
518.486
517.668
516.838
516.243
515.9
515.708
515.683
515.845
516.114
516.331
516.311
515.909
515.074
513.873
512.499
511.237
510.351
509.942
509.894
509.952
509.863
509.549
509.232
509.309
509.998
511.099
512.138
512.758
512.97
513.021
513.039
512.857
512.253
511.291
510.33
509.706
509.49
509.575
509.9
510.497
511.34
512.215
512.791
512.827
512.329
511.525
510.712
510.118
509.843
509.851
509.964
509.9
509.417
508.515
507.498
506.782
506.565
506.646
506.613
506.27
505.901
505.819
506.194
515.148
516.665
517.768
517.752
517.56
517.467
517.418
517.499
517.968
519.044
520.348
521.498
522.204
522.225
521.584
520.57
519.486
518.482
517.572
516.678
515.978
515.474
515.064
514.785
514.699
514.758
514.814
514.685
514.239
513.458
512.439
511.35
510.366
509.625
509.184
508.996
508.934
508.84
508.623
508.371
508.329
508.701
509.423
510.186
510.689
510.88
510.925
510.947
510.844
510.432
509.716
508.951
508.398
508.14
508.161
508.525
509.346
510.573
511.847
512.641
512.588
511.717
510.423
509.216
508.461
508.242
508.375
508.51
508.305
507.618
506.619
505.697
505.188
505.121
505.197
505.059
504.657
504.34
504.347
504.732
514.879
516.537
517.813
517.938
517.779
517.698
517.655
517.646
517.847
518.513
519.478
520.527
521.405
521.743
521.36
520.408
519.206
518.015
516.958
515.997
515.264
514.715
514.203
513.731
513.37
513.12
512.9
512.598
512.139
511.525
510.829
510.133
509.486
508.917
508.463
508.153
507.978
507.876
507.76
507.596
507.456
507.468
507.68
507.99
508.234
508.334
508.347
508.351
508.319
508.145
507.806
507.407
507.07
506.852
506.831
507.197
508.142
509.589
511.07
511.931
511.741
510.583
508.998
507.644
506.938
506.876
507.121
507.219
506.862
506.052
505.082
504.326
503.988
503.966
503.941
503.66
503.201
502.93
503.006
503.393
514.689
516.432
517.82
518.034
517.858
517.741
517.684
517.629
517.647
517.955
518.518
519.306
520.183
520.753
520.658
519.862
518.618
517.258
516.027
514.982
514.239
513.717
513.2
512.617
512.02
511.459
510.951
510.485
510.048
509.636
509.252
508.877
508.471
508.021
507.578
507.229
507.029
506.964
506.952
506.893
506.734
506.518
506.335
506.241
506.214
506.202
506.185
506.181
506.193
506.194
506.154
506.067
505.932
505.775
505.729
506.058
506.982
508.407
509.832
510.586
510.263
509.007
507.427
506.208
505.714
505.832
506.127
506.147
505.693
504.898
504.086
503.543
503.331
503.268
503.078
502.628
502.097
501.846
501.957
502.324
514.599
516.338
517.767
518.015
517.782
517.592
517.493
517.404
517.313
517.357
517.558
518.021
518.76
519.438
519.593
519.011
517.828
516.381
515.015
513.887
513.137
512.66
512.179
511.542
510.776
509.982
509.269
508.713
508.333
508.083
507.885
507.646
507.308
506.888
506.484
506.211
506.125
506.193
506.319
506.381
506.285
506.02
505.671
505.359
505.157
505.061
505.026
505.024
505.056
505.126
505.211
505.262
505.222
505.095
505.019
505.248
505.98
507.12
508.229
508.747
508.362
507.254
505.984
505.127
504.917
505.157
505.415
505.347
504.889
504.246
503.697
503.39
503.271
503.131
502.759
502.138
501.525
501.259
501.363
501.681
514.556
516.202
517.614
517.858
517.556
517.282
517.129
517.015
516.873
516.765
516.706
516.859
517.364
517.994
518.284
517.906
516.868
515.458
514.057
512.902
512.161
511.731
511.289
510.628
509.761
508.834
508.031
507.474
507.167
507.004
506.836
506.551
506.137
505.688
505.356
505.258
505.4
505.69
505.993
506.186
506.185
505.981
505.641
505.288
505.025
504.885
504.838
504.842
504.879
504.948
505.033
505.086
505.051
504.92
504.792
504.849
505.23
505.875
506.493
506.718
506.376
505.63
504.884
504.498
504.548
504.812
504.963
504.821
504.448
504.053
503.813
503.743
503.707
503.498
502.976
502.217
501.532
501.232
501.298
501.533
514.478
515.965
517.328
517.562
517.205
516.861
516.661
516.532
516.384
516.218
516.008
515.905
516.117
516.552
516.826
516.588
515.747
514.501
513.204
512.12
511.437
511.062
510.659
509.991
509.069
508.087
507.278
506.772
506.528
506.377
506.136
505.717
505.183
504.709
504.486
504.602
504.999
505.52
505.992
506.292
506.372
506.247
505.98
505.669
505.41
505.252
505.188
505.187
505.221
505.276
505.334
505.364
505.322
505.188
504.994
504.827
504.773
504.834
504.909
504.861
504.642
504.354
504.181
504.233
504.452
504.649
504.66
504.479
504.248
504.133
504.191
504.335
504.383
504.143
503.533
502.699
501.981
501.652
501.669
501.808
514.299
515.6
516.911
517.152
516.772
516.387
516.158
516.021
515.886
515.715
515.433
515.133
515.042
515.189
515.33
515.162
514.542
513.56
512.488
511.571
510.998
510.695
510.338
509.678
508.737
507.744
506.962
506.509
506.298
506.115
505.774
505.236
504.631
504.183
504.081
504.374
504.949
505.61
506.172
506.524
506.645
506.572
506.37
506.114
505.876
505.703
505.609
505.584
505.607
505.662
505.729
505.782
505.777
505.665
505.411
505.025
504.56
504.098
503.715
503.467
503.393
503.509
503.786
504.129
504.394
504.469
504.353
504.174
504.103
504.24
504.545
504.863
504.993
504.763
504.133
503.296
502.599
502.272
502.256
502.311
514.006
515.127
516.402
516.678
516.31
515.91
515.665
515.52
515.392
515.229
514.914
514.472
514.115
513.968
513.933
513.799
513.398
512.722
511.936
511.235
510.8
510.58
510.278
509.647
508.719
507.742
506.99
506.569
506.359
506.131
505.718
505.125
504.523
504.141
504.137
504.511
505.124
505.781
506.316
506.647
506.769
506.725
506.573
506.365
506.148
505.96
505.828
505.764
505.768
505.832
505.94
506.06
506.127
506.057
505.764
505.214
504.463
503.659
502.999
502.651
502.686
503.042
503.544
503.975
504.173
504.11
503.905
503.759
503.833
504.161
504.641
505.086
505.292
505.099
504.504
503.725
503.101
502.815
502.794
502.802
513.631
514.597
515.857
516.192
515.858
515.456
515.195
515.033
514.893
514.723
514.388
513.86
513.317
512.947
512.769
512.659
512.448
512.049
511.53
511.034
510.728
510.59
510.353
509.781
508.903
507.974
507.262
506.858
506.631
506.356
505.897
505.293
504.726
504.404
504.437
504.787
505.308
505.832
506.241
506.491
506.59
506.567
506.462
506.307
506.121
505.932
505.772
505.672
505.652
505.72
505.866
506.045
506.173
506.133
505.818
505.19
504.32
503.397
502.663
502.312
502.4
502.811
503.31
503.654
503.711
503.524
503.274
503.174
503.353
503.799
504.381
504.906
505.172
505.029
504.499
503.82
503.304
503.088
503.089
503.094
513.223
514.067
515.325
515.728
515.434
515.028
514.745
514.555
514.385
514.193
513.845
513.282
512.652
512.162
511.903
511.809
511.722
511.511
511.186
510.847
510.65
510.59
510.429
509.943
509.159
508.319
507.672
507.287
507.028
506.691
506.173
505.545
504.993
504.691
504.703
504.958
505.319
505.65
505.889
506.034
506.1
506.094
506.036
505.942
505.808
505.644
505.485
505.372
505.335
505.393
505.54
505.729
505.862
505.816
505.49
504.862
504.024
503.168
502.517
502.229
502.319
502.651
502.998
503.159
503.056
502.778
502.515
502.457
502.695
503.192
503.816
504.38
504.683
504.587
504.134
503.569
503.174
503.039
503.078
503.11
512.78
513.52
514.775
515.243
514.987
514.569
514.258
514.035
513.831
513.612
513.264
512.714
512.08
511.557
511.255
511.138
511.073
510.935
510.714
510.486
510.382
510.397
510.316
509.934
509.28
508.572
508.022
507.666
507.362
506.933
506.32
505.628
505.046
504.722
504.681
504.827
505.03
505.187
505.276
505.329
505.359
505.355
505.328
505.286
505.212
505.1
504.981
504.89
504.858
504.898
505.005
505.136
505.207
505.114
504.784
504.217
503.513
502.835
502.352
502.158
502.229
502.43
502.583
502.552
502.318
501.987
501.732
501.702
501.957
502.455
503.075
503.641
503.956
503.894
503.517
503.069
502.789
502.729
502.803
502.872
512.433
513.097
514.346
514.86
514.624
514.186
513.844
513.591
513.36
513.123
512.788
512.282
511.695
511.194
510.868
510.691
510.566
510.405
510.218
510.072
510.06
510.157
510.16
509.885
509.368
508.802
508.352
508.01
507.627
507.057
506.295
505.492
504.851
504.502
504.427
504.505
504.607
504.647
504.637
504.629
504.632
504.619
504.601
504.596
504.579
504.533
504.472
504.423
504.404
504.418
504.461
504.502
504.483
504.335
504.011
503.528
502.974
502.477
502.147
502.024
502.061
502.142
502.135
501.965
501.652
501.306
501.07
501.059
501.311
501.79
502.388
502.938
503.245
503.196
502.873
502.513
502.32
502.315
502.417
502.519
511.703
512.225
513.424
513.997
513.811
513.368
513.004
512.737
512.494
512.255
511.951
511.513
510.986
510.472
510.016
509.609
509.242
508.938
508.756
508.722
508.83
508.999
509.049
508.863
508.499
508.111
507.781
507.447
506.964
506.25
505.368
504.505
503.855
503.508
503.416
503.454
503.508
503.52
503.504
503.476
503.427
503.354
503.281
503.236
503.225
503.239
503.27
503.311
503.34
503.333
503.269
503.149
502.979
502.764
502.504
502.212
501.926
501.7
501.579
501.565
501.603
501.604
501.488
501.231
500.886
500.557
500.356
500.361
500.595
501.032
501.58
502.079
502.349
502.313
502.069
501.823
501.713
501.724
501.808
501.894
)
;
    }
    outlet
    {
        type            calculated;
        value           nonuniform List<scalar> 
3200
(
592.975
593.768
590.107
587.223
584.68
582.336
580.134
578.039
575.995
574.607
573.701
572.117
570.397
569.064
567.865
566.655
565.429
564.263
563.273
562.422
561.552
560.419
558.851
556.666
554.235
551.999
550.027
548.291
546.802
545.615
544.791
544.36
544.295
544.517
544.919
545.383
545.798
546.09
546.288
546.47
546.694
546.947
547.102
546.89
546.087
544.904
543.684
542.644
541.915
541.561
541.62
542.119
543.091
544.579
546.666
549.374
551.418
552.233
552.724
553.22
553.709
554.135
554.506
554.913
555.497
556.369
557.549
558.95
560.412
561.806
563.078
564.213
565.219
566.128
566.992
567.899
568.954
570.211
571.82
572.176
576.927
588.141
586.871
584.363
581.98
579.748
577.662
575.711
573.873
572.483
571.328
569.869
568.368
567.134
565.993
564.837
563.668
562.544
561.557
560.693
559.875
558.799
557.301
555.264
552.991
550.84
548.906
547.185
545.701
544.511
543.677
543.229
543.141
543.338
543.715
544.159
544.566
544.869
545.079
545.255
545.441
545.629
545.711
545.462
544.677
543.524
542.337
541.332
540.628
540.284
540.337
540.81
541.726
543.109
544.996
547.35
549.209
550.088
550.621
551.107
551.57
551.973
552.335
552.751
553.358
554.261
555.463
556.862
558.293
559.63
560.825
561.89
562.862
563.777
564.643
565.429
566.116
566.778
566.939
562.039
563.993
579.826
581.884
580.557
578.676
576.616
574.557
572.621
570.852
569.425
568.083
566.656
565.286
564.118
563.017
561.905
560.778
559.671
558.656
557.73
556.913
555.886
554.483
552.627
550.544
548.519
546.656
544.976
543.513
542.324
541.468
540.976
540.831
540.969
541.297
541.71
542.112
542.433
542.662
542.833
542.984
543.119
543.16
542.936
542.265
541.252
540.185
539.276
538.639
538.334
538.389
538.819
539.634
540.85
542.473
544.435
546.048
546.957
547.57
548.104
548.586
548.99
549.339
549.73
550.301
551.159
552.315
553.678
555.099
556.459
557.704
558.825
559.813
560.635
561.233
561.607
561.983
562.573
561.798
554.746
554.931
571.35
575.888
575.768
574.608
573.017
571.204
569.377
567.65
566.184
564.713
563.266
561.973
560.869
559.805
558.714
557.59
556.47
555.427
554.45
553.636
552.675
551.373
549.684
547.787
545.896
544.105
542.452
540.984
539.771
538.88
538.347
538.158
538.251
538.537
538.911
539.282
539.584
539.802
539.962
540.103
540.23
540.267
540.079
539.53
538.683
537.765
536.972
536.411
536.136
536.172
536.534
537.237
538.298
539.693
541.328
542.696
543.57
544.224
544.799
545.31
545.729
546.081
546.467
547.032
547.893
549.066
550.463
551.926
553.308
554.507
555.462
556.138
556.526
556.71
556.982
557.779
558.731
556.961
549.299
548.6
563.896
569.996
570.72
570.067
568.983
567.602
566.077
564.518
563.115
561.571
560.036
558.735
557.655
556.598
555.491
554.339
553.198
552.147
551.133
550.339
549.483
548.315
546.794
545.082
543.342
541.655
540.065
538.623
537.401
536.471
535.873
535.603
535.606
535.8
536.089
536.388
536.644
536.845
537.014
537.175
537.315
537.355
537.192
536.745
536.051
535.277
534.59
534.095
533.839
533.849
534.15
534.768
535.71
536.914
538.269
539.419
540.228
540.887
541.483
542.017
542.459
542.834
543.25
543.858
544.771
545.994
547.409
548.819
550.034
550.931
551.474
551.716
551.805
552.033
552.83
554.31
555.11
552.12
544.967
543.948
557.522
564.677
566.101
565.691
564.895
563.853
562.653
561.384
560.225
558.766
557.155
555.764
554.635
553.545
552.406
551.237
550.105
549.084
548.061
547.292
546.571
545.572
544.217
542.658
541.038
539.433
537.896
536.483
535.266
534.313
533.667
533.323
533.235
533.328
533.518
533.736
533.943
534.134
534.32
534.502
534.646
534.677
534.527
534.16
533.595
532.94
532.338
531.894
531.657
531.659
531.933
532.505
533.355
534.387
535.506
536.475
537.217
537.869
538.484
539.051
539.541
539.975
540.455
541.118