/*--------------------------------*- C++ -*----------------------------------*\
| =========                 |                                                 |
| \\      /  F ield         | OpenFOAM: The Open Source CFD Toolbox           |
|  \\    /   O peration     | Version:  v2012                                 |
|   \\  /    A nd           | Website:  www.openfoam.com                      |
|    \\/     M anipulation  |                                                 |
\*---------------------------------------------------------------------------*/
FoamFile
{
    version     2.0;
    format      ascii;
    class       volScalarField;
    location    "150/air";
    object      qr;
}
// * * * * * * * * * * * * * * * * * * * * * * * * * * * * * * * * * * * * * //

dimensions      [1 0 -3 0 0 0 0];


internalField   uniform 0;

boundaryField
{
    inlet
    {
        type            calculated;
        value           nonuniform List<scalar> 
3200
(
46.4322
49.885
48.2935
47.0277
45.9422
44.8981
43.8686
42.849
41.8397
40.8433
39.8636
38.904
37.9668
37.0541
36.167
35.3061
34.4725
33.666
32.8843
32.1249
31.389
30.6837
30.0155
29.3801
28.7586
28.1272
27.4778
26.837
26.2679
25.8521
25.6608
25.7327
26.0611
26.5867
27.2048
27.8042
28.3174
28.7315
29.0616
29.3237
29.5249
29.672
29.7812
29.8708
29.9455
30.0022
30.0426
30.0701
30.089
30.1044
30.1219
30.1481
30.191
30.2597
30.3611
30.4951
30.6532
30.8218
30.9926
31.1743
31.3994
31.7177
32.1783
32.8047
33.5798
34.45
35.3522
36.2518
37.1701
38.1933
39.4201
40.9171
42.6389
44.3969
45.9027
46.8901
47.2193
46.8307
45.4919
40.0142
36.4638
46.2579
45.859
44.3616
43.0601
41.8906
40.8044
39.7679
38.7594
37.7752
36.8199
35.8981
35.0076
34.1383
33.2777
32.4185
31.5637
30.7226
29.9016
29.1022
28.3285
27.5903
26.897
26.2487
25.6321
25.0281
24.429
23.855
23.3558
22.9985
22.8459
22.9372
23.2678
23.7758
24.3598
24.928
25.4346
25.8688
26.2305
26.523
26.7498
26.9214
27.0605
27.1853
27.2954
27.3873
27.4645
27.5298
27.5867
27.6395
27.6929
27.7522
27.8246
27.9189
28.0433
28.2017
28.391
28.6034
28.8341
29.0919
29.4062
29.8226
30.3879
31.128
32.0315
33.0503
34.1189
35.1866
36.2437
37.3314
38.5029
39.7849
41.1169
42.3294
43.1763
43.4168
42.9208
41.7894
39.9221
33.5391
27.5537
40.1789
42.2221
41.3661
40.2491
39.1265
38.0255
36.9673
35.9559
34.9871
34.0559
33.1527
32.2637
31.3781
30.4923
29.6127
28.753
27.9248
27.1285
26.3549
25.5949
24.8504
24.1332
23.4541
22.8154
22.2125
21.6428
21.1193
20.6772
20.3684
20.2449
20.3391
20.6462
21.1147
21.6633
22.2162
22.7287
23.1808
23.5645
23.8792
24.1292
24.3262
24.4908
24.6382
24.7693
24.8831
24.9832
25.0721
25.1534
25.2317
25.3122
25.401
25.5066
25.6392
25.8087
26.0205
26.2728
26.5578
26.8692
27.2121
27.6094
28.0979
28.7137
29.4714
30.3482
31.2845
32.2043
33.0489
33.8082
34.5362
35.317
36.2183
37.2223
38.1864
38.8715
39.0661
38.8052
38.3724
36.979
30.4176
21.4188
34.2472
38.386
38.5065
37.8332
36.9554
35.9353
34.8549
33.7852
32.7564
31.7838
30.8484
29.921
28.9957
28.09
27.23
26.4339
25.6984
24.9951
24.2853
23.5276
22.7209
21.9038
21.1236
20.4155
19.7938
19.2562
18.8009
18.4419
18.2117
18.1481
18.2738
18.5796
19.021
19.5346
20.0624
20.5648
21.0169
21.4041
21.7226
21.9771
22.1802
22.3497
22.4981
22.6287
22.7444
22.851
22.9532
23.0564
23.1661
23.2868
23.4226
23.5786
23.7621
23.9826
24.248
24.5609
24.9142
25.2934
25.6844
26.0839
26.5049
26.9709
27.5008
28.0918
28.7156
29.3325
29.9217
30.5071
31.1643
31.9778
32.9829
34.102
35.1377
35.8684
36.2481
36.5428
36.7831
35.1285
28.3214
17.008
28.8621
34.4131
35.38
35.0352
34.4053
33.5794
32.6183
31.6065
30.5965
29.6219
28.673
27.7284
26.7863
25.867
25.0024
24.2145
23.4941
22.798
22.0719
21.2723
20.4144
19.5598
18.7799
18.1237
17.5998
17.1834
16.8455
16.5772
16.3976
16.3401
16.4309
16.6714
17.0355
17.4794
17.9571
18.4281
18.861
19.2363
19.5483
19.8018
20.0093
20.1852
20.3402
20.4807
20.6129
20.743
20.8769
21.0196
21.1746
21.3434
21.5257
21.7214
21.9318
22.16
22.4085
22.6757
22.9522
23.2235
23.4777
23.7157
23.9577
24.2394
24.5984
25.0583
25.6208
26.2718
26.9986
27.8032
28.7052
29.7123
30.7892
31.8378
32.7352
33.4447
34.139
35.0305
35.4664
33.0612
26.4924
13.4088
23.745
30.155
31.9012
31.7993
31.3691
30.8239
30.1726
29.4536
28.6942
27.8547
26.9086
25.9012
24.8775
23.8579
22.874
21.9665
21.152
20.4105
19.6889
18.9802
18.3023
17.654
17.0521
16.5313
16.1025
15.7458
15.4349
15.1589
14.9304
14.7804
14.7451
14.8479
15.0863
15.4319
15.8413
16.2693
16.6787
17.046
17.3621
17.6303
17.8611
18.0663
18.2548
18.4321
18.603
18.7718
18.9416
19.1139
19.288
19.4609
19.6288
19.7889
19.9417
20.0912
20.2428
20.4
20.5607
20.7192
20.8738
21.0373
21.243
21.5413
21.9832
22.5991
23.3832
24.2915
25.257
26.2121
27.1167
27.9623
28.7667
29.5547
30.3673
31.3018
32.4966
33.757
33.8191
30.6247
24.8237
10.0464
18.7887
25.7414
28.4378
28.7413
28.5354
28.2679
27.9356
27.5555
27.1546
26.5503
25.6174
24.4804
23.287
22.0878
20.9229
19.8662
18.9783
18.2769
17.6922
17.2486
16.9403
16.622
16.1851
15.6498
15.0866
14.5494
14.0682
13.6562
13.3176
13.0626
12.9161
12.909
13.0542
13.3328
13.701
14.1099
14.5206
14.9072
15.2568
15.5683
15.8475
16.1018
16.3371
16.5556
16.758
16.9448
17.1171
17.2744
17.4155
17.5384
17.6427
17.7307
17.8092
17.8889
17.9824
18.1002
18.2471
18.424
18.6352
18.8981
19.248
19.7314
20.3848
21.2104
22.1594
23.1377
24.0365
24.7784
25.3634
25.8784
26.4632
27.2465
28.3083
29.6765
31.2454
32.3955
31.7098
28.0214
23.3193
7.07288
14.4556
21.7106
25.5288
26.4673
26.5131
26.4358
26.271
26.0462
25.867
25.4795
24.615
23.395
22.0572
20.7095
19.4149
18.28
17.4019
16.8212
16.4278
16.2375
16.2247
16.1242
15.7041
14.9765
14.1031
13.2465
12.513
11.9454
11.5346
11.2547
11.0978
11.0798
11.2151
11.4896
11.8621
12.2851
12.7206
13.1419
13.5321
13.8837
14.196
14.4722
14.7171
14.9332
15.1212
15.2818
15.4173
15.5297
15.622
15.6976
15.7625
15.8249
15.8961
15.9903
16.1226
16.305
16.5441
16.8408
17.197
17.6225
18.1376
18.7637
19.5043
20.3263
21.1547
21.8933
22.4674
22.8715
23.1994
23.6217
24.3158
25.3827
26.8154
28.4933
30.0739
30.7118
29.2443
25.4675
21.954
5.00557
11.2402
18.4254
23.2668
24.9208
25.1696
25.1776
25.0886
24.8842
24.7279
24.4379
23.6795
22.4903
21.1227
19.7356
18.4162
17.2856
16.4551
15.9723
15.6978
15.6041
15.6669
15.6059
15.131
14.2355
13.1375
12.0768
11.2087
10.588
10.1906
9.96147
9.86258
9.89067
10.0539
10.341
10.7157
11.1347
11.5635
11.9772
12.3576
12.692
12.9749
13.2085
13.4019
13.5639
13.6997
13.8131
13.9082
13.99
14.0644
14.1382
14.2192
14.3157
14.4384
14.6003
14.8161
15.0977
15.4495
15.8666
16.3384
16.8548
17.4091
17.9945
18.5947
19.1767
19.6946
20.1114
20.4285
20.71
21.0838
21.7036
22.6851
24.05
25.709
27.4304
28.713
28.675
26.6145
23.0807
20.6699
4.14367
9.26594
15.874
21.3576
23.6683
24.046
24.0436
24.0481
23.9345
23.7629
23.4578
22.7553
21.6322
20.3109
18.9799
17.7376
16.6869
15.9229
15.4871
15.2435
15.1174
15.0948
14.9736
14.4869
13.5983
12.5157
11.4918
10.6835
10.1321
9.7981
9.61788
9.54857
9.58254
9.72506
9.96634
10.2749
10.6136
10.9544
11.2787
11.5709
11.8175
12.0138
12.1671
12.2927
12.4024
12.5006
12.5881
12.6676
12.7449
12.8277
12.924
13.041
13.1854
13.3664
13.5965
13.8892
14.2521
14.6804
15.1533
15.6391
16.1048
16.5273
16.8984
17.2232
17.5141
17.7874
18.0667
18.3896
18.8144
19.4207
20.2925
21.4876
22.9945
24.6878
26.2481
27.0688
26.371
23.9757
20.8873
19.4056
4.25808
8.26292
13.8459
19.4973
22.3918
22.9101
22.8064
22.8775
22.9832
22.937
22.6329
21.9149
20.7858
19.4722
18.2023
17.0889
16.1931
15.5544
15.1782
14.9449
14.7535
14.5996
14.3917
13.9444
13.2022
12.3159
11.4949
10.8613
10.4258
10.1355
9.93729
9.80932
9.75969
9.79921
9.91996
10.0944
10.2915
10.4906
10.68
10.8468
10.9805
11.0848
11.1773
11.2754
11.3828
11.4896
11.585
11.6679
11.7469
11.8358
11.9467
12.0892
12.2709
12.4997
12.784
13.1283
13.5261
13.9542
14.3736
14.7398
15.0193
15.2058
15.3266
15.4346
15.5919
15.849
16.2334
16.7514
17.4032
18.208
19.2151
20.4816
22.0008
23.6059
24.8806
25.1718
23.9205
21.4339
18.8773
18.1242
4.78518
7.8044
12.1409
17.5539
20.9922
21.7992
21.5633
21.5534
21.8638
22.1014
21.9508
21.2473
20.0454
18.6307
17.3191
16.287
15.5719
15.1313
14.8883
14.7139
14.5014
14.2503
13.9576
13.5395
12.9512
12.28
11.6703
11.1982
10.8445
10.5482
10.2735
10.0286
9.84661
9.74972
9.73392
9.77514
9.84685
9.9326
10.0215
10.1001
10.1609
10.2143
10.2808
10.3724
10.483
10.5947
10.6924
10.7748
10.8547
10.9521
11.0843
11.2615
11.4863
11.7567
12.0668
12.4049
12.7488
13.0659
13.3184
13.4775
13.5396
13.5377
13.5385
13.623
13.8593
14.2775
14.863
15.5701
16.3579
17.233
18.262
19.523
20.9923
22.4284
23.3311
23.0895
21.4402
19.063
17.0379
16.8189
5.19809
7.4927
10.5952
15.468
19.3797
20.7016
20.4464
20.2071
20.5422
21.0739
21.2345
20.6955
19.483
17.9274
16.4618
15.3923
14.7924
14.5488
14.4779
14.4105
14.2388
13.9549
13.5972
13.1691
12.6617
12.1201
11.6322
11.2394
10.9087
10.5799
10.2298
9.88646
9.59948
9.40107
9.29363
9.25895
9.27521
9.32537
9.39447
9.47011
9.54459
9.60918
9.65226
9.66842
9.667
9.66855
9.69177
9.74647
9.83917
9.9812
10.1826
10.4406
10.7345
11.0357
11.318
11.5626
11.7555
11.885
11.9432
11.9359
11.8921
11.8675
11.9338
12.1561
12.5694
13.1624
13.8837
14.6678
15.4791
16.3492
17.3681
18.6036
19.9732
21.1567
21.6282
20.9066
19.0361
16.9125
15.3626
15.5055
5.27692
7.13657
9.17972
13.3048
17.5181
19.5321
19.5169
19.0605
19.2182
19.8764
20.3579
20.1244
19.0591
17.4424
15.7855
14.5525
13.92
13.761
13.8164
13.8762
13.8188
13.601
13.247
12.8082
12.3189
11.8144
11.3548
10.9706
10.6323
10.285
9.9067
9.52521
9.19204
8.94554
8.79778
8.74104
8.75976
8.83273
8.94316
9.09261
9.26781
9.39859
9.39186
9.21203
8.92078
8.64019
8.47307
8.45297
8.56266
8.78095
9.09377
9.47132
9.85415
10.1747
10.3896
10.4958
10.5194
10.4958
10.456
10.4273
10.4415
10.5388
10.7625
11.1429
11.683
12.3518
13.0962
13.8678
14.6599
15.5259
16.5444
17.7294
18.9277
19.7805
19.8075
18.7073
16.7871
15.0008
13.84
14.2042
5.08639
6.77091
8.0204
11.2884
15.5315
18.262
18.7915
18.3327
18.232
18.7649
19.3806
19.4396
18.6471
17.1339
15.3894
13.9789
13.1941
12.9552
12.9994
13.1133
13.1591
13.0476
12.7626
12.3684
11.9261
11.4678
11.0346
10.6531
10.3092
9.96187
9.58929
9.20912
8.86519
8.5995
8.43619
8.38132
8.42415
8.53445
8.69862
8.94231
9.24103
9.44255
9.3581
8.92636
8.27798
7.65264
7.24504
7.11088
7.20225
7.46036
7.84861
8.31673
8.77212
9.11125
9.27661
9.28607
9.21358
9.14782
9.15908
9.28787
9.54864
9.93787
10.4418
11.0418
11.7204
12.4647
13.2702
14.1434
15.1034
16.1671
17.3091
18.4147
19.2529
19.4884
18.7794
17.0802
14.9536
13.3273
12.3497
12.8233
4.85506
6.55745
7.27424
9.64324
13.5753
16.8445
18.1184
17.9597
17.6635
17.8533
18.3121
18.5051
18.0462
16.8862
15.3652
13.9963
13.0992
12.6564
12.4773
12.4122
12.3486
12.1981
11.9376
11.6352
11.3467
11.066
10.7768
10.4752
10.1604
9.82238
9.45758
9.08245
8.73385
8.45478
8.27909
8.22592
8.28636
8.41992
8.61634
8.91163
9.25881
9.45246
9.26724
8.6538
7.7924
6.97545
6.42433
6.18954
6.20371
6.39707
6.73748
7.18168
7.63279
7.97474
8.14376
8.16635
8.13286
8.1419
8.25824
8.50317
8.86734
9.32823
9.86337
10.456
11.0988
11.7953
12.5622
13.4253
14.4041
15.4788
16.5585
17.4777
18.0102
17.8782
16.8464
15.0383
13.1259
11.8697
11.1103
11.6291
4.79513
6.59805
6.95786
8.4193
11.6951
15.1612
17.1761
17.5537
17.2122
16.9693
17.0356
17.163
17.0174
16.4131
15.4539
14.436
13.5842
12.9257
12.3927
11.9533
11.5654
11.1942
10.8504
10.6106
10.5123
10.4934
10.4549
10.3326
10.1185
9.83113
9.49618
9.1421
8.80326
8.51656
8.3162
8.23182
8.26451
8.38244
8.57941
8.86259
9.13925
9.20688
8.90435
8.24802
7.42779
6.6861
6.1763
5.90585
5.80336
5.82439
5.97664
6.25715
6.60016
6.90703
7.11684
7.2431
7.34877
7.49817
7.72654
8.0395
8.42722
8.87691
9.37899
9.92804
10.5263
11.1877
11.9419
12.8197
13.8187
14.8655
15.8143
16.4896
16.7054
16.246
14.9763
13.1688
11.5347
10.6079
9.99336
10.5125
4.93504
6.82701
6.9513
7.57817
9.97972
13.2773
15.8611
16.8856
16.6942
16.0984
15.6859
15.5642
15.5621
15.4495
15.1102
14.5701
13.8983
13.1415
12.3504
11.6003
10.9137
10.3099
9.83343
9.569
9.55471
9.71297
9.89718
9.98683
9.94263
9.78409
9.55424
9.29175
9.02021
8.75121
8.50373
8.31745
8.22872
8.25825
8.41738
8.64908
8.79065
8.67784
8.27604
7.6901
7.08023
6.57514
6.21818
5.96345
5.74089
5.54227
5.43039
5.46089
5.61933
5.84606
6.09844
6.37409
6.68342
7.02214
7.37343
7.72768
8.09347
8.49049
8.9365
9.44045
10.0101
10.6634
11.4314
12.331
13.3192
14.2715
15.0246
15.4352
15.364
14.6375
13.2131
11.4946
10.165
9.50377
8.97286
9.46602
5.13907
7.07739
7.09722
7.087
8.61325
11.4909
14.4037
16.077
16.2416
15.511
14.6875
14.1964
14.0798
14.16
14.2051
14.0408
13.5977
12.9113
12.0883
11.2462
10.4359
9.7044
9.11267
8.74871
8.67137
8.83735
9.11087
9.34747
9.47239
9.48677
9.43517
9.35176
9.22683
9.0211
8.72275
8.37984
8.08505
7.94987
8.0248
8.19041
8.21772
7.98145
7.55452
7.09348
6.69762
6.3863
6.13275
5.87271
5.53867
5.14111
4.78631
4.58376
4.56434
4.7048
4.99005
5.41763
5.95312
6.51623
7.02269
7.4368
7.78506
8.12667
8.51527
8.98073
9.53915
10.208
11.0042
11.908
12.8274
13.6143
14.1344
14.298
13.9907
13.0603
11.5623
10.0074
8.98015
8.50912
8.01531
8.46963
5.27581
7.21259
7.24938
6.84582
7.64001
9.96872
12.9634
15.2086
15.9082
15.3255
14.2746
13.4142
13.0053
12.9819
13.1027
13.1085
12.8524
12.3387
11.6572
10.8959
10.1037
9.33475
8.66071
8.17316
7.95185
8.00042
8.22464
8.48672
8.69317
8.83252
8.95019
9.06809
9.13245
9.04524
8.75711
8.31059
7.838
7.53062
7.48329
7.55681
7.51211
7.26357
6.92253
6.61669
6.35435
6.08454
5.7876
5.44189
4.9963
4.46076
3.96024
3.63409
3.52912
3.62901
3.93552
4.4638
5.16882
5.92287
6.58224
7.07423
7.42573
7.72368
8.0576
8.48712
9.04459
9.74178
10.5601
11.4238
12.2037
12.7727
13.0633
13.026
12.5336
11.4544
9.96304
8.63733
7.89413
7.54108
7.05534
7.46739
5.42623
7.29142
7.43003
6.82711
7.01929
8.64255
11.3784
14.0264
15.452
15.4215
14.4806
13.3984
12.653
12.3233
12.2301
12.1318
11.8883
11.4987
11.0127
10.4466
9.82063
9.14802
8.48385
7.92311
7.56165
7.44373
7.5257
7.69637
7.86061
8.00129
8.16265
8.36021
8.52809
8.5587
8.39247
8.04324
7.61126
7.27424
7.12325
7.05416
6.92699
6.74222
6.59195
6.48755
6.31134
5.96834
5.50031
4.98462
4.42967
3.85772
3.38826
3.14185
3.12302
3.26779
3.56044
4.04089
4.70581
5.45239
6.13153
6.64588
6.9995
7.27395
7.57389
7.98341
8.54563
9.2475
10.0123
10.7157
11.2455
11.5569
11.6467
11.4418
10.7728
9.58806
8.22238
7.23448
6.77078
6.46899
5.97938
6.34806
5.62941
7.34855
7.60732
6.94083
6.71033
7.59289
9.72732
12.3952
14.4525
15.2123
14.7215
13.6667
12.6831
12.0031
11.5487
11.1471
10.7091
10.2626
9.8584
9.47636
9.12639
8.72977
8.26186
7.79136
7.41364
7.19994
7.15683
7.21342
7.28273
7.32733
7.36138
7.39649
7.42148
7.41909
7.38291
7.28929
7.12683
6.94631
6.77261
6.57007
6.36678
6.27386
6.33958
6.44108
6.35583
5.96892
5.37284
4.72971
4.12665
3.62424
3.32655
3.29731
3.46646
3.6986
3.93429
4.21826
4.60447
5.07403
5.54594
5.94729
6.26508
6.54818
6.87577
7.31431
7.8794
8.51133
9.09407
9.52099
9.76683
9.87258
9.82431
9.46345
8.62062
7.41059
6.3049
5.71217
5.47051
5.16314
4.68643
5.02346
6.06806
7.61844
7.97897
7.33574
6.90429
7.22749
8.65007
10.9449
13.2516
14.6885
14.7961
14.0016
12.9632
12.0356
11.2668
10.5709
9.89458
9.27805
8.79783
8.46169
8.33506
8.26929
8.13034
7.92098
7.70024
7.53388
7.45952
7.44818
7.42826
7.33096
7.11636
6.79199
6.44385
6.2051
6.15952
6.2517
6.33841
6.31415
6.14037
5.87042
5.67924
5.73213
6.00498
6.27621
6.29381
5.96968
5.41827
4.81032
4.25253
3.82728
3.63687
3.72282
3.98859
4.26565
4.45077
4.55744
4.65584
4.79541
4.98063
5.19681
5.44286
5.74151
6.12452
6.59944
7.12066
7.59049
7.91339
8.068
8.11955
8.11538
7.95232
7.41026
6.41849
5.28014
4.49101
4.22134
4.08522
3.74094
3.30691
3.63385
6.54592
7.9446
8.39872
7.82106
7.33911
7.32143
8.10762
9.81449
11.9887
13.829
14.5249
14.1595
13.2653
12.2467
11.2868
10.4104
9.58848
8.83241
8.21503
7.78509
7.7125
7.85242
7.99943
8.08968
8.12352
8.12263
8.11388
8.08363
7.97029
7.68161
7.14018
6.37104
5.56964
5.01115
4.8507
4.99561
5.18718
5.19692
4.96723
4.6664
4.58922
4.89552
5.44708
5.92423
6.08218
5.90426
5.53664
5.10618
4.64823
4.20505
3.89581
3.82931
3.98314
4.21552
4.386
4.44606
4.43387
4.41521
4.43723
4.52381
4.69111
4.95473
5.314
5.72526
6.09964
6.34401
6.43173
6.42795
6.4153
6.35526
6.04689
5.30331
4.23028
3.26102
2.78664
2.72394
2.59161
2.20685
1.8427
2.17627
6.89621
8.19857
8.76281
8.2822
7.83827
7.67089
8.0004
9.09654
10.8812
12.8211
13.9857
14.1425
13.5845
12.656
11.638
10.6868
9.8225
9.01783
8.29763
7.70964
7.51319
7.62832
7.85218
8.1043
8.34724
8.54249
8.65811
8.64347
8.4217
7.89649
7.00499
5.82822
4.65417
3.83907
3.55768
3.67804
3.86863
3.8308
3.51238
3.1848
3.24633
3.85216
4.75294
5.5129
5.865
5.86073
5.7063
5.49412
5.14143
4.58747
3.96418
3.51456
3.37249
3.46904
3.63841
3.77037
3.85958
3.94759
4.05387
4.16678
4.2776
4.40021
4.54811
4.69712
4.78994
4.7918
4.74226
4.7194
4.72196
4.58667
4.08424
3.16448
2.11594
1.39032
1.18329
1.21066
1.01876
0.610561
0.334104
0.681921
7.01128
8.30437
9.01765
8.66988
8.30878
8.12256
8.1933
8.79101
10.0881
11.877
13.3168
13.9769
13.878
13.1986
12.2311
11.2495
10.3651
9.55224
8.7806
8.0486
7.64039
7.54624
7.61607
7.81002
8.10236
8.41401
8.6356
8.6413
8.3161
7.57887
6.42829
5.01759
3.67402
2.74768
2.38698
2.44476
2.58794
2.50853
2.14863
1.80686
1.93255
2.71162
3.8642
4.87588
5.4208
5.56128
5.55562
5.50401
5.24062
4.59408
3.67741
2.84498
2.38124
2.30139
2.44522
2.68758
3.01437
3.4307
3.86095
4.1658
4.24367
4.10193
3.83152
3.52911
3.25777
3.06496
2.99658
3.03938
3.0455
2.76696
2.04953
1.03082
0.114848
-0.33983
-0.355791
-0.328411
-0.600144
-1.00318
-1.18344
-0.820919
6.89278
8.26797
9.16963
8.98521
8.71805
8.57598
8.54346
8.80829
9.64613
11.1193
12.6032
13.6222
13.9832
13.6451
12.8075
11.799
10.8416
9.97486
9.15651
8.32716
7.73118
7.38873
7.19692
7.17176
7.33371
7.60245
7.8196
7.79919
7.39757
6.56273
5.36173
3.9872
2.72549
1.84014
1.43105
1.38284
1.44107
1.35215
1.03815
0.72098
0.797884
1.48692
2.58807
3.62697
4.24658
4.45827
4.51017
4.52755
4.34517
3.74171
2.77983
1.81874
1.19436
0.978253
1.06377
1.38859
1.98552
2.82856
3.70365
4.27932
4.31554
3.81805
3.01415
2.20101
1.60665
1.3315
1.33997
1.45314
1.38834
0.905207
0.00396167
-1.01301
-1.72915
-1.94657
-1.86536
-1.8985
-2.24157
-2.60995
-2.69276
-2.31759
6.63711
8.15369
9.25643
9.24117
9.04908
8.95546
8.90683
8.98772
9.45696
10.5323
11.8371
12.9868
13.6931
13.7138
13.0731
12.0584
10.9742
9.97064
9.06107
8.16694
7.46683
6.96254
6.55267
6.27388
6.18792
6.24695
6.3031
6.17345
5.72744
4.94628
3.92805
2.83837
1.85429
1.11374
0.672812
0.484691
0.422329
0.328484
0.111987
-0.140729
-0.181873
0.189861
0.911912
1.67468
2.17805
2.3691
2.41393
2.43538
2.33307
1.92036
1.20489
0.439628
-0.113283
-0.371393
-0.349926
0.0135535
0.835011
2.06211
3.33566
4.1297
4.07654
3.20579
1.91155
0.704927
-0.0498392
-0.268898
-0.136438
-0.00135684
-0.206575
-0.893673
-1.89215
-2.81434
-3.32346
-3.39028
-3.31475
-3.45283
-3.85417
-4.17102
-4.16399
-3.77917
6.3674
8.02564
9.30144
9.42704
9.26771
9.18711
9.14341
9.13493
9.33521
10.0017
10.9667
12.0158
12.8938
13.2319
12.8485
11.8969
10.6948
9.5037
8.44642
7.48607
6.75229
6.20335
5.6919
5.21978
4.85871
4.6085
4.38848
4.08684
3.62766
3.0138
2.31813
1.62185
0.974326
0.40576
-0.0478949
-0.358111
-0.533101
-0.635205
-0.751075
-0.915151
-1.05487
-1.04298
-0.831297
-0.520904
-0.277249
-0.177811
-0.16473
-0.159848
-0.19279
-0.366581
-0.705476
-1.10409
-1.44107
-1.659
-1.6804
-1.31407
-0.369187
1.07787
2.55895
3.41999
3.23002
2.07195
0.486485
-0.866855
-1.57374
-1.63493
-1.39038
-1.29282
-1.64982
-2.45937
-3.42965
-4.1856
-4.52325
-4.54519
-4.57025
-4.85117
-5.31072
-5.58134
-5.50496
-5.11872
6.17718
7.92054
9.30885
9.52302
9.34649
9.23016
9.17253
9.1173
9.13559
9.44336
10.0071
10.7942
11.6715
12.2421
12.1462
11.3504
10.1068
8.74631
7.51616
6.47024
5.7274
5.20564
4.68872
4.1053
3.50835
2.94807
2.43977
1.9739
1.5366
1.12441
0.740481
0.365686
-0.0401293
-0.490052
-0.932998
-1.28269
-1.48252
-1.54771
-1.55919
-1.61863
-1.7769
-1.99308
-2.17596
-2.27039
-2.29733
-2.30931
-2.3259
-2.33052
-2.31813
-2.31755
-2.35761
-2.44457
-2.5789
-2.73607
-2.78204
-2.45302
-1.52897
-0.104136
1.32024
2.07451
1.75152
0.495433
-1.08478
-2.30314
-2.79729
-2.67932
-2.3847
-2.36459
-2.81789
-3.61372
-4.42483
-4.96806
-5.18082
-5.24296
-5.43309
-5.88356
-6.41457
-6.66572
-6.55481
-6.18705
6.08815
7.82698
9.25614
9.50361
9.27077
9.08084
8.98169
8.89303
8.8014
8.8452
9.04701
9.50933
10.249
10.9268
11.0812
10.4996
9.31645
7.87001
6.50373
5.37567
4.62522
4.14889
3.6672
3.03025
2.26505
1.4711
0.757843
0.202134
-0.178569
-0.427963
-0.62659
-0.865323
-1.20332
-1.62311
-2.02713
-2.30015
-2.38675
-2.31866
-2.19232
-2.13012
-2.22667
-2.49172
-2.84072
-3.15266
-3.35423
-3.45069
-3.48572
-3.48756
-3.45522
-3.38573
-3.30035
-3.2496
-3.28966
-3.4168
-3.49281
-3.26288
-2.5317
-1.39163
-0.281829
0.235359
-0.149585
-1.2577
-2.52747
-3.38416
-3.59385
-3.35476
-3.0959
-3.16477
-3.62234
-4.26502
-4.81471
-5.12111
-5.24006
-5.38027
-5.75212
-6.37356
-6.98672
-7.25212
-7.14792
-6.8303
6.04515
7.69069
9.10238
9.34717
9.04508
8.7706
8.61762
8.50333
8.36206
8.2538
8.19491
8.34765
8.85233
9.48241
9.77223
9.39429
8.35668
6.94676
5.54579
4.39055
3.65016
3.21923
2.77784
2.11713
1.24934
0.322329
-0.480727
-1.03752
-1.34418
-1.50752
-1.67567
-1.95998
-2.37446
-2.82376
-3.15497
-3.25285
-3.11084
-2.82109
-2.51785
-2.32566
-2.32596
-2.53017
-2.87002
-3.22365
-3.48656
-3.62643
-3.67337
-3.66954
-3.63241
-3.56335
-3.47847
-3.42529
-3.46047
-3.59089
-3.71889
-3.66215
-3.28154
-2.63636
-2.01879
-1.79332
-2.13532
-2.88102
-3.62738
-4.0136
-3.96287
-3.69967
-3.54827
-3.69019
-4.06333
-4.45792
-4.69878
-4.76865
-4.80468
-5.01346
-5.53528
-6.29424
-6.97908
-7.27904
-7.21374
-6.97826
5.9668
7.45394
8.81639
9.05053
8.6935
8.34952
8.14998
8.02044
7.87277
7.70694
7.49711
7.39352
7.6061
8.04039
8.3149
8.07639
7.23544
5.98989
4.69248
3.60859
2.92605
2.55044
2.14813
1.47935
0.557375
-0.424489
-1.2336
-1.73979
-1.98301
-2.13383
-2.37555
-2.79447
-3.32867
-3.80204
-4.0255
-3.90933
-3.51206
-2.99124
-2.51972
-2.21918
-2.1389
-2.264
-2.53144
-2.84218
-3.10083
-3.25934
-3.3233
-3.32454
-3.29016
-3.2354
-3.17702
-3.14746
-3.18906
-3.32343
-3.51755
-3.68406
-3.73846
-3.67729
-3.60248
-3.65037
-3.8691
-4.15685
-4.33073
-4.27821
-4.05925
-3.86267
-3.85104
-4.03197
-4.26288
-4.37844
-4.32015
-4.17608
-4.12866
-4.36873
-4.97817
-5.81228
-6.53079
-6.85888
-6.84193
-6.7033
5.78771
7.08888
8.39959
8.64032
8.26067
7.87577
7.64646
7.50961
7.37421
7.20397
6.92213
6.62196
6.53082
6.67749
6.8183
6.65103
6.03047
5.04869
3.97696
3.05981
2.487
2.18399
1.82652
1.16625
0.225333
-0.767043
-1.54932
-2.0026
-2.21344
-2.39632
-2.73712
-3.27547
-3.88075
-4.32879
-4.43019
-4.13746
-3.56272
-2.90123
-2.33934
-1.98733
-1.8668
-1.93911
-2.1409
-2.39695
-2.63524
-2.80854
-2.90249
-2.9278
-2.904
-2.84939
-2.78203
-2.72924
-2.73406
-2.84658
-3.10034
-3.48679
-3.95112
-4.41288
-4.79591
-5.04391
-5.11836
-5.00279
-4.72562
-4.38279
-4.11708
-4.04208
-4.15794
-4.33755
-4.40809
-4.27142
-3.96672
-3.64849
-3.51807
-3.74858
-4.37804
-5.2152
-5.91276
-6.2389
-6.25536
-6.20026
5.49491
6.61559
7.89091
8.16655
7.79862
7.39895
7.15318
7.00884
6.88076
6.71739
6.4025
5.96102
5.60402
5.45652
5.42199
5.28764
4.88703
4.21083
3.42513
2.72409
2.28838
2.06891
1.76624
1.13601
0.207439
-0.769494
-1.52092
-1.94264
-2.15215
-2.38002
-2.7931
-3.38589
-3.98823
-4.37037
-4.37477
-4.00022
-3.38688
-2.73016
-2.19484
-1.86449
-1.74261
-1.78602
-1.93816
-2.14592
-2.36308
-2.55112
-2.68298
-2.74706
-2.74347
-2.67948
-2.57088
-2.45154
-2.38393
-2.4548
-2.74782
-3.29714
-4.04788
-4.85203
-5.51268
-5.86054
-5.82509
-5.46908
-4.96735
-4.53633
-4.33806
-4.40137
-4.60606
-4.7523
-4.67815
-4.35022
-3.87077
-3.42537
-3.21951
-3.41186
-4.00771
-4.78616
-5.41041
-5.69632
-5.71741
-5.70904
5.1196
6.08587
7.34617
7.68045
7.3467
6.94437
6.68355
6.52196
6.38198
6.21172
5.87713
5.34826
4.80595
4.43535
4.25774
4.14753
3.93686
3.53723
3.01885
2.52228
2.21646
2.07901
1.84185
1.26969
0.392076
-0.537798
-1.24941
-1.65332
-1.88044
-2.15493
-2.61428
-3.21863
-3.78525
-4.10743
-4.07429
-3.72469
-3.20339
-2.67935
-2.27059
-2.02059
-1.92158
-1.94446
-2.04916
-2.2044
-2.38987
-2.57944
-2.73903
-2.83903
-2.85928
-2.79125
-2.64558
-2.46607
-2.33851
-2.37861
-2.693
-3.32146
-4.19094
-5.11388
-5.84836
-6.19949
-6.11153
-5.70035
-5.20153
-4.85771
-4.79997
-4.9872
-5.23766
-5.3375
-5.15812
-4.71252
-4.13074
-3.60513
-3.33968
-3.48215
-4.01216
-4.69171
-5.20756
-5.42365
-5.42229
-5.41779
4.71159
5.55523
6.81386
7.21654
6.92299
6.51625
6.23348
6.04334
5.87396
5.68118
5.334
4.77088
4.14063
3.65107
3.39173
3.29734
3.21027
2.99976
2.67457
2.33589
2.13855
2.07866
1.91737
1.43163
0.6479
-0.192418
-0.839234
-1.22404
-1.48304
-1.82066
-2.33828
-2.96585
-3.51837
-3.82049
-3.80843
-3.55332
-3.19268
-2.86114
-2.62264
-2.47729
-2.4109
-2.41734
-2.47492
-2.56918
-2.70355
-2.86748
-3.02602
-3.13968
-3.17661
-3.11836
-2.97104
-2.78268
-2.64963
-2.69513
-3.02085
-3.64884
-4.48686
-5.34296
-5.99408
-6.28262
-6.19216
-5.86015
-5.51289
-5.35264
-5.45484
-5.73372
-5.99657
-6.05418
-5.81617
-5.31931
-4.69547
-4.13129
-3.82826
-3.92444
-4.37746
-4.94204
-5.33729
-5.472
-5.43319
-5.40138
4.26835
5.00854
6.26354
6.73155
6.47552
6.05804
5.74657
5.52323
5.31922
5.10029
4.75247
4.2026
3.56825
3.04596
2.74344
2.62646
2.56204
2.42356
2.2023
1.97489
1.8707
1.88563
1.80424
1.42301
0.768851
0.0609436
-0.488956
-0.845164
-1.14915
-1.57832
-2.19101
-2.88341
-3.46574
-3.78939
-3.83035
-3.68461
-3.48105
-3.32459
-3.23536
-3.18264
-3.15216
-3.15612
-3.18312
-3.22502
-3.29973
-3.4111
-3.53061
-3.62109
-3.65381
-3.61353
-3.50632
-3.37514
-3.30434
-3.39701
-3.72773
-4.29413
-4.99869
-5.67604
-6.15903
-6.35324
-6.28261
-6.081
-5.92817
-5.95918
-6.19345
-6.52478
-6.77981
-6.80935
-6.55426
-6.05675
-5.4366
-4.87053
-4.55577
-4.6177
-4.99393
-5.44237
-5.7224
-5.78258
-5.70798
-5.63964
3.92144
4.58571
5.83475
6.34888
6.11284
5.67499
5.33248
5.07997
4.8485
4.61172
4.27647
3.77027
3.18382
2.68231
2.35627
2.18
2.05462
1.89355
1.70704
1.5606
1.54833
1.64566
1.64819
1.37415
0.856632
0.290627
-0.159788
-0.501372
-0.884333
-1.45445
-2.2163
-3.01972
-3.65998
-4.00977
-4.0841
-4.00675
-3.90477
-3.86426
-3.87395
-3.88241
-3.87952
-3.89234
-3.90992
-3.91566
-3.93196
-3.97828
-4.03934
-4.08817
-4.10773
-4.09311
-4.05076
-4.0097
-4.0279
-4.17631
-4.50055
-4.98335
-5.53691
-6.03413
-6.36473
-6.48725
-6.44994
-6.36974
-6.3763
-6.54594
-6.8589
-7.20572
-7.44108
-7.45222
-7.19984
-6.72167
-6.12302
-5.57313
-5.26638
-5.31509
-5.6383
-5.99863
-6.1915
-6.19672
-6.09406
-5.99215
3.19183
3.71367
4.91222
5.48557
5.29965
4.85655
4.49255
4.22522
3.98293
3.74331
3.43946
3.00119
2.47482
1.96063
1.50445
1.09756
0.730613
0.426496
0.245034
0.210737
0.319134
0.487205
0.537661
0.351544
-0.0120736
-0.400248
-0.729921
-1.06478
-1.54723
-2.26171
-3.1435
-4.00658
-4.65653
-5.00359
-5.09492
-5.05698
-5.00307
-4.99093
-5.00724
-5.035
-5.08422
-5.15756
-5.23034
-5.27533
-5.28666
-5.27277
-5.24106
-5.20068
-5.17084
-5.17856
-5.24197
-5.36253
-5.53241
-5.74772
-6.00763
-6.29933
-6.58545
-6.81102
-6.93185
-6.94643
-6.90857
-6.90771
-7.02359
-7.27986
-7.6251
-7.95407
-8.15492
-8.1508
-7.91621
-7.47917
-6.93099
-6.43264
-6.16213
-6.19875
-6.44203
-6.68789
-6.7987
-6.78734
-6.70369
-6.61707
)
;
    }
    outlet
    {
        type            calculated;
        value           nonuniform List<scalar> 
3200
(
42.1207
43.9223
41.7033
40.2363
39.1212
38.0487
37.1471
36.8207
37.729
35.4924
30.5697
29.0652
30.1555
30.3982
30.0777
29.5847
28.9761
28.2062
27.4184
27.3317
27.9187
27.3573
26.6396
26.9312
27.7181
28.1545
28.0907
27.7028
27.182
26.6799
26.301
26.0986
26.0682
26.1574
26.2875
26.4085
26.5989
27.019
27.5548
28.0403
28.3954
28.5813
28.4832
27.9543
27.1316
26.5292
26.3342
26.3038
26.3499
26.4875
26.6613
26.8176
26.8851
26.6984
25.9167
24.3195
23.1619
22.9362
23.0265
23.3148
23.7337
24.1223
24.4112
24.6657
25.0307
25.6258
26.4726
27.4756
28.5349
29.5434
30.2747
30.7632
31.0848
31.2688
31.3544
31.4176
31.4427
31.3226
31.4472
31.0648
48.1435
59.5674
59.2488
57.7766
56.3968
54.9854
53.7039
52.7773
52.2324
49.2303
43.0056
40.6279
41.2548
41.2543
40.7874
40.1412
39.3917
38.5493
37.8283
38.0745
39.2562
39.2381
38.4212
37.7413
37.19
36.5285
35.6665
34.6826
33.7046
32.8604
32.2485
31.9183
31.8565
31.9936
32.2266
32.4683
32.7217
33.064
33.4649
33.8539
34.1988
34.455
34.4811
34.0556
33.1494
32.1816
31.4557
30.9639
30.7005
30.6645
30.8091
31.0886
31.4581
31.8436
32.1393
32.39
32.5796
32.9332
33.299
33.7317
34.201
34.6211
34.9726
35.3359
35.8528
36.6315
37.6781
38.888
40.1351
41.3037
42.2307
42.9583
43.5613
44.0624
44.4426
44.6461
44.5477
44.1177
42.9409
37.6781
44.1952
60.0184
62.6364
61.9891
60.7534
59.2153
57.6492
56.2477
54.9209
52.1045
46.5423
44.0278
44.1775
43.9635
43.4042
42.6887
41.8834
41.0133
40.2659
40.3727
41.3025
41.319
40.498
39.384
38.2236
37.0691
35.8731
34.6631
33.5203
32.5467
31.8297
31.4162
31.2973
31.4116
31.6643
31.9641
32.2741
32.6105
32.954
33.2735
33.5643
33.803
33.8762
33.5872
32.8419
31.9121
31.108
30.5287
30.2009
30.1196
30.2459
30.5361
30.9514
31.463
32.0669
32.8944
33.6546
34.2562
34.7953
35.3157
35.8038
36.217
36.5591
36.9207
37.4431
38.2343
39.3064
40.568
41.8882
43.1511
44.2452
45.1711
45.9377
46.5025
46.786
46.7678
46.6116
46.4832
44.8117
37.5709
39.5204
55.9063
60.7526
61.0409
60.2734
59.0099
57.499
55.9525
54.359
52.0248
47.8734
45.4395
45.1201
44.6876
44.0312
43.2385
42.3596
41.4387
40.6329
40.4362
40.8049
40.5817
39.71
38.4649
37.1107
35.7686
34.4243
33.094
31.8464
30.7799
29.9837
29.5077
29.3453
29.437
29.6892
30.006
30.3275
30.6386
30.9282
31.1942
31.4515
31.6859
31.7938
31.6076
31.032
30.2413
29.5018
28.9483
28.6237
28.5231
28.6157
28.867
29.2551
29.7793
30.4512
31.3605
32.2227
32.8849
33.4865
34.0488
34.5539
34.9671
35.3052
35.6671
36.1986
37.0149
38.135
39.4694
40.8666
42.1786
43.2795
44.111
44.6399
44.8528
44.821
44.8232
45.2677
45.7805
43.4951
35.7161
35.4617
50.7413
57.011
57.9766
57.5688
56.7022
55.5206
54.1635
52.6659
50.8296
47.9299
45.715
44.9345
44.2662
43.4895
42.5953
41.6237
40.6434
39.7864
39.27
39.1376
38.7258
37.8631
36.6568
35.3139
33.9525
32.5818
31.2225
29.9369
28.8182
27.9552
27.4014
27.157
27.1711
27.3574
27.6226
27.8993
28.1617
28.4081
28.6508
28.9045
29.1441
29.268
29.1447
28.7101
28.0758