/*--------------------------------*- C++ -*----------------------------------*\
| =========                 |                                                 |
| \\      /  F ield         | OpenFOAM: The Open Source CFD Toolbox           |
|  \\    /   O peration     | Version:  v2012                                 |
|   \\  /    A nd           | Website:  www.openfoam.com                      |
|    \\/     M anipulation  |                                                 |
\*---------------------------------------------------------------------------*/
FoamFile
{
    version     2.0;
    format      ascii;
    class       volScalarField;
    location    "150/air";
    object      rho;
}
// * * * * * * * * * * * * * * * * * * * * * * * * * * * * * * * * * * * * * //

dimensions      [1 -3 0 0 0 0 0];


internalField   nonuniform List<scalar> 
287104
(
0.999142
0.998343
0.997631
0.996989
0.996407
0.995879
0.995398
0.994955
0.994543
0.994157
0.99379
0.99344
0.993105
0.992782
0.99247
0.992169
0.991878
0.991595
0.99132
0.991052
0.990791
0.990536
0.990287
0.990044
0.989805
0.989572
0.989344
0.98912
0.9889
0.988684
0.988471
0.988262
0.988055
0.987851
0.987648
0.987448
0.98725
0.987053
0.986858
0.986664
0.986471
0.98628
0.98609
0.985902
0.985715
0.985532
0.98535
0.985172
0.984998
0.984828
0.984662
0.984501
0.984346
0.984196
0.984053
0.983915
0.983784
0.98366
0.983543
0.983432
0.983327
0.983229
0.983136
0.983048
0.982964
0.982884
0.982807
0.982732
0.982659
0.982586
0.982514
0.982443
0.982371
0.9823
0.982229
0.982159
0.982089
0.982018
0.981946
0.981871
0.981791
0.981705
0.98161
0.981506
0.981393
0.981274
0.981151
0.981027
0.980895
0.980742
0.999155
0.998368
0.997667
0.997036
0.996465
0.995946
0.995474
0.99504
0.994637
0.994259
0.993901
0.993559
0.993231
0.992916
0.992612
0.992318
0.992034
0.991758
0.99149
0.99123
0.990976
0.990728
0.990486
0.990249
0.990018
0.989791
0.98957
0.989352
0.989139
0.98893
0.988724
0.988521
0.98832
0.988122
0.987927
0.987733
0.98754
0.98735
0.987161
0.986973
0.986787
0.986602
0.986419
0.986237
0.986058
0.985881
0.985706
0.985535
0.985368
0.985204
0.985046
0.984892
0.984743
0.9846
0.984463
0.984332
0.984207
0.984089
0.983977
0.983871
0.983771
0.983677
0.983588
0.983503
0.983422
0.983344
0.983269
0.983195
0.983123
0.983051
0.982979
0.982908
0.982836
0.982765
0.982694
0.982623
0.982552
0.982481
0.982408
0.982332
0.982252
0.982165
0.982069
0.981964
0.98185
0.98173
0.981607
0.981481
0.981349
0.981192
0.999168
0.998393
0.997703
0.997082
0.99652
0.996011
0.995546
0.99512
0.994725
0.994354
0.994002
0.993667
0.993345
0.993036
0.992738
0.992451
0.992172
0.991902
0.99164
0.991384
0.991136
0.990893
0.990656
0.990425
0.990199
0.989978
0.989761
0.989549
0.989342
0.989138
0.988937
0.988739
0.988544
0.988351
0.988161
0.987972
0.987785
0.9876
0.987417
0.987235
0.987054
0.986875
0.986698
0.986522
0.986349
0.986178
0.98601
0.985845
0.985685
0.985528
0.985376
0.98523
0.985088
0.984952
0.984822
0.984699
0.984581
0.98447
0.984366
0.984267
0.984174
0.984087
0.984005
0.983928
0.983854
0.983783
0.983715
0.983648
0.983582
0.983517
0.983452
0.983387
0.983322
0.983258
0.983193
0.98313
0.983066
0.983002
0.982937
0.982869
0.982797
0.982718
0.98263
0.982534
0.98243
0.982319
0.982205
0.98209
0.981968
0.981822
0.999181
0.998418
0.997739
0.997128
0.996575
0.996074
0.995618
0.995199
0.994811
0.994447
0.994102
0.993772
0.993457
0.993153
0.992861
0.992579
0.992305
0.99204
0.991783
0.991532
0.991288
0.99105
0.990818
0.990591
0.99037
0.990153
0.989941
0.989733
0.98953
0.98933
0.989133
0.98894
0.988749
0.98856
0.988374
0.988189
0.988006
0.987825
0.987646
0.987468
0.987291
0.987116
0.986943
0.986772
0.986602
0.986436
0.986272
0.986112
0.985955
0.985803
0.985655
0.985513
0.985376
0.985244
0.985119
0.985
0.984887
0.98478
0.98468
0.984587
0.984499
0.984418
0.984342
0.984272
0.984206
0.984144
0.984083
0.984024
0.983966
0.983908
0.98385
0.983793
0.983736
0.983679
0.983624
0.983568
0.983514
0.983459
0.983404
0.983347
0.983285
0.983218
0.983142
0.983058
0.982966
0.982868
0.982767
0.982665
0.982556
0.982425
0.999194
0.998443
0.997775
0.997173
0.99663
0.996137
0.995689
0.995277
0.994896
0.994539
0.9942
0.993877
0.993567
0.993269
0.992982
0.992705
0.992437
0.992176
0.991924
0.991678
0.991438
0.991205
0.990977
0.990755
0.990538
0.990325
0.990117
0.989914
0.989714
0.989519
0.989326
0.989137
0.98895
0.988766
0.988583
0.988403
0.988224
0.988047
0.987872
0.987699
0.987526
0.987356
0.987187
0.98702
0.986855
0.986693
0.986534
0.986378
0.986227
0.986079
0.985936
0.985799
0.985667
0.98554
0.98542
0.985306
0.985198
0.985097
0.985004
0.98492
0.984844
0.984777
0.984715
0.984659
0.984605
0.984554
0.984504
0.984455
0.984407
0.984358
0.98431
0.984261
0.984212
0.984163
0.984116
0.984069
0.984023
0.983978
0.983933
0.983886
0.983836
0.983779
0.983715
0.983642
0.98356
0.98347
0.983372
0.98327
0.983161
0.983032
0.999206
0.998468
0.99781
0.997218
0.996683
0.996199
0.995758
0.995355
0.99498
0.994629
0.994297
0.993979
0.993675
0.993383
0.993101
0.992829
0.992566
0.99231
0.992062
0.991821
0.991586
0.991357
0.991134
0.990916
0.990703
0.990494
0.990291
0.990091
0.989895
0.989703
0.989515
0.989329
0.989146
0.988966
0.988788
0.988612
0.988438
0.988265
0.988094
0.987925
0.987758
0.987592
0.987427
0.987265
0.987105
0.986948
0.986794
0.986644
0.986497
0.986355
0.986218
0.986085
0.985959
0.985838
0.985723
0.985616
0.985516
0.985427
0.985348
0.985278
0.985216
0.98516
0.985109
0.985061
0.985017
0.984974
0.984932
0.98489
0.984849
0.984808
0.984766
0.984725
0.984683
0.984642
0.984601
0.984562
0.984523
0.984485
0.984447
0.984407
0.984363
0.984314
0.984256
0.984189
0.984114
0.98403
0.983938
0.983837
0.983724
0.983591
0.999219
0.998492
0.997845
0.997262
0.996736
0.99626
0.995827
0.995431
0.995063
0.994718
0.994392
0.994081
0.993782
0.993495
0.993218
0.992951
0.992692
0.992441
0.992197
0.99196
0.991729
0.991504
0.991285
0.991071
0.990862
0.990657
0.990458
0.990262
0.99007
0.989882
0.989697
0.989515
0.989336
0.989161
0.988988
0.988817
0.988648
0.988481
0.988316
0.988153
0.987991
0.987831
0.987674
0.987518
0.987365
0.987215
0.987069
0.986926
0.986788
0.986654
0.986525
0.986401
0.986284
0.986177
0.986082
0.985997
0.985921
0.985854
0.985793
0.985739
0.98569
0.985645
0.985604
0.985565
0.985528
0.985492
0.985457
0.985421
0.985386
0.98535
0.985313
0.985277
0.98524
0.985203
0.985167
0.985132
0.985098
0.985065
0.985031
0.984996
0.984957
0.984911
0.984858
0.984795
0.984724
0.984644
0.984556
0.984459
0.984337
0.984198
0.999231
0.998516
0.997879
0.997306
0.996789
0.99632
0.995895
0.995506
0.995145
0.994806
0.994486
0.99418
0.993887
0.993605
0.993333
0.99307
0.992816
0.992569
0.992329
0.992095
0.991868
0.991646
0.99143
0.99122
0.991014
0.990814
0.990618
0.990426
0.990237
0.990052
0.989871
0.989693
0.989519
0.989349
0.989183
0.989019
0.988857
0.988698
0.988541
0.988387
0.988235
0.988084
0.987937
0.987792
0.987653
0.98752
0.987394
0.987276
0.987166
0.987064
0.986972
0.986888
0.986813
0.986746
0.986687
0.986634
0.986588
0.986548
0.986512
0.98648
0.986452
0.986425
0.9864
0.986376
0.986352
0.986328
0.986303
0.986277
0.986249
0.98622
0.986189
0.986158
0.986125
0.986093
0.986061
0.986031
0.986001
0.985971
0.985941
0.985909
0.985872
0.98583
0.985779
0.985719
0.98565
0.985573
0.985488
0.985393
0.98526
0.985086
0.999244
0.998539
0.997913
0.997349
0.99684
0.99638
0.995962
0.995579
0.995225
0.994893
0.994578
0.994277
0.993987
0.993707
0.993435
0.993171
0.992914
0.992664
0.99242
0.992183
0.991951
0.991726
0.991507
0.991293
0.991086
0.990885
0.990689
0.990499
0.990315
0.990137
0.989965
0.989799
0.989639
0.989486
0.989339
0.989197
0.98906
0.988929
0.988802
0.98868
0.988562
0.988449
0.988342
0.988241
0.988146
0.988059
0.98798
0.987908
0.987843
0.987786
0.987735
0.987692
0.987656
0.987626
0.987601
0.987581
0.987566
0.987554
0.987546
0.987539
0.987535
0.987531
0.987528
0.987526
0.987523
0.987519
0.987514
0.987508
0.9875
0.987492
0.987481
0.98747
0.987458
0.987444
0.987429
0.987413
0.987398
0.987381
0.987364
0.987346
0.987324
0.987294
0.987254
0.987203
0.987141
0.987069
0.986988
0.986896
0.98677
0.986594
0.999256
0.998563
0.997946
0.997392
0.996891
0.996439
0.996028
0.995652
0.995304
0.994978
0.99466
0.994341
0.99402
0.993696
0.993374
0.993055
0.992741
0.992435
0.992136
0.991848
0.991569
0.991301
0.991043
0.990797
0.990561
0.990336
0.99012
0.989914
0.989718
0.989529
0.989347
0.989174
0.989009
0.988855
0.988709
0.988569
0.988431
0.988297
0.988166
0.98804
0.98792
0.987805
0.987699
0.9876
0.98751
0.987427
0.987353
0.987286
0.987228
0.987178
0.987136
0.987101
0.987073
0.987051
0.987035
0.987024
0.987017
0.987013
0.987011
0.987012
0.987013
0.987014
0.987015
0.987016
0.987014
0.987012
0.987006
0.986999
0.986989
0.986977
0.986963
0.986947
0.986929
0.98691
0.986891
0.986872
0.986853
0.986835
0.986817
0.986801
0.986789
0.98677
0.986741
0.986701
0.986649
0.986586
0.986511
0.986424
0.986297
0.986112
0.999267
0.998586
0.997979
0.997433
0.996941
0.996496
0.996093
0.995724
0.995381
0.995051
0.994449
0.9938
0.993142
0.992493
0.991859
0.991249
0.990667
0.990118
0.989605
0.989132
0.988701
0.988313
0.98797
0.98767
0.987411
0.987191
0.987004
0.986844
0.986702
0.986572
0.98645
0.986334
0.986227
0.986128
0.986037
0.985952
0.985868
0.985786
0.985702
0.985616
0.985528
0.985438
0.985346
0.985255
0.985167
0.985079
0.984993
0.984911
0.984832
0.984758
0.984687
0.984622
0.984561
0.984504
0.984451
0.984403
0.984358
0.984317
0.984278
0.984242
0.984208
0.984176
0.984144
0.984112
0.98408
0.984046
0.984011
0.983974
0.983934
0.983892
0.983849
0.983803
0.983757
0.983711
0.983667
0.983625
0.983585
0.983547
0.983512
0.983492
0.983594
0.983687
0.983763
0.983837
0.983903
0.983957
0.983998
0.984028
0.984036
0.984001
0.999279
0.998608
0.998011
0.997475
0.996991
0.996554
0.996157
0.995794
0.995458
0.995134
0.994549
0.993918
0.993276
0.992639
0.992016
0.991412
0.990834
0.990286
0.989772
0.989296
0.98886
0.988468
0.98812
0.987817
0.987556
0.987335
0.987151
0.986995
0.986859
0.986736
0.986619
0.986507
0.986404
0.98631
0.986226
0.986146
0.986065
0.985982
0.985893
0.985798
0.985697
0.98559
0.985478
0.985365
0.985251
0.985136
0.985023
0.984913
0.984805
0.984702
0.984603
0.984508
0.984419
0.984334
0.984254
0.984179
0.98411
0.984045
0.983985
0.983928
0.983876
0.983826
0.983779
0.983734
0.983689
0.983645
0.9836
0.983555
0.983508
0.983459
0.983409
0.983359
0.983309
0.98326
0.983216
0.983175
0.983136
0.983101
0.983065
0.983037
0.983078
0.983158
0.983253
0.983348
0.983435
0.983514
0.983584
0.983647
0.983693
0.983702
0.999291
0.998631
0.998043
0.997516
0.99704
0.99661
0.996221
0.995864
0.995534
0.995216
0.994643
0.994026
0.993398
0.992774
0.992164
0.991572
0.991006
0.990468
0.989965
0.989498
0.989072
0.988689
0.98835
0.988055
0.987804
0.987594
0.987421
0.987277
0.987155
0.987046
0.986942
0.986841
0.986747
0.986662
0.986587
0.986519
0.986454
0.986387
0.986316
0.986238
0.986155
0.986066
0.985973
0.985881
0.98579
0.985699
0.985608
0.98552
0.985435
0.985354
0.985276
0.985203
0.985134
0.985069
0.985009
0.984953
0.984902
0.984854
0.984811
0.98477
0.984733
0.984699
0.984667
0.984636
0.984606
0.984576
0.984547
0.984519
0.984491
0.984464
0.984437
0.98441
0.984385
0.984362
0.98434
0.984321
0.984304
0.984289
0.984275
0.984335
0.984516
0.984671
0.984796
0.984895
0.984971
0.985029
0.98507
0.985096
0.985108
0.985091
0.999302
0.998653
0.998075
0.997556
0.997088
0.996666
0.996283
0.995934
0.99561
0.995298
0.994737
0.994133
0.993519
0.992909
0.992311
0.991732
0.991178
0.990652
0.990159
0.989703
0.989286
0.988912
0.98858
0.988293
0.988048
0.987843
0.987674
0.987535
0.987418
0.987314
0.987215
0.987119
0.987026
0.98694
0.986865
0.986799
0.986736
0.986675
0.986612
0.986541
0.986464
0.986382
0.986295
0.98621
0.986128
0.986046
0.985968
0.985893
0.985822
0.985756
0.985696
0.985642
0.985593
0.985552
0.985519
0.985492
0.985469
0.985449
0.985433
0.985419
0.985406
0.985395
0.985385
0.985374
0.985363
0.985351
0.985336
0.985319
0.9853
0.98528
0.985258
0.985236
0.985214
0.985194
0.985175
0.98516
0.985149
0.985145
0.985157
0.985263
0.985468
0.985632
0.98576
0.985856
0.985926
0.985975
0.986007
0.98602
0.985988
0.985923
0.999313
0.998674
0.998106
0.997595
0.997135
0.996721
0.996345
0.996002
0.995684
0.995378
0.99483
0.99424
0.993639
0.993042
0.992457
0.99189
0.991347
0.990832
0.99035
0.989904
0.989497
0.989131
0.988808
0.988527
0.988288
0.988088
0.987922
0.987786
0.987672
0.987572
0.987478
0.987385
0.987293
0.987206
0.987129
0.987059
0.986996
0.986937
0.986877
0.98681
0.986736
0.986655
0.98657
0.986487
0.986407
0.986328
0.986253
0.986181
0.986114
0.986052
0.985996
0.985947
0.985907
0.985876
0.985853
0.985836
0.985823
0.985814
0.985808
0.985804
0.985802
0.9858
0.985798
0.985795
0.98579
0.985784
0.985775
0.985762
0.985747
0.98573
0.985711
0.98569
0.98567
0.98565
0.985632
0.985617
0.985606
0.985601
0.985613
0.985717
0.985914
0.986072
0.986192
0.986282
0.986346
0.98639
0.986416
0.986425
0.986391
0.986324
0.999324
0.998696
0.998137
0.997635
0.997183
0.996775
0.996406
0.99607
0.995758
0.995458
0.994922
0.994345
0.993758
0.993174
0.992601
0.992047
0.991515
0.991011
0.990538
0.990102
0.989704
0.989347
0.989033
0.98876
0.988527
0.988331
0.988168
0.988033
0.987921
0.987823
0.987733
0.987643
0.987553
0.987467
0.987386
0.987312
0.987246
0.987186
0.987128
0.987062
0.986989
0.986909
0.986822
0.986738
0.986659
0.98658
0.986504
0.986432
0.986365
0.986303
0.986249
0.986202
0.986162
0.986132
0.986111
0.986096
0.986087
0.986082
0.98608
0.98608
0.986082
0.986084
0.986086
0.986086
0.986085
0.986081
0.986075
0.986066
0.986053
0.986038
0.986021
0.986003
0.985984
0.985966
0.98595
0.985937
0.985927
0.985924
0.985936
0.986039
0.986231
0.986384
0.986501
0.986587
0.986649
0.98669
0.986715
0.986723
0.986691
0.986626
0.999335
0.998717
0.998167
0.997673
0.997229
0.996828
0.996466
0.996136
0.99583
0.995536
0.995013
0.994449
0.993875
0.993304
0.992744
0.992202
0.991681
0.991186
0.990723
0.990296
0.989907
0.989559
0.989253
0.988988
0.988762
0.988571
0.988412
0.988279
0.988167
0.98807
0.987981
0.987894
0.987807
0.98772
0.987637
0.987558
0.987485
0.987422
0.987363
0.987298
0.987225
0.987142
0.987052
0.986965
0.986882
0.9868
0.986721
0.986645
0.986575
0.986512
0.986457
0.98641
0.986371
0.986339
0.986314
0.986295
0.986282
0.986277
0.986276
0.986278
0.986283
0.986288
0.986294
0.986299
0.986302
0.986303
0.986301
0.986296
0.986288
0.986277
0.986264
0.98625
0.986235
0.98622
0.986207
0.986196
0.986189
0.986187
0.9862
0.986302
0.986488
0.986637
0.98675
0.986833
0.986891
0.98693
0.986953
0.986961
0.98693
0.986869
0.999346
0.998738
0.998197
0.997711
0.997274
0.996881
0.996526
0.996202
0.995902
0.995614
0.995103
0.994551
0.99399
0.993432
0.992885
0.992354
0.991843
0.991358
0.990904
0.990484
0.990104
0.989766
0.98947
0.989215
0.988998
0.988815
0.98866
0.988529
0.988418
0.988322
0.988234
0.988149
0.988064
0.987977
0.987891
0.987807
0.987726
0.987657
0.987596
0.987529
0.987453
0.987366
0.987269
0.987175
0.987085
0.986996
0.986909
0.986827
0.986751
0.986683
0.986625
0.986577
0.986537
0.986505
0.98648
0.98646
0.986446
0.986438
0.986433
0.986432
0.986434
0.986437
0.986442
0.986446
0.98645
0.986452
0.986453
0.98645
0.986445
0.986438
0.986428
0.986417
0.986404
0.986391
0.986378
0.986367
0.986356
0.986348
0.986356
0.986452
0.986629
0.986769
0.986874
0.986951
0.987005
0.987039
0.98706
0.987066
0.987037
0.986991
0.999357
0.998758
0.998226
0.997749
0.997319
0.996933
0.996584
0.996267
0.995973
0.99569
0.995192
0.994653
0.994104
0.993559
0.993024
0.992506
0.992007
0.991533
0.99109
0.990682
0.990316
0.989994
0.989717
0.989483
0.989286
0.98912
0.98898
0.988861
0.988757
0.988664
0.98858
0.988499
0.988416
0.988331
0.988244
0.988155
0.988067
0.987988
0.987917
0.987842
0.987755
0.987653
0.987539
0.987426
0.987317
0.987209
0.987105
0.98701
0.986924
0.98685
0.986788
0.986738
0.986696
0.986662
0.986634
0.986612
0.986594
0.986581
0.986572
0.986565
0.986561
0.986559
0.986558
0.986557
0.986556
0.986554
0.986552
0.986548
0.986542
0.986533
0.986522
0.98651
0.986497
0.986484
0.986471
0.98646
0.986449
0.986438
0.986427
0.986484
0.986635
0.986763
0.986864
0.986942
0.986999
0.987038
0.987064
0.987077
0.987076
0.987052
0.999367
0.998778
0.998255
0.997786
0.997364
0.996984
0.996642
0.996331
0.996043
0.995766
0.995275
0.994745
0.994206
0.993674
0.993158
0.992667
0.992205
0.991776
0.991387
0.991041
0.990744
0.990494
0.99029
0.990124
0.989988
0.989872
0.98977
0.989677
0.989589
0.989505
0.989423
0.989342
0.989258
0.98917
0.989077
0.988979
0.988877
0.988778
0.988681
0.988577
0.988456
0.988314
0.988151
0.987977
0.987796
0.987605
0.987411
0.987227
0.98707
0.986943
0.986847
0.986779
0.986734
0.986708
0.986697
0.986696
0.986702
0.986713
0.986726
0.98674
0.986754
0.986766
0.986782
0.9868
0.986819
0.986835
0.986849
0.98686
0.986867
0.98687
0.98687
0.986867
0.986863
0.986857
0.986852
0.986847
0.986844
0.986841
0.986839
0.986907
0.987068
0.987204
0.98731
0.987391
0.987448
0.987487
0.98751
0.987518
0.987498
0.987457
0.999377
0.998798
0.998284
0.997822
0.997408
0.997035
0.9967
0.996395
0.996113
0.99585
0.9956
0.995357
0.995122
0.994893
0.994671
0.994454
0.994241
0.994032
0.993828
0.993629
0.993437
0.993254
0.993079
0.992913
0.992754
0.992598
0.992446
0.992297
0.99215
0.992006
0.991865
0.991728
0.991593
0.99146
0.991328
0.991196
0.991064
0.990935
0.990809
0.990686
0.990563
0.990439
0.990313
0.990188
0.990064
0.989937
0.989809
0.989677
0.989538
0.989393
0.989247
0.989102
0.98896
0.988824
0.988701
0.988596
0.988509
0.988442
0.988392
0.988357
0.988338
0.98833
0.988326
0.988327
0.988331
0.98834
0.988353
0.98837
0.988389
0.98841
0.98843
0.98845
0.988468
0.988486
0.988503
0.98852
0.988536
0.988552
0.988566
0.988582
0.988597
0.988603
0.988598
0.988581
0.988552
0.988513
0.988467
0.988413
0.988333
0.988228
0.999388
0.998818
0.998312
0.997858
0.997451
0.997085
0.996756
0.996457
0.996182
0.995924
0.995681
0.995448
0.995225
0.99501
0.994802
0.994601
0.994405
0.994213
0.994023
0.993838
0.993658
0.993486
0.993322
0.993166
0.993016
0.992869
0.992724
0.99258
0.992437
0.992297
0.992158
0.992023
0.99189
0.991758
0.991627
0.991495
0.991359
0.991223
0.991087
0.990954
0.990825
0.990698
0.990577
0.990459
0.990345
0.990231
0.990118
0.990005
0.989896
0.989795
0.989702
0.989615
0.989535
0.98946
0.989393
0.989333
0.989281
0.989238
0.989203
0.989176
0.989158
0.989146
0.98914
0.989139
0.989142
0.989146
0.989149
0.989151
0.98915
0.989148
0.989144
0.989138
0.989131
0.989122
0.989112
0.989102
0.989092
0.989081
0.98907
0.989058
0.989043
0.98902
0.988988
0.988947
0.988896
0.988839
0.988776
0.98871
0.988622
0.988516
0.999397
0.998838
0.99834
0.997894
0.997493
0.997134
0.996812
0.996519
0.996249
0.995997
0.995759
0.995531
0.995313
0.995104
0.994902
0.994707
0.994517
0.99433
0.994146
0.993964
0.993786
0.993616
0.993453
0.993299
0.993151
0.993006
0.992862
0.992719
0.992576
0.992435
0.992297
0.992161
0.992027
0.991896
0.991765
0.99163
0.991489
0.991343
0.991192
0.991044
0.990902
0.990767
0.99064
0.990518
0.990402
0.990285
0.990168
0.990054
0.989944
0.989839
0.98974
0.989645
0.989556
0.989472
0.989394
0.989322
0.989258
0.989204
0.98916
0.989126
0.989099
0.989078
0.989062
0.98905
0.98904
0.989031
0.989023
0.989015
0.989006
0.988995
0.988984
0.988972
0.988961
0.98895
0.988942
0.988935
0.988932
0.988932
0.988936
0.988941
0.988947
0.988951
0.98895
0.988945
0.988934
0.988918
0.9889
0.988881
0.988852
0.98881
0.999407
0.998856
0.998367
0.997928
0.997535
0.997182
0.996866
0.996578
0.996314
0.996067
0.995834
0.995611
0.995398
0.995193
0.994996
0.994805
0.994619
0.994437
0.994256
0.994078
0.993903
0.993734
0.993573
0.99342
0.993275
0.993133
0.992993
0.992853
0.992713
0.992574
0.992438
0.992305
0.992175
0.992046
0.991918
0.991783
0.991637
0.991485
0.991323
0.991164
0.991014
0.990876
0.990752
0.990634
0.990524
0.990413
0.990301
0.99019
0.990083
0.989978
0.989878
0.989782
0.989689
0.989601
0.98952
0.989445
0.989377
0.989316
0.989262
0.989217
0.989178
0.989146
0.98912
0.989099
0.989083
0.98907
0.989061
0.989054
0.989051
0.989055
0.989065
0.989081
0.989104
0.989134
0.989171
0.989216
0.989269
0.989328
0.989393
0.989463
0.989536
0.989608
0.989675
0.989734
0.989783
0.989824
0.989858
0.989885
0.989892
0.989881
0.999417
0.998875
0.998393
0.997962
0.997576
0.99723
0.996919
0.996637
0.996379
0.996137
0.995909
0.995691
0.995482
0.995281
0.995088
0.994902
0.994721
0.994543
0.994368
0.994194
0.994022
0.993856
0.993696
0.993546
0.993403
0.993265
0.993129
0.992992
0.992856
0.99272
0.992586
0.992456
0.992329
0.992205
0.992079
0.991943
0.991793
0.991637
0.991471
0.991313
0.991174
0.99106
0.990968
0.990884
0.990808
0.990727
0.990641
0.990554
0.990468
0.990384
0.990303
0.990226
0.990152
0.990084
0.990023
0.989969
0.989923
0.989885
0.989856
0.989836
0.989824
0.98982
0.989825
0.989836
0.989855
0.98988
0.989919
0.989971
0.990032
0.990101
0.990175
0.990254
0.990338
0.990428
0.990525
0.990629
0.990737
0.990846
0.990952
0.991054
0.991148
0.991229
0.991297
0.99135
0.991388
0.991414
0.991429
0.991436
0.991425
0.991389
0.999426
0.998894
0.99842
0.997997
0.997617
0.997277
0.996973
0.996697
0.996444
0.996207
0.995984
0.995771
0.995566
0.99537
0.995181
0.994999
0.994822
0.99465
0.994479
0.99431
0.994143
0.99398
0.993823
0.993675
0.993534
0.9934
0.993268
0.993136
0.993004
0.992872
0.992742
0.992615
0.992492
0.992371
0.992248
0.992112
0.991958
0.991803
0.991656
0.991549
0.991501
0.991505
0.991546
0.991596
0.991652
0.991699
0.99172
0.991729
0.99173
0.991724
0.991711
0.991694
0.991672
0.991649
0.991627
0.991606
0.991589
0.991578
0.991573
0.991576
0.991587
0.991607
0.991635
0.991671
0.991719
0.99178
0.991847
0.99192
0.991999
0.992083
0.992169
0.992255
0.992339
0.992421
0.992499
0.992573
0.992643
0.992708
0.992767
0.992817
0.992857
0.992886
0.9929
0.992901
0.992888
0.992864
0.992832
0.992795
0.992746
0.992679
0.999436
0.998913
0.998448
0.998031
0.997659
0.997326
0.997027
0.996758
0.99651
0.996279
0.996061
0.995853
0.995653
0.995461
0.995277
0.995099
0.994927
0.994759
0.994595
0.994431
0.994269
0.99411
0.993956
0.99381
0.993672
0.993541
0.993415
0.993288
0.993161
0.993033
0.992906
0.992782
0.992661
0.992542
0.992421
0.992284
0.992127
0.992005
0.992012
0.992142
0.992374
0.992652
0.992919
0.99315
0.993354
0.993517
0.993638
0.993708
0.993737
0.993742
0.993728
0.993701
0.993666
0.993628
0.993591
0.993557
0.99353
0.99351
0.993499
0.993498
0.993508
0.993532
0.993567
0.993611
0.99366
0.99371
0.993761
0.99381
0.993857
0.993901
0.993942
0.993978
0.994009
0.994037
0.994062
0.994082
0.994099
0.994111
0.994118
0.994119
0.994111
0.994094
0.994064
0.994023
0.99397
0.993909
0.993842
0.993773
0.993695
0.993604
0.999446
0.998932
0.998475
0.998066
0.997701
0.997374
0.997082
0.996818
0.996577
0.996351
0.996138
0.995935
0.99574
0.995553
0.995373
0.995199
0.995032
0.994869
0.99471
0.994552
0.994396
0.994241
0.994091
0.993947
0.993811
0.993683
0.993561
0.99344
0.993317
0.993193
0.993068
0.992945
0.992823
0.992704
0.992581
0.992442
0.992287
0.992313
0.992716
0.993297
0.993821
0.99422
0.994554
0.99478
0.994944
0.995051
0.995111
0.995135
0.995133
0.995108
0.995074
0.995038
0.995003
0.994972
0.994947
0.994934
0.994932
0.994939
0.994952
0.994971
0.994994
0.995019
0.995045
0.995072
0.995096
0.995115
0.995129
0.995141
0.99515
0.995155
0.995156
0.995154
0.995147
0.995137
0.995124
0.995109
0.99509
0.995069
0.995043
0.995013
0.994975
0.994928
0.994871
0.994803
0.994726
0.994641
0.994552
0.994462
0.994365
0.994259
0.999455
0.99895
0.9985
0.998099
0.99774
0.99742
0.997134
0.996876
0.996639
0.996419
0.996211
0.996013
0.995823
0.99564
0.995464
0.995294
0.995131
0.994972
0.994818
0.994666
0.994514
0.994364
0.994217
0.994075
0.99394
0.993814
0.993693
0.993575
0.993456
0.993334
0.993209
0.993084
0.99296
0.992835
0.992705
0.992561
0.992448
0.992747
0.993938
0.994847
0.995416
0.995748
0.99591
0.995983
0.996023
0.99603
0.996015
0.995988
0.995957
0.995927
0.995898
0.99588
0.995879
0.995892
0.99591
0.995931
0.995952
0.995972
0.995991
0.996008
0.996022
0.996034
0.996043
0.996049
0.996052
0.996051
0.996047
0.996037
0.996022
0.996003
0.995979
0.995952
0.995922
0.995888
0.995853
0.995815
0.995775
0.995733
0.995687
0.995637
0.99558
0.995515
0.995441
0.995356
0.995262
0.995162
0.995059
0.994955
0.994847
0.99473
0.999463
0.998965
0.998522
0.998127
0.997774
0.997459
0.997178
0.996925
0.996693
0.996477
0.996273
0.996079
0.995893
0.995713
0.995541
0.995374
0.995214
0.995059
0.994908
0.99476
0.994613
0.994466
0.994322
0.994181
0.994046
0.993917
0.993795
0.993675
0.993554
0.99343
0.993304
0.993175
0.993045
0.99291
0.992769
0.992616
0.992497
0.992811
0.994278
0.995412
0.996179
0.996663
0.996706
0.996699
0.996682
0.996645
0.996601
0.996558
0.996522
0.996497
0.996492
0.996507
0.996534
0.996567
0.9966
0.996631
0.996657
0.996678
0.996694
0.996705
0.996711
0.996712
0.996708
0.996701
0.996689
0.996673
0.996654
0.99663
0.996602
0.99657
0.996535
0.996495
0.996452
0.996405
0.996356
0.996304
0.99625
0.996194
0.996136
0.996073
0.996003
0.995926
0.99584
0.995745
0.99564
0.99553
0.995417
0.995304
0.995188
0.995064
0.999469
0.998976
0.998538
0.998147
0.997798
0.997487
0.99721
0.99696
0.996731
0.996518
0.996317
0.996126
0.995942
0.995765
0.995595
0.99543
0.995272
0.995118
0.994969
0.994824
0.99468
0.994536
0.994393
0.994252
0.994114
0.99398
0.993849
0.99372
0.993592
0.993461
0.99333
0.993197
0.993058
0.992913
0.992762
0.992606
0.992477
0.992769
0.994396
0.995701
0.996628
0.99725
0.997179
0.997085
0.996996
0.996905
0.996828
0.99677
0.996732
0.996711
0.996717
0.996747
0.996792
0.996845
0.9969
0.996952
0.996998
0.997034
0.997061
0.997079
0.99709
0.997093
0.99709
0.99708
0.997065
0.997045
0.99702
0.996991
0.996957
0.996918
0.996876
0.996829
0.996779
0.996726
0.99667
0.996612
0.996552
0.996489
0.996423
0.996353
0.996276
0.996192
0.996099
0.995996
0.995885
0.995768
0.995649
0.995531
0.995409
0.995281
0.999472
0.998982
0.998547
0.998158
0.997811
0.997503
0.997227
0.996979
0.996751
0.99654
0.99634
0.99615
0.995967
0.995791
0.995622
0.995458
0.995299
0.995146
0.994997
0.994852
0.99471
0.994567
0.994425
0.994282
0.994138
0.993995
0.993848
0.993704
0.993562
0.993421
0.993284
0.993146
0.993004
0.992858
0.992712
0.992578
0.992442
0.992669
0.994266
0.995619
0.996603
0.997262
0.997088
0.996896
0.996726
0.996584
0.996492
0.996447
0.996426
0.996423
0.996449
0.996504
0.996581
0.996673
0.996772
0.996869
0.996957
0.997033
0.997093
0.99714
0.997174
0.997196
0.997208
0.99721
0.997205
0.997192
0.997172
0.997146
0.997115
0.997077
0.997035
0.996988
0.996937
0.996882
0.996824
0.996764
0.996701
0.996636
0.996567
0.996494
0.996415
0.996328
0.996232
0.996126
0.996012
0.995892
0.995769
0.995648
0.995524
0.995393
0.999472
0.998983
0.998548
0.99816
0.997814
0.997505
0.99723
0.996982
0.996755
0.996544
0.996344
0.996153
0.99597
0.995794
0.995624
0.995459
0.995299
0.995145
0.994995
0.994849
0.994706
0.994563
0.99442
0.994273
0.994121
0.993964
0.993799
0.993636
0.993477
0.993324
0.993184
0.99305
0.992922
0.992806
0.992715
0.992662
0.992566
0.992455
0.993046
0.993735
0.994481
0.995152
0.995168
0.995161
0.995149
0.995138
0.995164
0.995225
0.995303
0.9954
0.995516
0.995653
0.995808
0.995979
0.996157
0.996334
0.996499
0.996645
0.996772
0.996876
0.996958
0.99702
0.997066
0.997096
0.997114
0.997121
0.997118
0.997106
0.997085
0.997058
0.997023
0.996983
0.996937
0.996887
0.996832
0.996775
0.996714
0.996651
0.996583
0.996511
0.996433
0.996346
0.99625
0.996145
0.99603
0.99591
0.995787
0.995666
0.995541
0.995409
0.999471
0.99898
0.998545
0.998156
0.997808
0.997499
0.997223
0.996974
0.996746
0.996534
0.996334
0.996142
0.995959
0.995781
0.99561
0.995444
0.995283
0.995126
0.994974
0.994826
0.994681
0.994538
0.994392
0.994238
0.994074
0.993903
0.993718
0.993536
0.993362
0.993204
0.993076
0.992974
0.992907
0.992888
0.992934
0.993027
0.992964
0.992832
0.993273
0.993676
0.994048
0.994377
0.994095
0.993859
0.993696
0.993583
0.99354
0.99357
0.993695
0.993894
0.994146
0.994424
0.994709
0.994994
0.995273
0.99554
0.995788
0.996009
0.996204
0.996368
0.996503
0.996613
0.9967
0.996766
0.996816
0.996849
0.99687
0.996879
0.996877
0.996866
0.996846
0.996819
0.996784
0.996744
0.996699
0.99665
0.996597
0.996541
0.99648
0.996413
0.99634
0.996257
0.996165
0.996063
0.995952
0.995835
0.995714
0.995595
0.995471
0.995342
0.999469
0.998976
0.998538
0.998147
0.997799
0.997488
0.99721
0.99696
0.996731
0.996517
0.996316
0.996124
0.995939
0.995761
0.995588
0.995421
0.995258
0.9951
0.994946
0.994796
0.99465
0.994505
0.994356
0.994196
0.994018
0.993832
0.993631
0.993434
0.993258
0.993122
0.993045
0.993029
0.993089
0.993234
0.993451
0.993638
0.993498
0.993273
0.993751
0.994197
0.994588
0.994909
0.994437
0.993988
0.993615
0.993386
0.993337
0.993344
0.99335
0.993447
0.993621
0.993849
0.994106
0.994376
0.994646
0.994908
0.995154
0.99538
0.995589
0.995775
0.995935
0.996071
0.996185
0.996278
0.996354
0.996413
0.996457
0.996489
0.996508
0.996517
0.996516
0.996507
0.99649
0.996465
0.996435
0.9964
0.99636
0.996315
0.996265
0.996209
0.996145
0.996072
0.995988
0.995893
0.995789
0.995678
0.995563
0.995448
0.995329
0.995203
0.999466
0.998971
0.998532
0.998139
0.997788
0.997476
0.997196
0.996945
0.996714
0.996499
0.996296
0.996102
0.995916
0.995737
0.995564
0.995395
0.995232
0.995072
0.994917
0.994765
0.994618
0.994472
0.994321
0.994154
0.993966
0.993769
0.993558
0.99337
0.99324
0.993191
0.99324
0.993371
0.993587
0.993867
0.994154
0.994238
0.993847
0.993327
0.993914
0.994455
0.994884
0.99512
0.993447
0.991814
0.992503
0.99327
0.994423
0.99497
0.995012
0.994589
0.994353
0.99426
0.99431
0.994429
0.994581
0.994745
0.994913
0.995073
0.995226
0.995362
0.995484
0.995593
0.99569
0.995775
0.995848
0.99591
0.995962
0.996005
0.99604
0.996065
0.996084
0.996095
0.996099
0.996096
0.996085
0.996069
0.996047
0.996019
0.995985
0.995944
0.995894
0.995833
0.99576
0.995676
0.995581
0.995478
0.995372
0.995264
0.995151
0.99503
0.999465
0.998968
0.998527
0.998133
0.997781
0.997466
0.997186
0.996933
0.996701
0.996484
0.99628
0.996085
0.995897
0.995716
0.995542
0.995372
0.995207
0.995046
0.994889
0.994736
0.994587
0.99444
0.994288
0.994119
0.993924
0.993734
0.993586
0.993512
0.993544
0.993673
0.993873
0.99411
0.994369
0.994608
0.994751
0.994552
0.994743
0.995456
0.995944