/*--------------------------------*- C++ -*----------------------------------*\
| =========                 |                                                 |
| \\      /  F ield         | OpenFOAM: The Open Source CFD Toolbox           |
|  \\    /   O peration     | Version:  v2012                                 |
|   \\  /    A nd           | Website:  www.openfoam.com                      |
|    \\/     M anipulation  |                                                 |
\*---------------------------------------------------------------------------*/
FoamFile
{
    version     2.0;
    format      ascii;
    class       volScalarField;
    location    "150/air";
    object      TLeaf;
}
// * * * * * * * * * * * * * * * * * * * * * * * * * * * * * * * * * * * * * //

dimensions      [0 0 0 1 0 0 0];


internalField   nonuniform List<scalar> 
287104
(
310.286
310.552
310.79
311.004
311.198
311.374
311.534
311.682
311.819
311.948
312.07
312.187
312.298
312.406
312.51
312.61
312.707
312.802
312.893
312.983
313.07
313.155
313.238
313.319
313.398
313.476
313.552
313.627
313.7
313.772
313.843
313.913
313.982
314.05
314.117
314.184
314.25
314.316
314.381
314.445
314.51
314.573
314.637
314.699
314.762
314.823
314.883
314.943
315.001
315.057
315.113
315.166
315.218
315.268
315.316
315.362
315.405
315.447
315.486
315.523
315.558
315.59
315.621
315.651
315.679
315.705
315.731
315.756
315.78
315.805
315.829
315.852
315.876
315.9
315.924
315.947
315.97
315.994
316.018
316.043
316.07
316.098
316.13
316.165
316.202
316.242
316.283
316.324
316.368
316.419
310.282
310.544
310.778
310.988
311.178
311.351
311.509
311.653
311.788
311.914
312.033
312.147
312.256
312.361
312.463
312.561
312.655
312.747
312.837
312.923
313.008
313.091
313.171
313.25
313.327
313.403
313.477
313.549
313.62
313.69
313.759
313.826
313.893
313.959
314.024
314.089
314.153
314.217
314.28
314.342
314.404
314.466
314.527
314.588
314.647
314.706
314.765
314.822
314.877
314.932
314.985
315.036
315.086
315.133
315.179
315.223
315.264
315.304
315.341
315.376
315.41
315.441
315.471
315.499
315.526
315.552
315.577
315.602
315.626
315.65
315.674
315.697
315.721
315.745
315.769
315.792
315.816
315.84
315.864
315.889
315.916
315.945
315.977
316.012
316.05
316.09
316.131
316.173
316.217
316.269
310.277
310.536
310.766
310.973
311.16
311.33
311.485
311.627
311.758
311.882
311.999
312.111
312.218
312.321
312.421
312.516
312.609
312.699
312.787
312.872
312.955
313.036
313.115
313.192
313.267
313.341
313.413
313.484
313.553
313.621
313.688
313.754
313.819
313.883
313.946
314.009
314.072
314.133
314.194
314.255
314.315
314.375
314.434
314.493
314.55
314.607
314.663
314.718
314.772
314.824
314.875
314.923
314.971
315.016
315.059
315.1
315.14
315.177
315.211
315.244
315.275
315.304
315.332
315.357
315.382
315.406
315.428
315.451
315.473
315.494
315.516
315.538
315.559
315.581
315.602
315.623
315.645
315.666
315.688
315.71
315.734
315.761
315.79
315.822
315.857
315.894
315.932
315.97
316.011
316.059
310.273
310.527
310.754
310.957
311.142
311.309
311.461
311.6
311.73
311.851
311.966
312.076
312.181
312.282
312.38
312.474
312.565
312.653
312.739
312.823
312.904
312.983
313.061
313.136
313.21
313.282
313.353
313.422
313.49
313.557
313.622
313.687
313.75
313.813
313.875
313.937
313.998
314.058
314.118
314.177
314.236
314.295
314.352
314.409
314.466
314.521
314.576
314.629
314.682
314.732
314.782
314.829
314.875
314.919
314.96
315
315.038
315.073
315.107
315.138
315.167
315.194
315.219
315.243
315.265
315.285
315.306
315.325
315.345
315.364
315.383
315.402
315.421
315.44
315.459
315.477
315.495
315.514
315.532
315.551
315.572
315.594
315.619
315.647
315.678
315.711
315.744
315.778
315.815
315.858
310.269
310.519
310.742
310.942
311.123
311.288
311.437
311.574
311.701
311.82
311.933
312.041
312.144
312.244
312.339
312.432
312.521
312.608
312.692
312.774
312.854
312.932
313.008
313.082
313.154
313.225
313.294
313.362
313.429
313.494
313.558
313.621
313.683
313.745
313.806
313.866
313.925
313.984
314.043
314.1
314.158
314.215
314.271
314.327
314.382
314.436
314.489
314.541
314.591
314.64
314.688
314.734
314.778
314.82
314.86
314.898
314.934
314.968
314.999
315.027
315.052
315.074
315.095
315.114
315.132
315.149
315.165
315.182
315.198
315.214
315.23
315.246
315.263
315.279
315.295
315.31
315.326
315.341
315.356
315.371
315.388
315.407
315.428
315.453
315.48
315.51
315.543
315.577
315.613
315.656
310.265
310.511
310.73
310.927
311.106
311.267
311.414
311.548
311.673
311.79
311.901
312.007
312.108
312.206
312.3
312.39
312.478
312.563
312.646
312.726
312.805
312.881
312.955
313.028
313.099
313.169
313.236
313.303
313.368
313.432
313.495
313.557
313.618
313.678
313.737
313.796
313.854
313.912
313.969
314.025
314.081
314.136
314.191
314.245
314.298
314.351
314.402
314.452
314.501
314.548
314.594
314.638
314.68
314.721
314.759
314.795
314.828
314.858
314.884
314.907
314.928
314.947
314.964
314.98
314.994
315.009
315.023
315.037
315.05
315.064
315.078
315.092
315.106
315.119
315.133
315.146
315.159
315.172
315.184
315.198
315.212
315.229
315.248
315.27
315.295
315.323
315.354
315.388
315.425
315.47
310.26
310.503
310.718
310.913
311.088
311.247
311.391
311.523
311.646
311.761
311.869
311.973
312.073
312.168
312.261
312.35
312.436
312.52
312.601
312.68
312.757
312.832
312.905
312.976
313.046
313.114
313.181
313.246
313.31
313.373
313.434
313.495
313.555
313.613
313.671
313.728
313.784
313.84
313.895
313.949
314.003
314.056
314.109
314.161
314.212
314.262
314.31
314.358
314.404
314.449
314.492
314.533
314.572
314.608
314.639
314.668
314.693
314.715
314.736
314.754
314.77
314.785
314.799
314.812
314.824
314.836
314.848
314.86
314.871
314.883
314.896
314.908
314.92
314.932
314.944
314.956
314.967
314.978
314.99
315.001
315.014
315.03
315.047
315.068
315.092
315.119
315.148
315.18
315.221
315.267
310.256
310.495
310.707
310.898
311.07
311.227
311.368
311.498
311.618
311.731
311.838
311.94
312.038
312.132
312.222
312.31
312.395
312.477
312.557
312.635
312.711
312.785
312.857
312.927
312.995
313.062
313.127
313.191
313.254
313.316
313.376
313.436
313.494
313.55
313.606
313.66
313.714
313.767
313.82
313.871
313.922
313.972
314.021
314.069
314.116
314.16
314.202
314.241
314.278
314.312
314.343
314.371
314.396
314.418
314.438
314.455
314.471
314.484
314.496
314.507
314.516
314.525
314.533
314.541
314.549
314.557
314.566
314.574
314.584
314.593
314.604
314.614
314.625
314.636
314.646
314.656
314.666
314.676
314.686
314.697
314.709
314.723
314.74
314.76
314.783
314.809
314.837
314.869
314.913
314.971
310.252
310.487
310.696
310.884
311.053
311.207
311.346
311.474
311.592
311.702
311.807
311.908
312.004
312.098
312.188
312.276
312.362
312.445
312.527
312.606
312.683
312.758
312.831
312.902
312.971
313.038
313.104
313.167
313.228
313.288
313.345
313.4
313.454
313.505
313.554
313.601
313.647
313.69
313.733
313.773
313.813
313.85
313.886
313.92
313.951
313.98
314.007
314.031
314.052
314.071
314.088
314.103
314.115
314.125
314.133
314.14
314.145
314.149
314.151
314.154
314.155
314.156
314.157
314.158
314.159
314.16
314.162
314.164
314.167
314.169
314.173
314.177
314.181
314.185
314.19
314.196
314.201
314.206
314.212
314.218
314.225
314.235
314.249
314.266
314.286
314.31
314.337
314.368
314.41
314.469
310.248
310.479
310.685
310.869
311.036
311.187
311.324
311.449
311.565
311.674
311.78
311.886
311.993
312.101
312.209
312.315
312.42
312.522
312.621
312.717
312.81
312.9
312.986
313.068
313.146
313.221
313.293
313.362
313.427
313.49
313.551
313.609
313.664
313.715
313.764
313.81
313.856
313.901
313.945
313.987
314.027
314.065
314.1
314.133
314.163
314.191
314.216
314.238
314.257
314.274
314.288
314.3
314.309
314.316
314.322
314.325
314.328
314.329
314.33
314.329
314.329
314.329
314.328
314.328
314.329
314.329
314.331
314.334
314.337
314.341
314.346
314.351
314.357
314.363
314.37
314.376
314.382
314.388
314.394
314.4
314.404
314.41
314.42
314.433
314.45
314.471
314.496
314.525
314.568
314.629
310.244
310.471
310.674
310.856
311.02
311.168
311.302
311.425
311.54
311.65
313.082
313.137
313.277
313.44
313.603
313.76
313.906
314.041
314.164
314.275
314.373
314.458
314.53
314.589
314.635
314.671
314.703
314.743
314.799
314.869
314.938
314.984
314.993
314.969
314.935
314.918
314.92
314.926
314.937
314.954
314.97
314.994
315.018
315.023
315.03
315.047
315.06
315.071
315.082
315.091
315.1
315.109
315.117
315.125
315.133
315.14
315.146
315.153
315.16
315.168
315.176
315.187
315.199
315.215
315.235
315.259
315.287
315.32
315.355
315.392
315.428
315.461
315.489
315.511
315.527
315.539
315.55
315.564
315.587
315.633
315.469
315.438
315.412
315.388
315.366
315.348
315.334
315.324
315.321
315.333
310.24
310.464
310.663
310.842
311.003
311.149
311.281
311.402
311.514
311.622
312.936
312.981
313.116
313.276
313.439
313.596
313.743
313.879
314.004
314.117
314.218
314.306
314.38
314.441
314.488
314.523
314.552
314.588
314.643
314.719
314.801
314.864
314.885
314.861
314.815
314.781
314.771
314.768
314.778
314.803
314.826
314.86
314.897
314.906
314.919
314.946
314.968
314.99
315.009
315.028
315.047
315.065
315.082
315.097
315.112
315.125
315.137
315.149
315.16
315.171
315.182
315.195
315.21
315.228
315.25
315.276
315.307
315.342
315.379
315.417
315.454
315.488
315.515
315.536
315.55
315.56
315.568
315.579
315.599
315.647
315.641
315.614
315.582
315.551
315.522
315.495
315.472
315.451
315.436
315.433
310.236
310.456
310.652
310.828
310.987
311.13
311.26
311.379
311.489
311.595
312.819
312.861
312.992
313.149
313.307
313.459
313.602
313.735
313.858
313.969
314.068
314.155
314.229
314.289
314.336
314.37
314.396
314.426
314.474
314.547
314.637
314.714
314.751
314.734
314.683
314.633
314.605
314.585
314.586
314.61
314.631
314.665
314.704
314.706
314.711
314.735
314.755
314.774
314.792
314.81
314.827
314.844
314.859
314.873
314.886
314.898
314.909
314.919
314.928
314.937
314.947
314.958
314.971
314.988
315.009
315.034
315.063
315.095
315.13
315.164
315.197
315.226
315.249
315.265
315.273
315.277
315.278
315.283
315.297
315.327
315.161
315.11
315.068
315.035
315.01
314.99
314.977
314.968
314.964
314.97
310.233
310.449
310.642
310.815
310.971
311.111
311.239
311.355
311.463
311.567
312.706
312.746
312.874
313.026
313.181
313.329
313.468
313.597
313.716
313.824
313.921
314.007
314.08
314.14
314.188
314.224
314.251
314.278
314.318
314.386
314.475
314.562
314.616
314.615
314.568
314.513
314.47
314.43
314.419
314.444
314.466
314.501
314.543
314.54
314.538
314.561
314.579
314.596
314.613
314.629
314.645
314.658
314.669
314.679
314.687
314.695
314.701
314.707
314.712
314.717
314.723
314.731
314.742
314.757
314.776
314.8
314.827
314.858
314.891
314.925
314.956
314.983
315.004
315.018
315.023
315.024
315.023
315.024
315.033
315.054
314.844
314.789
314.747
314.715
314.691
314.675
314.664
314.66
314.671
314.692
310.229
310.442
310.631
310.802
310.955
311.093
311.218
311.333
311.439
311.541
312.595
312.633
312.757
312.906
313.057
313.202
313.339
313.464
313.579
313.683
313.777
313.86
313.931
313.992
314.042
314.081
314.112
314.139
314.174
314.231
314.312
314.401
314.468
314.485
314.452
314.399
314.348
314.287
314.26
314.283
314.307
314.345
314.392
314.384
314.377
314.4
314.418
314.436
314.454
314.471
314.485
314.496
314.505
314.512
314.519
314.525
314.529
314.533
314.537
314.54
314.546
314.553
314.564
314.579
314.597
314.62
314.646
314.676
314.709
314.741
314.772
314.797
314.816
314.827
314.83
314.829
314.827
314.828
314.837
314.86
314.695
314.643
314.603
314.573
314.551
314.537
314.528
314.525
314.536
314.559
310.225
310.435
310.621
310.788
310.939
311.075
311.198
311.31
311.414
311.514
312.485
312.521
312.641
312.786
312.935
313.078
313.214
313.337
313.449
313.549
313.637
313.716
313.784
313.843
313.895
313.94
313.977
314.009
314.041
314.088
314.156
314.237
314.308
314.341
314.326
314.286
314.233
314.153
314.105
314.124
314.15
314.192
314.245
314.234
314.223
314.246
314.266
314.287
314.308
314.325
314.338
314.346
314.353
314.359
314.365
314.371
314.375
314.378
314.381
314.385
314.391
314.399
314.409
314.423
314.441
314.462
314.488
314.517
314.548
314.579
314.608
314.631
314.647
314.655
314.657
314.655
314.652
314.655
314.666
314.692
314.59
314.539
314.5
314.471
314.45
314.437
314.428
314.426
314.436
314.458
310.222
310.428
310.611
310.776
310.924
311.057
311.178
311.288
311.39
311.488
312.377
312.41
312.527
312.668
312.814
312.957
313.094
313.219
313.33
313.425
313.507
313.578
313.64
313.696
313.749
313.798
313.843
313.883
313.919
313.958
314.011
314.078
314.144
314.186
314.19
314.168
314.122
314.027
313.955
313.964
313.992
314.039
314.101
314.088
314.074
314.1
314.123
314.149
314.173
314.19
314.2
314.205
314.21
314.217
314.224
314.23
314.235
314.239
314.243
314.247
314.253
314.26
314.27
314.282
314.298
314.318
314.342
314.37
314.399
314.427
314.452
314.472
314.486
314.492
314.493
314.491
314.49
314.494
314.508
314.536
314.504
314.454
314.417
314.389
314.37
314.357
314.349
314.346
314.357
314.377
310.218
310.421
310.601
310.763
310.909
311.04
311.158
311.266
311.366
311.462
312.272
312.303
312.416
312.553
312.696
312.84
312.979
313.108
313.222
313.315
313.389
313.449
313.502
313.551
313.602
313.654
313.707
313.757
313.799
313.836
313.876
313.926
313.98
314.023
314.041
314.039
314.006
313.903
313.806
313.8
313.826
313.88
313.952
313.941
313.927
313.958
313.988
314.02
314.046
314.062
314.068
314.07
314.074
314.081
314.09
314.098
314.105
314.111
314.117
314.123
314.129
314.135
314.144
314.155
314.169
314.188
314.21
314.235
314.261
314.286
314.309
314.326
314.338
314.345
314.346
314.346
314.348
314.355
314.372
314.403
314.457
314.41
314.375
314.35
314.332
314.32
314.313
314.311
314.321
314.336
310.214
310.414
310.591
310.75
310.894
311.022
311.139
311.244
311.342
311.437
312.173
312.204
312.313
312.446
312.585
312.728
312.87
313.006
313.125
313.219
313.285
313.33
313.365
313.401
313.444
313.494
313.551
313.607
313.655
313.693
313.724
313.756
313.795
313.83
313.854
313.867
313.852
313.753
313.64
313.616
313.637
313.696
313.776
313.77
313.764
313.805
313.847
313.887
313.916
313.93
313.932
313.933
313.939
313.949
313.961
313.972
313.982
313.99
313.998
314.006
314.012
314.02
314.028
314.039
314.053
314.07
314.09
314.113
314.135
314.158
314.178
314.194
314.206
314.213
314.217
314.218
314.221
314.23
314.25
314.287
314.455
314.412
314.379
314.353
314.334
314.321
314.312
314.308
314.308
314.316
310.211
310.407
310.582
310.738
310.879
311.005
311.119
311.223
311.319
311.411
312.103
312.14
312.246
312.372
312.503
312.637
312.773
312.906
313.022
313.106
313.154
313.171
313.174
313.18
313.201
313.239
313.29
313.346
313.396
313.435
313.461
313.482
313.505
313.531
313.553
313.579
313.588
313.512
313.408
313.37
313.383
313.44
313.522
313.529
313.539
313.604
313.672
313.733
313.775
313.795
313.802
313.809
313.82
313.834
313.848
313.859
313.867
313.874
313.879
313.884
313.888
313.893
313.898
313.904
313.912
313.921
313.933
313.947
313.962
313.979
313.994
314.007
314.017
314.023
314.024
314.024
314.025
314.031
314.048
314.078
314.311
314.265
314.23
314.203
314.184
314.171
314.163
314.161
314.167
314.181
310.208
310.401
310.572
310.726
310.864
310.988
311.1
311.202
311.296
311.383
311.467
311.548
311.626
311.702
311.776
311.849
311.92
311.989
312.057
312.124
312.188
312.249
312.307
312.362
312.415
312.467
312.518
312.568
312.617
312.665
312.712
312.757
312.802
312.847
312.891
312.935
312.979
313.022
313.064
313.105
313.146
313.187
313.229
313.271
313.312
313.354
313.397
313.441
313.487
313.536
313.584
313.633
313.68
313.725
313.766
313.801
313.83
313.853
313.869
313.881
313.887
313.89
313.891
313.891
313.89
313.887
313.882
313.877
313.87
313.863
313.857
313.85
313.844
313.838
313.832
313.827
313.821
313.816
313.811
313.806
313.801
313.799
313.801
313.806
313.816
313.829
313.844
313.862
313.889
313.924
310.204
310.394
310.563
310.714
310.85
310.972
311.081
311.181
311.273
311.359
311.44
311.517
311.592
311.663
311.733
311.8
311.865
311.929
311.992
312.054
312.114
312.171
312.226
312.278
312.328
312.377
312.425
312.473
312.521
312.568
312.614
312.659
312.703
312.747
312.791
312.835
312.88
312.926
312.971
313.015
313.058
313.101
313.141
313.18
313.218
313.256
313.294
313.332
313.368
313.402
313.433
313.462
313.488
313.513
313.536
313.556
313.573
313.587
313.599
313.608
313.614
313.618
313.62
313.62
313.619
313.618
313.617
313.616
313.617
313.617
313.619
313.621
313.623
313.626
313.629
313.633
313.636
313.64
313.643
313.647
313.652
313.66
313.671
313.684
313.701
313.72
313.741
313.763
313.793
313.828
310.201
310.387
310.553
310.702
310.836
310.955
311.063
311.16
311.25
311.334
311.414
311.49
311.562
311.632
311.699
311.764
311.828
311.89
311.951
312.012
312.071
312.128
312.182
312.234
312.283
312.331
312.379
312.427
312.475
312.522
312.568
312.613
312.658
312.701
312.745
312.79
312.837
312.886
312.936
312.985
313.033
313.078
313.12
313.161
313.199
313.238
313.277
313.315
313.352
313.387
313.42
313.452
313.481
313.509
313.535
313.559
313.581
313.599
313.613
313.625
313.634
313.641
313.646
313.65
313.653
313.656
313.659
313.662
313.665
313.668
313.672
313.676
313.68
313.683
313.686
313.688
313.689
313.689
313.688
313.686
313.684
313.683
313.683
313.685
313.689
313.694
313.7
313.706
313.716
313.73
310.198
310.381
310.544
310.691
310.822
310.939
311.045
311.141
311.229
311.311
311.389
311.463
311.534
311.602
311.668
311.732
311.794
311.854
311.915
311.974
312.032
312.089
312.142
312.193
312.242
312.289
312.336
312.382
312.429
312.475
312.521
312.565
312.608
312.651
312.694
312.739
312.788
312.838
312.892
312.945
312.995
313.041
313.083
313.122
313.159
313.196
313.233
313.27
313.306
313.341
313.374
313.406
313.437
313.466
313.493
313.518
313.541
313.561
313.579
313.594
313.607
313.618
313.627
313.634
313.639
313.643
313.646
313.649
313.65
313.648
313.645
313.64
313.632
313.622
313.61
313.595
313.577
313.557
313.536
313.512
313.488
313.464
313.442
313.422
313.406
313.392
313.381
313.372
313.369
313.373
310.194
310.375
310.536
310.679
310.808
310.923
311.027
311.121
311.207
311.288
311.364
311.436
311.506
311.573
311.637
311.699
311.76
311.819
311.877
311.935
311.993
312.048
312.101
312.151
312.199
312.245
312.29
312.336
312.381
312.427
312.471
312.515
312.557
312.598
312.64
312.686
312.736
312.788
312.843
312.896
312.942
312.98
313.011
313.039
313.064
313.091
313.12
313.149
313.177
313.205
313.232
313.258
313.283
313.305
313.326
313.344
313.359
313.372
313.381
313.388
313.392
313.393
313.392
313.388
313.382
313.373
313.36
313.343
313.323
313.3
313.275
313.249
313.221
313.191
313.158
313.124
313.088
313.051
313.016
312.982
312.951
312.924
312.901
312.883
312.871
312.862
312.857
312.855
312.858
312.87
310.191
310.369
310.527
310.668
310.794
310.908
311.009
311.101
311.185
311.264
311.339
311.41
311.478
311.543
311.606
311.667
311.726
311.783
311.84
311.897
311.952
312.007
312.059
312.108
312.155
312.2
312.244
312.288
312.332
312.376
312.419
312.462
312.503
312.543
312.584
312.629
312.681
312.732
312.781
312.817
312.833
312.832
312.818
312.801
312.783
312.767
312.76
312.757
312.757
312.759
312.763
312.769
312.776
312.784
312.791
312.798
312.804
312.807
312.809
312.808
312.804
312.798
312.788
312.776
312.76
312.74
312.718
312.693
312.667
312.639
312.61
312.582
312.554
312.526
312.5
312.476
312.452
312.431
312.411
312.394
312.381
312.371
312.367
312.366
312.371
312.379
312.389
312.402
312.418
312.44
310.188
310.362
310.517
310.656
310.78
310.891
310.991
311.081
311.163
311.24
311.313
311.382
311.449
311.513
311.574
311.634
311.691
311.747
311.802
311.856
311.91
311.963
312.015
312.063
312.109
312.153
312.195
312.237
312.28
312.322
312.365
312.406
312.446
312.486
312.526
312.572
312.624
312.665
312.663
312.619
312.542
312.449
312.36
312.283
312.215
312.161
312.121
312.097
312.088
312.086
312.091
312.1
312.111
312.124
312.136
312.148
312.157
312.163
312.167
312.167
312.164
312.156
312.144
312.13
312.113
312.097
312.08
312.063
312.048
312.033
312.019
312.007
311.997
311.988
311.979
311.973
311.967
311.963
311.961
311.96
311.963
311.969
311.979
311.992
312.01
312.03
312.053
312.076
312.102
312.132
310.185
310.356
310.508
310.645
310.766
310.875
310.973
311.061
311.141
311.216
311.287
311.355
311.42
311.482
311.542
311.6
311.656
311.71
311.763
311.816
311.868
311.92
311.97
312.018
312.063
312.106
312.146
312.187
312.228
312.269
312.311
312.352
312.392
312.432
312.473
312.519
312.571
312.562
312.428
312.234
312.06
311.927
311.815
311.74
311.685
311.65
311.63
311.622
311.622
311.631
311.642
311.654
311.666
311.676
311.684
311.689
311.689
311.687
311.683
311.676
311.669
311.66
311.652
311.643
311.635
311.628
311.624
311.62
311.617
311.615
311.615
311.615
311.618
311.621
311.625
311.63
311.637
311.644
311.652
311.662
311.675
311.691
311.71
311.732
311.758
311.786
311.816
311.846
311.878
311.914
310.182
310.35
310.5
310.634
310.753
310.86
310.955
311.041
311.12
311.194
311.263
311.329
311.392
311.453
311.512
311.569
311.623
311.676
311.727
311.778
311.829
311.879
311.928
311.975
312.02
312.062
312.102
312.142
312.181
312.222
312.264
312.305
312.347
312.388
312.432
312.48
312.517
312.418
312.021
311.718
311.528
311.417
311.363
311.339
311.326
311.323
311.328
311.337
311.348
311.358
311.367
311.373
311.374
311.369
311.363
311.356
311.349
311.343
311.336
311.331
311.326
311.322
311.319
311.317
311.316
311.316
311.318
311.321
311.326
311.332
311.34
311.349
311.359
311.371
311.382
311.395
311.408
311.422
311.438
311.454
311.473
311.495
311.52
311.548
311.579
311.613
311.647
311.682
311.718
311.757
310.179
310.345
310.493
310.624
310.742
310.847
310.941
311.025
311.102
311.174
311.242
311.307
311.369
311.429
311.486
311.542
311.595
311.647
311.697
311.747
311.796
311.845
311.893
311.94
311.985
312.028
312.068
312.108
312.149
312.19
312.232
312.275
312.318
312.363
312.41
312.461
312.501
312.396
311.907
311.529
311.274
311.112
311.098
311.1
311.106
311.118
311.133
311.147
311.159
311.168
311.169
311.164
311.155
311.144
311.133
311.123
311.114
311.107
311.102
311.098
311.096
311.096
311.097
311.1
311.104
311.109
311.115
311.123
311.133
311.143
311.155
311.168
311.183
311.198
311.215
311.232
311.25
311.269
311.288
311.309
311.332
311.358
311.387
311.418
311.453
311.49
311.528
311.565
311.604
311.645
310.177
310.341
310.487
310.618
310.734
310.838
310.93
311.013
311.09
311.161
311.228
311.291
311.353
311.412
311.468
311.523
311.576
311.627
311.677
311.725
311.773
311.821
311.869
311.916
311.962
312.007
312.05
312.093
312.136
312.18
312.223
312.268
312.314
312.362
312.413
312.465
312.508
312.41
311.868
311.433
311.124
310.917
310.94
310.972
311.001
311.032
311.057
311.077
311.089
311.096
311.094
311.084
311.069
311.052
311.033
311.016
311.001
310.989
310.98
310.974
310.97
310.969
310.97
310.973
310.978
310.985
310.993
311.003
311.014
311.027
311.041
311.057
311.074
311.091
311.11
311.129
311.149
311.17
311.192
311.216
311.241
311.269
311.3
311.335
311.372
311.411
311.45
311.49
311.53
311.573
310.176
310.339
310.484
310.614
310.73
310.832
310.924
311.007
311.083
311.153
311.22
311.283
311.344
311.403
311.459
311.514
311.567
311.618
311.668
311.716
311.763
311.811
311.858
311.906
311.954
312.002
312.051
312.099
312.146
312.193
312.239
312.285
312.332
312.381
312.429
312.474
312.519
312.444
311.911
311.46
311.132
310.913
310.971
311.035
311.091
311.139
311.169
311.184
311.191
311.192
311.184
311.165
311.14
311.109
311.076
311.044
311.014
310.989
310.969
310.953
310.942
310.935
310.931
310.93
310.932
310.936
310.943
310.951
310.962
310.974
310.988
311.004
311.021
311.039
311.059
311.079
311.1
311.121
311.144
311.169
311.195
311.224
311.256
311.291
311.329
311.369
311.41
311.451
311.492
311.536
310.176
310.339
310.484
310.613
310.729
310.832
310.923
311.006
311.082
311.152
311.219
311.282
311.343
311.402
311.459
311.514
311.567
311.618
311.668
311.717
311.765
311.812
311.86
311.909
311.96
312.012
312.067
312.121
312.174
312.225
312.272
312.317
312.359
312.398
312.428
312.446
312.478
312.515
312.318
312.088
311.84
311.616
311.611
311.613
311.617
311.621
311.612
311.592
311.566
311.533
311.495
311.449
311.397
311.34
311.281
311.222
311.167
311.118
311.076
311.041
311.014
310.993
310.978
310.968
310.962
310.96
310.961
310.965
310.972
310.981
310.992
311.006
311.021
311.038
311.056
311.075
311.095
311.116
311.139
311.163
311.189
311.218
311.25
311.285
311.323
311.363
311.404
311.445
311.486
311.53
310.176
310.34
310.485
310.615
310.731
310.834
310.926
311.009
311.085
311.155
311.222
311.286
311.347
311.406
311.463
311.519
311.572
311.625
311.675
311.725
311.773
311.821
311.869
311.921
311.975
312.032
312.094
312.155
312.213
312.265
312.308
312.342
312.364
312.371
312.355
312.324
312.345
312.389
312.242
312.108
311.984
311.874
311.968
312.047
312.101
312.139
312.153
312.143
312.102
312.035
311.951
311.859
311.764
311.669
311.576
311.487
311.404
311.33
311.265
311.211
311.166
311.129
311.1
311.078
311.061
311.05
311.043
311.04
311.041
311.045
311.051
311.06
311.072
311.085
311.1
311.117
311.134
311.153
311.173
311.196
311.22
311.248
311.278
311.312
311.349
311.388
311.429
311.468
311.51
311.553
310.177
310.341
310.487
310.618
310.734
310.837
310.93
311.013
311.09
311.161
311.228
311.292
311.354
311.413
311.471
311.526
311.581
311.633
311.685
311.735
311.783
311.832
311.881
311.935
311.994
312.056
312.123
312.189
312.247
312.293
312.318
312.324
312.304
312.255
312.183
312.121
312.167
312.242
312.083
311.934
311.804
311.697
311.854
312.004
312.128
312.205
312.221
312.219
312.217
312.184
312.126
312.05
311.965
311.875
311.785
311.697
311.615
311.54
311.47
311.408
311.355
311.31
311.272
311.241
311.215
311.196
311.181
311.17
311.164
311.161
311.161
311.164
311.17
311.178
311.188
311.2
311.213
311.228
311.245
311.264
311.285
311.309
311.337
311.369
311.404
311.441
311.479
311.517
311.557
311.599
310.178
310.343
310.489
310.62
310.737
310.841
310.935
311.018
311.095
311.167
311.235
311.299
311.361
311.421
311.479
311.535
311.589
311.643
311.694
311.745
311.794
311.843
311.893
311.949
312.011
312.077
312.147
312.21
312.253
312.27
312.253
312.21
312.138
312.044
311.949
311.921
312.051
312.224
312.029
311.848
311.705
311.627
312.184
312.729
312.499
312.243
311.859
311.677
311.663
311.804
311.882
311.913
311.897
311.857
311.806
311.752
311.696
311.642
311.591
311.546
311.505
311.469
311.437
311.408
311.384
311.363
311.346
311.332
311.32
311.312
311.305
311.302
311.3
311.301
311.305
311.31
311.318
311.327
311.338
311.352
311.369
311.389
311.413
311.441
311.473
311.507
311.543
311.579
311.616
311.657
310.178
310.344
310.491
310.622
310.74
310.845
310.938
311.022
311.1
311.172
311.24
311.305
311.368
311.428
311.486
311.543
311.598
311.651
311.704
311.755
311.804
311.853
311.904
311.96
312.025
312.089
312.138
312.163
312.152
312.109
312.042
311.963
311.877
311.797
311.75
311.816
311.752
311.515
311.352
311.276
311.253
311.261
311.282
311.305
311.323
311.324
311.314
311.305
311.299
311.295
311.291
311.29
311.291
311.294
311.297
311.301
311.305
311.308
311.312
311.315
311.318
311.321
311.323
311.326
311.33
311.335
311.341
311.348
311.357
311.366
311.377
311.391
311.407
311.427
311.45
311.477
311.508
311.542
311.577
311.612
311.649
311.689
310.179
310.345
310.492
310.624
310.741
310.846
310.94
311.025
311.102
311.175
311.243
311.309
311.371
311.432
311.491
311.548
311.603
311.657
311.71
311.761
311.812
311.861
311.912
311.968
312.031
312.064
312.041
311.97
311.883
311.805
311.716
311.65
311.603
311.587
311.632
311.816
311.541
311.288
311.127
311.036
310.985
310.955
310.942
310.939
310.939
310.937
310.939
310.955
310.968
310.98
310.989
311.001
311.014
311.028
311.043
311.058
311.073
311.089
311.104
311.119
311.134
311.149
311.164
311.18
311.195
311.211
311.227
311.243
311.26
311.277
311.296
311.315
311.337
311.363
311.391
311.423
311.459
311.496
311.535
311.573
311.614
311.656
310.179
310.345
310.492
310.624
310.742
310.847
310.94
311.025
311.103
311.175
311.244
311.31
311.373
311.433
311.492
311.549
311.605
311.659
311.712
311.764
311.815
311.865
311.915
311.969
312.016
311.964
311.731
311.538
311.419
311.36
311.335
311.335
311.354
311.408
311.536
311.841
311.444
311.178
311.013
310.903
310.836
310.8
310.781
310.773
310.771
310.771
310.778
310.798
310.814
310.828
310.84
310.854
310.869
310.885
310.901
310.918
310.935
310.952
310.969
310.987
311.004
311.022
311.04
311.059
311.078
311.097
311.116
311.136
311.157
311.178
311.2
311.223
311.249
311.277
311.309
311.345
311.383
311.423
311.465
311.506
311.548
311.593
310.179
310.345
310.492
310.623
310.741
310.846
310.94
311.025
311.102
311.175
311.243
311.309
311.372
311.433
311.492
311.549
311.605
311.659
311.712
311.764
311.816
311.866
311.916
311.967
312.007
311.942
311.604
311.323
311.127
311.007
311.03
311.067
311.124
311.222
311.409
311.808
311.402
311.147
310.988
310.873
310.807
310.769
310.747
310.735
310.73
310.728
310.737
310.757
310.773
310.789
310.803
310.817
310.832
310.847
310.861
310.875
310.89
310.905
310.919
310.934
310.95
310.965
310.982
310.999
311.016
311.035
311.054
311.074
311.094
311.116
311.138
311.162
311.189
311.218
311.251
311.287
311.327
311.368
311.41
311.452
311.495
311.54
310.179
310.344
310.491
310.623
310.74
310.845
310.939
311.024
311.101
311.174
311.242
311.308
311.371
311.432
311.491
311.548
311.603
311.658
311.711
311.763
311.814
311.865
311.914
311.964
311.998
311.923
311.497
311.135
310.865
310.675
310.733
310.796
310.875
310.992
311.198
311.639
311.439
311.207
311.066
310.966
310.896
310.848
310.815
310.793
310.78
310.772
310.779
310.796
310.811
310.827
310.843
310.859
310.873
310.886
310.896
310.906
310.917
310.928
310.94
310.953
310.965
310.978
310.992
311.006
311.021
311.037
311.053
311.071
311.089
311.109
311.129
311.152
311.177
311.205
311.236
311.271
311.31
311.35
311.392
311.433
311.475
311.519
310.178
310.344
310.491
310.623
310.74
310.845
310.938
311.023
311.101
311.173
311.241
311.307
311.37
311.431
311.489
311.547
311.602
311.656
311.71
311.762
311.813
311.863
311.913
311.961
311.992
311.916
311.459
311.066
310.766
310.55
310.631
310.714
310.804
310.917
311.103
311.485
311.559
311.4
311.294
311.211
311.119
311.046
310.99
310.949
310.919