/*--------------------------------*- C++ -*----------------------------------*\
| =========                 |                                                 |
| \\      /  F ield         | OpenFOAM: The Open Source CFD Toolbox           |
|  \\    /   O peration     | Version:  v2012                                 |
|   \\  /    A nd           | Website:  www.openfoam.com                      |
|    \\/     M anipulation  |                                                 |
\*---------------------------------------------------------------------------*/
FoamFile
{
    version     2.0;
    format      ascii;
    class       volScalarField;
    location    "100/soil1";
    object      T;
}
// * * * * * * * * * * * * * * * * * * * * * * * * * * * * * * * * * * * * * //

dimensions      [0 0 0 1 0 0 0];


internalField   nonuniform List<scalar> 
57600
(
302.589
302.591
302.582
302.567
302.557
302.558
302.567
302.579
302.593
302.606
302.618
302.629
302.637
302.643
302.648
302.652
302.655
302.658
302.661
302.663
302.666
302.669
302.672
302.675
302.678
302.681
302.683
302.686
302.688
302.689
302.691
302.692
302.693
302.694
302.694
302.694
302.695
302.695
302.695
302.695
302.695
302.695
302.696
302.696
302.696
302.696
302.697
302.697
302.698
302.698
302.699
302.7
302.701
302.702
302.703
302.705
302.707
302.709
302.712
302.715
302.718
302.721
302.725
302.73
302.734
302.739
302.744
302.75
302.755
302.76
302.765
302.771
302.776
302.781
302.786
302.79
302.794
302.798
302.801
302.803
302.806
302.81
302.817
302.83
302.854
302.892
302.946
303.007
303.066
303.113
302.564
302.566
302.555
302.538
302.528
302.528
302.536
302.548
302.561
302.573
302.585
302.595
302.602
302.608
302.613
302.616
302.619
302.621
302.624
302.626
302.629
302.631
302.634
302.637
302.639
302.642
302.644
302.646
302.647
302.649
302.65
302.651
302.652
302.653
302.653
302.653
302.653
302.654
302.654
302.654
302.654
302.654
302.654
302.654
302.654
302.654
302.654
302.655
302.655
302.656
302.656
302.657
302.658
302.659
302.661
302.662
302.664
302.667
302.669
302.672
302.675
302.679
302.683
302.687
302.692
302.697
302.702
302.707
302.712
302.717
302.723
302.728
302.733
302.738
302.743
302.748
302.752
302.756
302.758
302.761
302.764
302.768
302.775
302.788
302.812
302.85
302.904
302.966
303.025
303.073
302.532
302.533
302.521
302.502
302.491
302.49
302.497
302.508
302.52
302.532
302.543
302.552
302.559
302.565
302.569
302.572
302.574
302.577
302.579
302.581
302.583
302.585
302.588
302.59
302.593
302.595
302.597
302.598
302.6
302.601
302.602
302.603
302.603
302.604
302.604
302.605
302.605
302.605
302.605
302.605
302.605
302.605
302.604
302.604
302.604
302.604
302.605
302.605
302.605
302.606
302.606
302.607
302.608
302.61
302.611
302.613
302.614
302.617
302.619
302.622
302.625
302.629
302.633
302.637
302.642
302.646
302.652
302.657
302.662
302.667
302.673
302.678
302.683
302.688
302.693
302.698
302.702
302.706
302.709
302.711
302.714
302.719
302.726
302.739
302.763
302.802
302.856
302.918
302.978
303.026
302.497
302.496
302.483
302.463
302.45
302.448
302.454
302.464
302.476
302.487
302.497
302.506
302.513
302.518
302.522
302.524
302.526
302.528
302.53
302.532
302.534
302.536
302.538
302.541
302.543
302.545
302.547
302.548
302.549
302.55
302.551
302.552
302.552
302.552
302.553
302.553
302.553
302.554
302.554
302.554
302.553
302.553
302.552
302.552
302.552
302.552
302.552
302.552
302.552
302.553
302.553
302.554
302.555
302.557
302.558
302.559
302.561
302.563
302.566
302.569
302.572
302.575
302.579
302.584
302.588
302.593
302.598
302.603
302.609
302.614
302.619
302.624
302.63
302.635
302.64
302.645
302.649
302.653
302.656
302.659
302.662
302.666
302.674
302.687
302.712
302.751
302.805
302.868
302.928
302.976
302.46
302.458
302.444
302.423
302.408
302.405
302.41
302.419
302.43
302.44
302.45
302.458
302.464
302.469
302.472
302.475
302.476
302.478
302.479
302.481
302.483
302.485
302.487
302.489
302.491
302.493
302.494
302.496
302.497
302.498
302.498
302.499
302.499
302.499
302.499
302.5
302.5
302.5
302.501
302.5
302.5
302.499
302.498
302.498
302.497
302.497
302.497
302.497
302.497
302.498
302.499
302.5
302.501
302.502
302.503
302.504
302.506
302.508
302.511
302.513
302.516
302.52
302.524
302.528
302.533
302.538
302.543
302.548
302.553
302.558
302.564
302.569
302.574
302.579
302.585
302.589
302.594
302.598
302.601
302.604
302.607
302.612
302.62
302.634
302.658
302.698
302.753
302.816
302.876
302.924
302.423
302.42
302.404
302.382
302.366
302.362
302.366
302.374
302.384
302.394
302.402
302.41
302.416
302.42
302.423
302.425
302.426
302.427
302.429
302.43
302.431
302.433
302.435
302.437
302.438
302.44
302.442
302.443
302.445
302.446
302.446
302.446
302.446
302.446
302.446
302.446
302.446
302.447
302.447
302.447
302.446
302.445
302.444
302.443
302.443
302.442
302.442
302.443
302.443
302.443
302.444
302.445
302.445
302.446
302.448
302.449
302.451
302.453
302.455
302.458
302.461
302.465
302.468
302.473
302.477
302.482
302.487
302.492
302.498
302.503
302.508
302.514
302.519
302.524
302.529
302.534
302.539
302.543
302.546
302.55
302.553
302.558
302.566
302.581
302.606
302.645
302.701
302.764
302.824
302.872
302.386
302.382
302.365
302.342
302.325
302.319
302.322
302.33
302.339
302.348
302.356
302.363
302.368
302.372
302.374
302.376
302.377
302.378
302.379
302.38
302.381
302.383
302.384
302.386
302.387
302.389
302.391
302.392
302.394
302.396
302.396
302.396
302.395
302.394
302.394
302.394
302.394
302.394
302.395
302.394
302.393
302.392
302.391
302.39
302.39
302.39
302.39
302.39
302.39
302.391
302.391
302.391
302.392
302.393
302.394
302.395
302.397
302.399
302.401
302.404
302.407
302.411
302.414
302.419
302.423
302.428
302.433
302.439
302.444
302.449
302.455
302.46
302.465
302.471
302.476
302.481
302.486
302.49
302.493
302.497
302.501
302.506
302.515
302.529
302.555
302.595
302.65
302.714
302.774
302.822
302.351
302.346
302.328
302.303
302.285
302.279
302.281
302.288
302.296
302.303
302.31
302.315
302.319
302.323
302.325
302.327
302.328
302.329
302.33
302.331
302.332
302.334
302.335
302.336
302.338
302.339
302.341
302.343
302.345
302.347
302.348
302.348
302.347
302.345
302.343
302.342
302.342
302.343
302.343
302.343
302.342
302.34
302.339
302.338
302.338
302.338
302.339
302.34
302.34
302.339
302.339
302.338
302.339
302.34
302.341
302.342
302.344
302.346
302.348
302.351
302.354
302.357
302.361
302.365
302.37
302.375
302.38
302.385
302.39
302.396
302.401
302.407
302.412
302.417
302.423
302.428
302.432
302.437
302.441
302.445
302.449
302.455
302.464
302.479
302.505
302.545
302.601
302.665
302.725
302.773
302.317
302.311
302.292
302.266
302.247
302.24
302.241
302.247
302.254
302.258
302.258
302.26
302.262
302.265
302.268
302.27
302.272
302.274
302.276
302.277
302.279
302.281
302.283
302.284
302.285
302.286
302.288
302.29
302.293
302.296
302.298
302.298
302.296
302.293
302.29
302.288
302.287
302.287
302.287
302.287
302.285
302.284
302.282
302.282
302.282
302.284
302.285
302.285
302.284
302.283
302.281
302.28
302.28
302.281
302.282
302.284
302.285
302.287
302.289
302.292
302.295
302.298
302.302
302.306
302.31
302.315
302.32
302.325
302.33
302.336
302.341
302.346
302.351
302.357
302.362
302.367
302.372
302.376
302.38
302.385
302.392
302.4
302.411
302.427
302.453
302.495
302.551
302.615
302.676
302.723
302.284
302.278
302.257
302.23
302.211
302.203
302.203
302.208
302.211
302.206
302.185
302.173
302.172
302.175
302.18
302.185
302.19
302.195
302.199
302.204
302.207
302.211
302.213
302.216
302.217
302.218
302.219
302.221
302.224
302.228
302.23
302.23
302.228
302.223
302.218
302.214
302.212
302.211
302.211
302.21
302.208
302.206
302.205
302.205
302.206
302.208
302.21
302.21
302.208
302.204
302.202
302.2
302.2
302.2
302.201
302.203
302.204
302.205
302.207
302.209
302.212
302.215
302.218
302.222
302.226
302.23
302.235
302.24
302.245
302.249
302.254
302.259
302.264
302.269
302.274
302.278
302.283
302.287
302.291
302.299
302.313
302.328
302.344
302.364
302.393
302.436
302.493
302.558
302.62
302.667
302.252
302.245
302.223
302.196
302.175
302.166
302.166
302.169
302.168
302.143
302.07
302.033
302.026
302.033
302.044
302.056
302.068
302.079
302.088
302.096
302.103
302.109
302.114
302.117
302.119
302.119
302.12
302.121
302.123
302.125
302.128
302.128
302.125
302.118
302.111
302.105
302.101
302.098
302.096
302.095
302.092
302.09
302.089
302.09
302.092
302.095
302.096
302.095
302.091
302.086
302.082
302.08
302.08
302.08
302.081
302.082
302.083
302.084
302.085
302.087
302.089
302.092
302.095
302.098
302.102
302.106
302.11
302.114
302.118
302.123
302.127
302.131
302.136
302.14
302.144
302.149
302.152
302.156
302.16
302.172
302.203
302.234
302.261
302.289
302.322
302.368
302.428
302.495
302.557
302.605
302.221
302.213
302.191
302.162
302.141
302.131
302.13
302.132
302.128
302.095
302.004
301.957
301.948
301.956
301.97
301.985
301.998
302.011
302.023
302.033
302.041
302.048
302.053
302.056
302.058
302.059
302.058
302.058
302.06
302.062
302.065
302.066
302.063
302.057
302.048
302.04
302.034
302.03
302.027
302.025
302.022
302.021
302.02
302.022
302.025
302.029
302.029
302.027
302.021
302.015
302.011
302.008
302.008
302.008
302.009
302.009
302.01
302.011
302.013
302.014
302.016
302.019
302.021
302.024
302.028
302.032
302.035
302.039
302.044
302.048
302.052
302.056
302.06
302.064
302.068
302.072
302.075
302.079
302.084
302.097
302.133
302.17
302.202
302.232
302.268
302.315
302.375
302.442
302.505
302.553
302.191
302.181
302.158
302.129
302.107
302.096
302.095
302.096
302.091
302.056
301.963
301.915
301.905
301.913
301.927
301.942
301.956
301.969
301.98
301.99
301.999
302.006
302.011
302.014
302.016
302.017
302.016
302.015
302.016
302.018
302.021
302.023
302.022
302.016
302.007
301.998
301.99
301.984
301.98
301.978
301.975
301.974
301.975
301.978
301.983
301.986
301.986
301.982
301.975
301.968
301.963
301.961
301.96
301.961
301.961
301.962
301.963
301.964
301.965
301.966
301.968
301.971
301.974
301.977
301.98
301.984
301.988
301.992
301.996
302
302.004
302.008
302.012
302.016
302.02
302.024
302.027
302.03
302.035
302.049
302.086
302.123
302.156
302.187
302.223
302.27
302.33
302.397
302.46
302.508
302.16
302.15
302.126
302.096
302.073
302.062
302.06
302.061
302.055
302.021
301.93
301.882
301.873
301.88
301.893
301.907
301.921
301.934
301.945
301.954
301.962
301.969
301.974
301.977
301.979
301.98
301.979
301.978
301.978
301.98
301.983
301.986
301.986
301.981
301.972
301.962
301.953
301.945
301.941
301.938
301.936
301.935
301.938
301.942
301.947
301.95
301.949
301.943
301.935
301.928
301.923
301.921
301.92
301.921
301.921
301.922
301.922
301.924
301.925
301.927
301.929
301.931
301.934
301.937
301.94
301.944
301.948
301.952
301.956
301.96
301.964
301.968
301.972
301.976
301.98
301.984
301.987
301.99
301.995
302.009
302.045
302.083
302.115
302.145
302.181
302.228
302.289
302.356
302.418
302.465
302.13
302.119
302.094
302.063
302.04
302.028
302.025
302.025
302.02
301.987
301.898
301.852
301.842
301.849
301.862
301.875
301.888
301.9
301.911
301.92
301.927
301.933
301.938
301.941
301.943
301.944
301.944
301.943
301.942
301.943
301.945
301.948
301.949
301.946
301.939
301.929
301.918
301.909
301.903
301.899
301.898
301.899
301.903
301.908
301.913
301.915
301.912
301.905
301.897
301.89
301.885
301.883
301.882
301.883
301.883
301.884
301.884
301.886
301.887
301.889
301.891
301.893
301.896
301.899
301.902
301.906
301.91
301.914
301.918
301.922
301.926
301.93
301.934
301.939
301.942
301.946
301.949
301.953
301.957
301.971
302.007
302.044
302.075
302.105
302.141
302.188
302.248
302.315
302.377
302.424
302.1
302.089
302.062
302.03
302.006
301.994
301.99
301.991
301.985
301.953
301.867
301.822
301.812
301.819
301.831
301.844
301.856
301.868
301.878
301.886
301.893
301.898
301.902
301.905
301.907
301.909
301.909
301.909
301.908
301.908
301.909
301.911
301.912
301.91
301.904
301.896
301.885
301.875
301.866
301.862
301.86
301.863
301.868
301.874
301.878
301.879
301.875
301.868
301.86
301.853
301.849
301.847
301.846
301.845
301.846
301.846
301.847
301.848
301.85
301.851
301.854
301.856
301.859
301.862
301.865
301.869
301.873
301.877
301.881
301.885
301.889
301.893
301.897
301.902
301.905
301.909
301.913
301.916
301.921
301.934
301.97
302.005
302.036
302.066
302.101
302.148
302.208
302.275
302.337
302.384
302.07
302.058
302.031
301.998
301.973
301.96
301.956
301.956
301.95
301.919
301.836
301.792
301.783
301.789
301.8
301.813
301.825
301.836
301.846
301.853
301.859
301.863
301.867
301.869
301.871
301.873
301.875
301.876
301.877
301.876
301.876
301.877
301.877
301.875
301.871
301.863
301.853
301.841
301.831
301.825
301.824
301.828
301.835
301.84
301.843
301.843
301.838
301.831
301.824
301.818
301.814
301.812
301.81
301.809
301.809
301.81
301.811
301.812
301.813
301.815
301.817
301.819
301.822
301.825
301.829
301.832
301.836
301.84
301.845
301.849
301.853
301.857
301.861
301.865
301.869
301.873
301.877
301.88
301.885
301.899
301.933
301.968
301.998
302.028
302.063
302.11
302.17
302.236
302.298
302.345
302.041
302.028
302
301.966
301.94
301.926
301.922
301.921
301.916
301.886
301.806
301.764
301.755
301.76
301.771
301.783
301.795
301.806
301.815
301.822
301.827
301.83
301.832
301.833
301.835
301.838
301.841
301.845
301.847
301.848
301.847
301.846
301.845
301.842
301.838
301.832
301.822
301.81
301.798
301.791
301.79
301.795
301.803
301.808
301.81
301.808
301.804
301.798
301.792
301.787
301.782
301.779
301.776
301.774
301.774
301.774
301.775
301.777
301.778
301.78
301.782
301.784
301.787
301.79
301.794
301.797
301.801
301.805
301.81
301.814
301.818
301.822
301.826
301.831
301.835
301.839
301.843
301.846
301.851
301.865
301.898
301.932
301.962
301.991
302.026
302.073
302.133
302.199
302.261
302.308
302.012
301.998
301.969
301.934
301.908
301.893
301.888
301.887
301.882
301.855
301.78
301.741
301.733
301.737
301.747
301.757
301.769
301.779
301.788
301.795
301.798
301.799
301.799
301.799
301.799
301.803
301.808
301.814
301.819
301.822
301.823
301.822
301.82
301.816
301.812
301.805
301.796
301.783
301.77
301.763
301.762
301.769
301.777
301.781
301.782
301.78
301.777
301.772
301.767
301.761
301.756
301.751
301.747
301.745
301.744
301.744
301.745
301.747
301.748
301.75
301.752
301.754
301.757
301.76
301.764
301.768
301.772
301.776
301.78
301.785
301.789
301.793
301.798
301.802
301.807
301.811
301.815
301.819
301.824
301.837
301.869
301.902
301.93
301.958
301.993
302.039
302.099
302.166
302.227
302.274
301.983
301.968
301.938
301.903
301.876
301.861
301.855
301.854
301.85
301.83
301.771
301.741
301.734
301.737
301.744
301.752
301.761
301.77
301.777
301.782
301.784
301.782
301.779
301.776
301.775
301.778
301.785
301.794
301.803
301.81
301.815
301.816
301.814
301.81
301.805
301.798
301.788
301.776
301.763
301.755
301.756
301.762
301.77
301.773
301.773
301.771
301.768
301.764
301.759
301.753
301.747
301.74
301.735
301.732
301.731
301.732
301.733
301.734
301.736
301.738
301.74
301.743
301.746
301.749
301.753
301.757
301.762
301.766
301.771
301.776
301.78
301.785
301.79
301.795
301.8
301.805
301.809
301.814
301.819
301.83
301.857
301.884
301.909
301.935
301.968
302.014
302.073
302.139
302.201
302.247
301.955
301.94
301.909
301.873
301.845
301.829
301.823
301.822
301.821
301.815
301.797
301.786
301.783
301.783
301.784
301.786
301.79
301.795
301.801
301.804
301.803
301.799
301.793
301.787
301.785
301.788
301.796
301.809
301.822
301.835
301.845
301.851
301.852
301.85
301.844
301.836
301.826
301.813
301.801
301.794
301.794
301.798
301.802
301.801
301.797
301.794
301.791
301.787
301.782
301.775
301.766
301.758
301.753
301.75
301.75
301.751
301.754
301.756
301.758
301.761
301.764
301.767
301.771
301.775
301.779
301.784
301.789
301.795
301.8
301.805
301.811
301.817
301.822
301.828
301.834
301.84
301.846
301.851
301.856
301.864
301.876
301.891
301.906
301.926
301.955
301.998
302.055
302.12
302.181
302.226
301.928
301.912
301.88
301.843
301.814
301.798
301.791
301.79
301.79
301.79
301.787
301.784
301.783
301.781
301.779
301.778
301.78
301.784
301.789
301.793
301.792
301.788
301.78
301.772
301.767
301.769
301.777
301.79
301.806
301.822
301.836
301.847
301.854
301.855
301.85
301.842
301.833
301.822
301.814
301.808
301.807
301.807
301.803
301.798
301.79
301.786
301.783
301.779
301.773
301.766
301.756
301.748
301.742
301.74
301.741
301.743
301.746
301.748
301.751
301.754
301.757
301.761
301.765
301.769
301.774
301.779
301.784
301.789
301.795
301.8
301.806
301.812
301.818
301.824
301.83
301.836
301.842
301.848
301.853
301.859
301.866
301.875
301.886
301.903
301.93
301.972
302.029
302.093
302.153
302.198
301.9
301.883
301.85
301.813
301.783
301.766
301.759
301.757
301.757
301.758
301.758
301.757
301.756
301.753
301.75
301.748
301.748
301.752
301.758
301.762
301.764
301.76
301.751
301.742
301.735
301.735
301.741
301.754
301.769
301.786
301.804
301.819
301.831
301.836
301.835
301.831
301.826
301.82
301.818
301.816
301.812
301.805
301.792
301.778
301.765
301.757
301.753
301.748
301.742
301.734
301.725
301.716
301.711
301.709
301.71
301.712
301.715
301.718
301.721
301.724
301.727
301.731
301.735
301.739
301.743
301.748
301.753
301.758
301.763
301.769
301.774
301.78
301.786
301.792
301.799
301.805
301.811
301.816
301.821
301.826
301.832
301.839
301.849
301.865
301.892
301.933
301.989
302.053
302.113
302.158
301.869
301.851
301.818
301.779
301.749
301.731
301.723
301.721
301.721
301.722
301.722
301.721
301.719
301.716
301.712
301.709
301.708
301.711
301.717
301.723
301.726
301.723
301.716
301.706
301.698
301.695
301.7
301.71
301.724
301.741
301.76
301.779
301.795
301.805
301.81
301.814
301.818
301.82
301.827
301.83
301.823
301.806
301.78
301.756
301.733
301.72
301.712
301.707
301.7
301.692
301.682
301.674
301.669
301.667
301.668
301.67
301.673
301.676
301.679
301.681
301.684
301.687
301.69
301.694
301.698
301.702
301.706
301.71
301.715
301.72
301.726
301.731
301.737
301.743
301.749
301.755
301.761
301.767
301.772
301.777
301.782
301.789
301.799
301.815
301.841
301.882
301.939
302.002
302.062
302.107
301.834
301.815
301.78
301.741
301.709
301.691
301.683
301.68
301.679
301.68
301.68
301.679
301.677
301.673
301.669
301.664
301.662
301.664
301.669
301.676
301.68
301.68
301.674
301.664
301.656
301.652
301.655
301.664
301.676
301.692
301.711
301.731
301.749
301.762
301.774
301.789
301.807
301.824
301.846
301.855
301.843
301.81
301.767
301.729
301.694
301.673
301.662
301.656
301.649
301.64
301.631
301.622
301.616
301.613
301.614
301.615
301.618
301.62
301.622
301.624
301.626
301.628
301.631
301.633
301.636
301.639
301.643
301.647
301.651
301.656
301.662
301.668
301.674
301.68
301.687
301.693
301.699
301.706
301.711
301.717
301.723
301.73
301.74
301.757
301.783
301.824
301.88
301.944
302.003
302.048
301.793
301.773
301.737
301.696
301.664
301.645
301.636
301.632
301.631
301.631
301.631
301.63
301.627
301.624
301.619
301.615
301.612
301.612
301.616
301.622
301.627
301.628
301.624
301.616
301.608
301.604
301.606
301.614
301.626
301.641
301.659
301.678
301.696
301.71
301.727
301.755
301.792
301.829
301.875
301.895
301.873
301.816
301.746
301.689
301.641
301.611
301.598
301.59
301.583
301.574
301.564
301.554
301.547
301.543
301.542
301.543
301.544
301.546
301.548
301.55
301.551
301.553
301.555
301.558
301.56
301.564
301.568
301.572
301.578
301.584
301.59
301.597
301.604
301.611
301.618
301.626
301.633
301.639
301.646
301.652
301.659
301.666
301.677
301.694
301.72
301.762
301.817
301.881
301.94
301.986
301.748
301.727
301.689
301.647
301.614
301.594
301.584
301.579
301.578
301.577
301.576
301.575
301.572
301.569
301.565
301.561
301.558
301.557
301.559
301.564
301.568
301.57
301.568
301.562
301.555
301.551
301.553
301.561
301.573
301.589
301.606
301.623
301.638
301.651
301.672
301.711
301.768
301.829
301.9
301.927
301.889
301.801
301.699
301.623
301.563
301.528
301.513
301.506
301.5
301.491
301.482
301.472
301.465
301.46
301.459
301.46
301.462
301.464
301.467
301.469
301.471
301.474
301.476
301.48
301.483
301.488
301.493
301.499
301.505
301.512
301.519
301.526
301.534
301.542
301.55
301.558
301.565
301.573
301.58
301.586
301.593
301.601
301.612
301.629
301.656
301.697
301.753
301.816
301.875
301.921
301.701
301.678
301.639
301.596
301.561
301.54
301.529
301.524
301.522
301.52
301.519
301.517
301.514
301.51
301.507
301.504
301.502
301.501
301.503
301.506
301.509
301.511
301.509
301.505
301.5
301.497
301.498
301.506
301.519
301.536
301.553
301.568
301.58
301.591
301.612
301.659
301.731
301.808
301.895
301.916
301.861
301.75
301.622
301.537
301.474
301.441
301.428
301.423
301.418
301.411
301.402
301.394
301.387
301.383
301.381
301.382
301.384
301.388
301.391
301.394
301.397
301.4
301.403
301.408
301.412
301.418
301.425
301.431
301.438
301.445
301.452
301.46
301.468
301.476
301.484
301.493
301.501
301.508
301.515
301.522
301.529
301.538
301.549
301.566
301.593
301.633
301.689
301.752
301.811
301.857
301.656
301.632
301.592
301.547
301.511
301.488
301.476
301.471
301.467
301.465
301.463
301.46
301.457
301.453
301.451
301.45
301.449
301.45
301.451
301.453
301.455
301.455
301.454
301.45
301.447
301.445
301.447
301.454
301.468
301.486
301.503
301.517
301.526
301.536
301.557
301.604
301.675
301.724
301.726
301.711
301.655
301.573
301.509
301.452
301.401
301.373
301.362
301.357
301.352
301.345
301.337
301.329
301.323
301.319
301.317
301.317
301.319
301.322
301.326
301.33
301.333
301.337
301.341
301.346
301.352
301.359
301.366
301.373
301.38
301.387
301.393
301.4
301.408
301.417
301.425
301.434
301.442
301.45
301.457
301.464
301.471
301.479
301.491
301.507
301.534
301.575
301.63
301.693
301.752
301.797
301.617
301.591
301.55
301.504
301.467
301.444
301.431
301.424
301.42
301.417
301.414
301.411
301.406
301.403
301.401
301.401
301.403
301.406
301.409
301.41
301.411
301.41
301.408
301.404
301.402
301.402
301.406
301.413
301.426
301.444
301.46
301.473
301.482
301.493
301.514
301.556
301.609
301.592
301.428
301.36
301.319
301.304
301.383
301.386
301.352
301.329
301.316
301.309
301.302
301.295
301.287
301.281
301.275
301.27
301.267
301.267
301.268
301.271
301.275
301.279
301.283
301.287
301.291
301.297
301.304
301.312
301.32
301.328
301.334
301.339
301.345
301.352
301.36
301.368
301.376
301.385
301.393
301.401
301.408
301.415
301.422
301.43
301.442
301.458
301.485
301.525
301.58
301.643
301.702
301.747
301.587
301.56
301.518
301.471
301.433
301.409
301.396
301.389
301.384
301.381
301.377
301.373
301.368
301.364
301.362
301.362
301.366
301.372
301.376
301.379
301.38
301.378
301.376
301.373
301.373
301.376
301.383
301.391
301.404
301.419
301.432
301.443
301.454
301.467
301.489
301.523
301.549
301.459
301.132
301.012
300.988
301.047
301.275
301.34
301.326
301.306
301.289
301.276
301.267
301.259
301.253
301.248
301.243
301.238
301.234
301.231
301.232
301.235
301.239
301.243
301.247
301.251
301.256
301.263
301.271
301.281
301.289
301.295
301.3
301.304
301.309
301.316
301.323
301.332
301.34
301.349
301.357
301.364
301.371
301.378
301.385
301.394
301.405
301.422
301.448
301.488
301.543
301.606
301.665
301.71
301.567
301.54
301.497
301.449
301.411
301.387
301.373
301.366
301.361
301.357
301.354
301.349
301.344
301.339
301.336
301.336
301.34
301.347
301.354
301.359
301.361
301.361
301.36
301.361
301.364
301.372
301.385
301.396
301.408
301.417
301.423
301.431
301.441
301.459
301.484
301.509
301.51
301.361
300.918
300.753
300.742
300.864
301.21
301.327
301.327
301.305
301.279
301.258
301.245
301.237
301.233
301.229
301.225
301.22
301.214
301.21
301.209
301.212
301.218
301.223
301.227
301.231
301.236
301.244
301.253
301.263
301.271
301.276
301.28
301.283
301.287
301.293
301.3
301.309
301.317
301.326
301.334
301.341
301.348
301.355
301.362
301.371
301.382
301.398
301.425
301.465
301.52
301.583
301.641
301.687
301.557
301.53
301.487
301.439
301.4
301.376
301.362
301.354
301.35
301.346
301.342
301.338
301.332
301.327
301.323
301.322
301.325
301.332
301.341
301.348
301.352
301.356
301.36
301.366
301.377
301.392
301.412
301.427
301.437
301.439
301.435
301.434
301.438
301.46
301.49
301.513
301.503
301.324
300.817
300.617
300.61
300.779
301.219
301.368
301.366
301.33
301.288
301.255
301.235
301.225
301.221
301.219
301.216
301.21
301.203
301.197
301.195
301.198
301.208
301.215
301.219
301.223
301.229
301.237
301.248
301.257
301.265
301.269
301.271
301.273
301.276
301.282
301.29
301.298
301.307
301.315
301.323
301.331
301.338
301.345
301.352
301.36
301.371
301.388
301.414
301.454
301.509
301.572
301.631
301.676
301.555
301.528
301.485
301.437
301.399
301.374
301.36
301.352
301.347
301.344
301.34
301.336
301.33
301.325
301.319
301.317
301.318
301.324
301.333
301.342
301.35
301.358
301.369
301.386
301.408
301.433
301.462
301.483
301.49
301.481
301.462
301.45
301.448
301.473
301.509
301.538
301.537
301.364
300.858
300.652
300.643
300.826
301.301
301.452
301.432
301.377
301.315
301.268
301.242
301.23
301.226
301.225
301.222
301.216
301.209
301.201
301.196
301.198
301.209
301.215
301.219
301.224
301.23
301.24
301.251
301.26
301.266
301.269
301.27
301.272
301.275
301.282
301.289
301.298
301.306
301.315
301.323
301.33
301.337
301.344
301.351
301.359
301.37
301.387
301.414
301.454
301.509
301.572
301.631
301.676
301.56
301.533
301.489
301.441
301.403
301.378
301.364
301.357
301.352
301.348
301.344
301.34
301.335
301.329
301.323
301.319
301.318
301.321
301.329
301.338
301.349
301.362
301.382
301.413
301.45
301.489
301.533
301.56
301.562
301.537
301.499
301.471
301.458
301.482
301.521
301.549
301.546
301.385
300.904
300.706
300.7
300.886
301.361
301.508
301.478
301.41
301.334
301.278
301.248
301.236
301.233
301.233
301.232
301.227
301.22
301.212
301.205
301.206
301.215
301.221
301.225
301.23
301.238
301.248
301.259
301.268
301.273
301.275
301.275
301.277
301.281
301.288
301.296
301.304
301.313
301.321
301.329
301.336
301.343
301.35
301.357
301.366
301.377
301.393
301.42
301.461
301.516
301.579
301.638
301.683
301.567
301.54
301.497
301.449
301.411
301.386
301.372
301.364
301.359
301.356
301.352
301.348
301.342
301.336
301.33
301.325
301.322
301.323
301.328
301.337
301.348
301.365
301.394
301.439
301.496
301.555
301.621
301.66
301.652
301.604
301.537
301.487
301.46
301.475
301.502
301.48
301.358
301.18
300.796
300.64
300.639
300.799
301.211
301.383
301.452
301.418
301.342
301.282
301.251
301.239
301.237
301.238
301.238
301.236
301.23
301.223
301.217
301.216
301.224
301.23
301.234
301.24
301.249
301.26
301.27
301.278
301.282
301.283
301.284
301.286
301.29
301.297
301.305
301.314
301.322
301.33
301.338
301.346
301.353
301.36
301.367
301.375
301.386
301.403
301.43
301.471
301.526
301.589
301.649
301.694
301.574
301.547
301.505
301.457
301.419
301.395
301.381
301.373
301.368
301.364
301.361
301.356
301.351
301.345
301.339
301.334
301.33
301.329
301.331
301.337
301.348
301.366
301.401
301.458
301.536
301.618
301.713
301.763
301.742
301.663
301.562
301.492
301.451
301.456
301.445
301.259
300.703
300.422
300.234
300.164
300.163
300.235
300.428
300.695
301.211
301.35
301.318
301.27
301.245
301.237
301.237
301.239
301.241
301.241
301.238
301.233
301.228
301.227
301.234
301.239
301.244
301.251
301.26
301.271
301.281
301.287
301.291
301.292
301.293
301.296
301.301
301.308
301.316
301.324
301.332
301.34
301.348
301.356
301.363
301.37
301.377
301.385
301.397
301.413
301.44
301.481
301.537
301.601
301.66
301.706
301.58
301.553
301.511
301.464
301.426
301.402
301.388
301.38
301.375
301.372
301.368
301.364
301.359
301.354
301.348
301.343
301.339
301.337
301.337
301.341
301.348
301.365
301.401
301.465
301.557
301.659
301.78
301.832
301.797
301.693
301.561
301.481
301.438
301.444
301.421
301.161
300.424
300.093
299.978
299.944
299.944
299.975
300.084
300.393
301.085
301.303
301.298
301.26
301.239
301.234
301.235
301.239
301.242
301.244
301.244
301.241
301.237
301.237
301.244
301.249
301.254
301.262
301.271
301.281
301.29
301.296
301.299
301.3
301.302
301.306
301.311
301.318
301.325
301.333
301.341
301.349
301.357
301.365
301.372
301.379
301.386
301.394
301.405
301.422
301.449
301.49
301.547
301.61
301.67
301.716
301.583
301.557
301.515
301.468
301.43
301.406
301.392
301.385
301.38
301.377
301.373
301.369
301.364
301.359
301.354
301.35
301.346
301.344
301.344
301.345
301.351
301.364
301.396
301.456
301.542
301.617
301.661
301.676
301.637
301.559
301.494
301.446
301.42
301.437
301.416
301.138
300.352
300.005
299.906
299.884
299.883
299.902
299.991
300.311
301.044
301.283
301.288
301.256
301.24
301.237
301.24
301.244
301.249
301.251
301.251
301.25
301.248
301.248
301.256
301.26
301.266
301.273
301.282
301.291
301.299
301.304
301.307
301.309
301.311
301.315
301.32
301.327
301.333
301.34
301.348
301.356
301.364
301.372
301.379
301.386
301.393
301.401
301.412
301.429
301.456
301.497
301.554
301.617
301.677
301.723
301.585
301.559
301.516
301.469
301.432
301.408
301.394
301.387
301.383
301.379
301.376
301.372
301.368
301.363
301.358
301.355
301.352
301.35
301.35
301.351
301.355
301.365
301.388
301.434
301.49
301.489
301.355
301.309
301.28
301.274
301.371
301.394
301.395
301.424
301.411
301.134
300.337
299.987
299.891
299.87
299.869
299.886
299.971
300.292
301.032
301.274
301.284
301.259
301.247
301.248
301.254
301.259
301.263
301.265
301.265
301.263
301.262
301.263
301.273
301.277
301.282
301.288
301.295
301.303
301.308
301.312
301.315
301.318
301.321
301.325
301.33
301.335
301.341
301.347
301.355
301.363
301.37
301.378
301.385
301.391
301.398
301.406
301.417
301.434
301.461
301.503
301.559
301.623
301.683
301.729
301.586
301.56
301.517
301.47
301.433
301.409
301.395
301.388
301.383
301.38
301.377
301.373
301.369
301.365
301.361
301.359
301.357
301.356
301.357
301.358
301.361
301.367
301.381
301.406
301.419
301.324
300.998
300.886
300.874
300.954
301.229
301.331
301.361
301.398
301.391
301.121
300.329
299.981
299.886
299.866
299.865
299.881
299.965
300.285
301.025
301.268
301.283
301.265
301.26
301.265
301.273
301.28
301.284
301.285
301.284
301.282
301.281
301.284
301.296
301.301
301.305
301.309
301.312
301.316
301.319
301.322
301.325
301.328
301.331
301.335
301.339
301.344
301.349
301.355
301.362
301.37
301.377
301.384
301.391
301.398
301.405
301.413
301.424
301.44
301.468
301.509
301.566
301.63
301.689
301.735
301.587
301.561
301.518
301.471
301.433