/*--------------------------------*- C++ -*----------------------------------*\
| =========                 |                                                 |
| \\      /  F ield         | OpenFOAM: The Open Source CFD Toolbox           |
|  \\    /   O peration     | Version:  v2012                                 |
|   \\  /    A nd           | Website:  www.openfoam.com                      |
|    \\/     M anipulation  |                                                 |
\*---------------------------------------------------------------------------*/
FoamFile
{
    version     2.0;
    format      ascii;
    class       volScalarField;
    location    "350/asphalt";
    object      T;
}
// * * * * * * * * * * * * * * * * * * * * * * * * * * * * * * * * * * * * * //

dimensions      [0 0 0 1 0 0 0];


internalField   nonuniform List<scalar> 
1980
(
321.646
322.065
322.478
322.832
323.137
323.401
323.634
323.839
324.021
324.185
324.332
324.466
324.588
324.7
324.803
324.898
324.987
325.068
325.144
325.213
325.278
325.339
325.396
325.45
325.501
325.551
325.599
325.646
325.692
325.737
325.781
325.82
325.847
325.88
325.914
325.948
325.98
326.011
326.043
326.073
326.103
326.133
326.162
326.19
326.218
326.247
326.274
326.3
326.326
326.35
326.373
326.395
326.418
326.441
326.464
326.487
326.512
326.539
326.577
326.605
326.629
326.653
326.675
326.697
326.717
326.737
326.757
326.777
326.796
326.815
326.834
326.853
326.872
326.89
326.909
326.927
326.945
326.963
326.982
327
327.019
327.039
327.06
327.083
327.107
327.135
327.168
327.219
327.334
327.648
321.647
322.065
322.479
322.832
323.137
323.402
323.634
323.839
324.022
324.185
324.333
324.467
324.589
324.701
324.804
324.899
324.987
325.069
325.144
325.214
325.279
325.339
325.397
325.451
325.503
325.554
325.602
325.65
325.696
325.742
325.786
325.827
325.865
325.901
325.936
325.97
326.003
326.035
326.067
326.098
326.128
326.157
326.186
326.215
326.242
326.27
326.297
326.323
326.349
326.374
326.399
326.422
326.445
326.468
326.491
326.514
326.537
326.561
326.586
326.61
326.633
326.655
326.679
326.7
326.721
326.741
326.761
326.781
326.8
326.82
326.839
326.858
326.877
326.895
326.914
326.933
326.951
326.969
326.987
327.006
327.024
327.044
327.065
327.087
327.111
327.138
327.171
327.223
327.338
327.652
321.647
322.065
322.479
322.833
323.137
323.402
323.634
323.84
324.022
324.186
324.334
324.467
324.59
324.702
324.805
324.9
324.988
325.069
325.144
325.214
325.279
325.341
325.398
325.454
325.506
325.557
325.606
325.654
325.701
325.747
325.79
325.832
325.87
325.906
325.942
325.976
326.01
326.043
326.075
326.106
326.136
326.166
326.195
326.223
326.25
326.277
326.304
326.33
326.357
326.382
326.407
326.432
326.456
326.479
326.502
326.525
326.548
326.57
326.593
326.615
326.638
326.66
326.683
326.704
326.725
326.745
326.766
326.785
326.805
326.825
326.844
326.863
326.882
326.901
326.92
326.939
326.957
326.976
326.994
327.012
327.031
327.051
327.071
327.093
327.116
327.143
327.176
327.228
327.343
327.658
321.647
322.066
322.479
322.833
323.138
323.403
323.635
323.84
324.023
324.187
324.334
324.468
324.59
324.702
324.805
324.9
324.988
325.07
325.145
325.215
325.281
325.342
325.401
325.456
325.51
325.561
325.61
325.659
325.706
325.751
325.794
325.834
325.872
325.909
325.944
325.979
326.013
326.047
326.079
326.11
326.14
326.17
326.199
326.228
326.255
326.282
326.308
326.335
326.361
326.387
326.412
326.437
326.462
326.485
326.509
326.532
326.554
326.577
326.599
326.621
326.643
326.665
326.687
326.709
326.729
326.75
326.77
326.79
326.81
326.829
326.849
326.868
326.887
326.906
326.925
326.944
326.963
326.982
327
327.019
327.038
327.057
327.078
327.099
327.122
327.148
327.181
327.232
327.348
327.663
321.647
322.066
322.479
322.833
323.138
323.403
323.635
323.84
324.023
324.187
324.335
324.469
324.591
324.703
324.806
324.901
324.989
325.07
325.146
325.216
325.282
325.344
325.403
325.459
325.513
325.564
325.614
325.662
325.709
325.754
325.796
325.836
325.874
325.911
325.947
325.981
326.016
326.049
326.081
326.112
326.143
326.173
326.202
326.231
326.258
326.285
326.311
326.338
326.364
326.39
326.416
326.442
326.466
326.49
326.514
326.537
326.56
326.582
326.604
326.626
326.648
326.669
326.691
326.713
326.733
326.754
326.774
326.794
326.814
326.834
326.854
326.873
326.892
326.911
326.93
326.949
326.969
326.988
327.007
327.026
327.045
327.065
327.085
327.106
327.129
327.155
327.187
327.238
327.354
327.669
321.647
322.066
322.479
322.833
323.138
323.403
323.635
323.841
324.023
324.187
324.335
324.469
324.591
324.703
324.806
324.901
324.989
325.07
325.146
325.217
325.283
325.346
325.405
325.462
325.516
325.568
325.618
325.666
325.712
325.756
325.798
325.837
325.876
325.913
325.949
325.984
326.018
326.051
326.084
326.115
326.146
326.176
326.205
326.234
326.261
326.288
326.315
326.341
326.368
326.394
326.42
326.445
326.47
326.494
326.518
326.541
326.564
326.587
326.609
326.631
326.653
326.674
326.696
326.717
326.738
326.759
326.779
326.799
326.819
326.839
326.859
326.879
326.898
326.917
326.936
326.955
326.975
326.994
327.014
327.033
327.053
327.073
327.093
327.114
327.137
327.163
327.195
327.246
327.361
327.676
321.647
322.065
322.479
322.833
323.138
323.403
323.635
323.841
324.023
324.187
324.335
324.469
324.591
324.703
324.806
324.901
324.989
325.071
325.147
325.218
325.285
325.348
325.408
325.464
325.519
325.571
325.621
325.668
325.714
325.758
325.799
325.839
325.877
325.915
325.951
325.986
326.02
326.054
326.086
326.118
326.148
326.179
326.208
326.237
326.264
326.292
326.319
326.345
326.372
326.398
326.424
326.449
326.474
326.499
326.523
326.546
326.569
326.592
326.615
326.637
326.658
326.68
326.701
326.722
326.743
326.764
326.785
326.805
326.825
326.845
326.865
326.885
326.904
326.923
326.943
326.962
326.981
327.001
327.021
327.041
327.061
327.081
327.101
327.123
327.146
327.172
327.204
327.254
327.369
327.683
321.647
322.065
322.479
322.833
323.138
323.403
323.635
323.841
324.023
324.187
324.335
324.469
324.592
324.704
324.807
324.902
324.99
325.072
325.148
325.219
325.287
325.35
325.411
325.468
325.522
325.574
325.624
325.672
325.717
325.761
325.802
325.842
325.881
325.918
325.955
325.99
326.024
326.058
326.09
326.122
326.153
326.183
326.213
326.242
326.27
326.298
326.325
326.352
326.378
326.405
326.431
326.456
326.481
326.505
326.53
326.553
326.577
326.6
326.622
326.645
326.666
326.688
326.709
326.731
326.751
326.772
326.793
326.813
326.834
326.854
326.874
326.893
326.913
326.932
326.951
326.97
326.99
327.009
327.029
327.049
327.069
327.089
327.11
327.131
327.154
327.18
327.211
327.26
327.373
327.685
321.647
322.065
322.479
322.833
323.138
323.403
323.636
323.841
324.024
324.189
324.337
324.471
324.594
324.706
324.809
324.905
324.993
325.075
325.152
325.224
325.292
325.356
325.417
325.474
325.529
325.581
325.631
325.679
325.724
325.768
325.81
325.85
325.889
325.927
325.964
326
326.034
326.068
326.101
326.133
326.164
326.195
326.225
326.254
326.283
326.311
326.339
326.366
326.393
326.419
326.445
326.471
326.496
326.52
326.545
326.569
326.592
326.616
326.639
326.661
326.683
326.705
326.726
326.748
326.769
326.79
326.81
326.831
326.851
326.871
326.891
326.911
326.93
326.95
326.969
326.988
327.007
327.027
327.046
327.066
327.086
327.106
327.126
327.148
327.171
327.196
327.226
327.273
327.381
327.687
321.648
322.067
322.482
322.837
323.143
323.41
323.644
323.85
324.035
324.2
324.349
324.485
324.609
324.722
324.827
324.923
325.013
325.097
325.175
325.248
325.317
325.383
325.444
325.503
325.559
325.612
325.663
325.711
325.758
325.802
325.845
325.887
325.927
325.966
326.004
326.041
326.077
326.111
326.145
326.178
326.211
326.242
326.273
326.304
326.333
326.362
326.391
326.419
326.447
326.474
326.501
326.528
326.553
326.579
326.604
326.629
326.654
326.678
326.701
326.725
326.748
326.77
326.793
326.815
326.836
326.858
326.879
326.9
326.921
326.942
326.963
326.983
327.003
327.023
327.042
327.062
327.082
327.101
327.121
327.141
327.161
327.182
327.202
327.224
327.247
327.273
327.303
327.347
327.448
327.738
321.654
322.081
322.503
322.865
323.177
323.45
323.69
323.903
324.093
324.264
324.419
324.559
324.688
324.807
324.916
325.017
325.112
325.2
325.282
325.36
325.433
325.503
325.569
325.631
325.691
325.747
325.802
325.854
325.904
325.953
325.999
326.044
326.088
326.131
326.172
326.212
326.251
326.289
326.327
326.363
326.399
326.433
326.467
326.501
326.534
326.566
326.598
326.629
326.66
326.69
326.72
326.749
326.777
326.806
326.834
326.861
326.888
326.915
326.941
326.967
326.993
327.018
327.043
327.068
327.092
327.116
327.14
327.163
327.186
327.209
327.232
327.255
327.277
327.299
327.321
327.342
327.364
327.386
327.407
327.429
327.451
327.473
327.495
327.518
327.543
327.569
327.6
327.643
327.732
327.983
322.793
323.256
323.697
324.07
324.391
324.669
324.914
325.13
325.322
325.494
325.65
325.79
325.919
326.037
326.145
326.246
326.339
326.425
326.504
326.578
326.646
326.71
326.77
326.827
326.881
326.933
326.984
327.033
327.082
327.13
327.176
327.219
327.253
327.289
327.326
327.361
327.395
327.428
327.461
327.493
327.525
327.556
327.586
327.616
327.646
327.676
327.704
327.732
327.759
327.784
327.809
327.832
327.856
327.88
327.905
327.929
327.954
327.982
328.016
328.043
328.069
328.093
328.116
328.139
328.161
328.182
328.202
328.223
328.243
328.263
328.283
328.302
328.322
328.341
328.361
328.38
328.399
328.418
328.436
328.456
328.476
328.497
328.52
328.544
328.569
328.597
328.631
328.682
328.797
329.153
322.793
323.256
323.697
324.07
324.391
324.67
324.914
325.13
325.322
325.495
325.65
325.791
325.919
326.037
326.146
326.246
326.339
326.425
326.504
326.578
326.646
326.71
326.771
326.828
326.883
326.936
326.987
327.037
327.086
327.135
327.181
327.225
327.265
327.303
327.34
327.376
327.411
327.445
327.479
327.511
327.543
327.574
327.604
327.634
327.663
327.692
327.72
327.748
327.776
327.802
327.828
327.852
327.877
327.901
327.925
327.949
327.973
327.998
328.023
328.048
328.072
328.095
328.12
328.143
328.164
328.185
328.206
328.227
328.247
328.267
328.287
328.307
328.327
328.346
328.366
328.385
328.404
328.423
328.442
328.461
328.481
328.502
328.524
328.547
328.572
328.6
328.634
328.685
328.801
329.156
322.793
323.256
323.697
324.07
324.391
324.67
324.914
325.13
325.323
325.495
325.651
325.792
325.92
326.038
326.147
326.247
326.34
326.425
326.505
326.578
326.647
326.711
326.772
326.83
326.886
326.94
326.991
327.042
327.091
327.139
327.185
327.229
327.269
327.308
327.345
327.381
327.417
327.451
327.485
327.518
327.55
327.581
327.612
327.642
327.67
327.698
327.726
327.754
327.782
327.809
327.835
327.861
327.886
327.911
327.935
327.959
327.983
328.006
328.03
328.053
328.077
328.1
328.124
328.147
328.168
328.19
328.21
328.231
328.252
328.272
328.292
328.312
328.332
328.352
328.372
328.391
328.41
328.43
328.449
328.468
328.487
328.508
328.529
328.552
328.577
328.604
328.638
328.689
328.805
329.161
322.794
323.256
323.698
324.071
324.392
324.67
324.915
325.131
325.323
325.496
325.651
325.792
325.921
326.039
326.147
326.248
326.34
326.426
326.505
326.579
326.648
326.713
326.775
326.833
326.889
326.943
326.996
327.046
327.096
327.144
327.189
327.231
327.272
327.31
327.348
327.384
327.42
327.455
327.489
327.522
327.554
327.585
327.616
327.646
327.674
327.702
327.73
327.758
327.786
327.813
327.84
327.867
327.892
327.917
327.941
327.966
327.989
328.013
328.036
328.059
328.082
328.105
328.128
328.151
328.173
328.194
328.215
328.236
328.257
328.277
328.297
328.317
328.337
328.357
328.377
328.397
328.416
328.436
328.455
328.475
328.494
328.515
328.535
328.558
328.582
328.609
328.642
328.693
328.809
329.165
322.794
323.256
323.698
324.071
324.392
324.671
324.915
325.131
325.323
325.496
325.651
325.793
325.921
326.039
326.148
326.248
326.34
326.426
326.506
326.58
326.649
326.715
326.777
326.836
326.893
326.947
327
327.05
327.1
327.146
327.191
327.233
327.273
327.312
327.35
327.386
327.422
327.458
327.491
327.524
327.557
327.588
327.619
327.649
327.678
327.706
327.734
327.762
327.789
327.817
327.844
327.871
327.897
327.922
327.946
327.971
327.995
328.018
328.042
328.064
328.087
328.11
328.133
328.155
328.177
328.198
328.219
328.24
328.261
328.282
328.302
328.323
328.342
328.362
328.382
328.402
328.422
328.442
328.462
328.482
328.502
328.522
328.542
328.564
328.588
328.615
328.648
328.698
328.814
329.17
322.793
323.256
323.698
324.071
324.392
324.671
324.915
325.131
325.324
325.496
325.652
325.793
325.921
326.039
326.148
326.248
326.341
326.426
326.506
326.581
326.651
326.717
326.779
326.839
326.896
326.95
327.003
327.054
327.102
327.149
327.193
327.235
327.275
327.314
327.352
327.388
327.425
327.46
327.494
327.527
327.559
327.591
327.622
327.652
327.681
327.709
327.737
327.765
327.793
327.82
327.848
327.874
327.9
327.926
327.951
327.975
328
328.023
328.047
328.07
328.092
328.115
328.137
328.159
328.181
328.203
328.224
328.245
328.266
328.287
328.308
328.328
328.348
328.368
328.388
328.408
328.428
328.448
328.469
328.489
328.509
328.53
328.55
328.572
328.596
328.622
328.655
328.705
328.821
329.177
322.793
323.256
323.697
324.071
324.392
324.67
324.915
325.131
325.323
325.496
325.652
325.793
325.921
326.039
326.148
326.248
326.341
326.427
326.507
326.581
326.652
326.718
326.781
326.841
326.899
326.953
327.006
327.056
327.104
327.15
327.194
327.236
327.276
327.316
327.354
327.391
327.427
327.462
327.496
327.529
327.562
327.593
327.624
327.655
327.684
327.713
327.741
327.769
327.797
327.824
327.852
327.878
327.904
327.93
327.955
327.98
328.004
328.028
328.052
328.075
328.098
328.12
328.143
328.165
328.187
328.208
328.23
328.251
328.272
328.293
328.314
328.334
328.355
328.374
328.394
328.414
328.434
328.455
328.476
328.496
328.517
328.538
328.559
328.581
328.605
328.631
328.663
328.713
328.828
329.183
322.793
323.256
323.697
324.07
324.391
324.67
324.915
325.131
325.323
325.496
325.652
325.793
325.922
326.04
326.148
326.248
326.341
326.427
326.508
326.583
326.654
326.721
326.784
326.844
326.902
326.957
327.009
327.059
327.107
327.153
327.197
327.239
327.279
327.319
327.357
327.394
327.431
327.466
327.5
327.534
327.566
327.598
327.629
327.66
327.689
327.718
327.747
327.775
327.803
327.831
327.858
327.885
327.911
327.937
327.962
327.987
328.011
328.036
328.059
328.083
328.106
328.128
328.15
328.173
328.194
328.216
328.238
328.259
328.28
328.301
328.322
328.343
328.363
328.383
328.402
328.422
328.442
328.463
328.483
328.504
328.525
328.545
328.567
328.589
328.612
328.639
328.67
328.718
328.831
329.183
322.793
323.256
323.697
324.07
324.391
324.67
324.915
325.131
325.324
325.497
325.652
325.794
325.923
326.041
326.15
326.25
326.343
326.43
326.511
326.587
326.658
326.726
326.789
326.85
326.908
326.963
327.015
327.065
327.113
327.159
327.203
327.246
327.287
327.327
327.365
327.403
327.439
327.475
327.51
327.543
327.576
327.608
327.64
327.671
327.701
327.73
327.759
327.788
327.816
327.844
327.871
327.898
327.924
327.95
327.976
328.001
328.026
328.05
328.074
328.097
328.121
328.143
328.166
328.188
328.21
328.232
328.253
328.275
328.296
328.317
328.338
328.358
328.378
328.398
328.418
328.438
328.458
328.478
328.498
328.519
328.539
328.56
328.581
328.603
328.626
328.652
328.682
328.728
328.837
329.182
322.793
323.257
323.699
324.074
324.396
324.676
324.922
325.139
325.333
325.507
325.664
325.807
325.937
326.056
326.166
326.268
326.362
326.45
326.532
326.61
326.682
326.751
326.816
326.878
326.936
326.992
327.045
327.097
327.145
327.192
327.238
327.281
327.324
327.365
327.404
327.443
327.48
327.517
327.553
327.587
327.621
327.654
327.687
327.719
327.75
327.78
327.811
327.84
327.869
327.898
327.926
327.954
327.981
328.007
328.034
328.06
328.085
328.111
328.135
328.16
328.184
328.208
328.231
328.254
328.276
328.299
328.321
328.343
328.365
328.386
328.408
328.429
328.45
328.47
328.49
328.511
328.531
328.551
328.572
328.592
328.613
328.634
328.655
328.678
328.701
328.727
328.757
328.801
328.901
329.23
322.801
323.273
323.723
324.105
324.435
324.722
324.975
325.199
325.4
325.58
325.743
325.892
326.028
326.153
326.268
326.375
326.475
326.568
326.655
326.737
326.815
326.888
326.957
327.023
327.086
327.146
327.204
327.259
327.312
327.363
327.413
327.461
327.507
327.552
327.596
327.638
327.679
327.72
327.759
327.797
327.835
327.872
327.908
327.943
327.978
328.012
328.046
328.079
328.111
328.143
328.175
328.205
328.236
328.266
328.295
328.324
328.353
328.381
328.409
328.436
328.463
328.49
328.516
328.542
328.567
328.592
328.617
328.642
328.666
328.691
328.714
328.738
328.761
328.784
328.807
328.83
328.852
328.875
328.897
328.92
328.943
328.965
328.988
329.012
329.038
329.065
329.096
329.138
329.226
329.509
)
;

boundaryField
{
    inlet
    {
        type            zeroGradient;
    }
    outlet
    {
        type            zeroGradient;
    }
    side
    {
        type            zeroGradient;
    }
    asphalt_to_soil1
    {
        type            compressible::turbulentTemperatureRadCoupledMixed;
        refValue        nonuniform List<scalar> 
990
(
320.486
320.864
321.25
321.584
321.872
322.123
322.343
322.537
322.71
322.864
323.004
323.131
323.246
323.352
323.449
323.539
323.623
323.7
323.771
323.837
323.899
323.956
324.01
324.061
324.109
324.156
324.202
324.246
324.29
324.333
324.374
324.409
324.43
324.46
324.492
324.524
324.554
324.584
324.613
324.642
324.671
324.699
324.726
324.753
324.78
324.806
324.832
324.857
324.881
324.904
324.926
324.947
324.969
324.99
325.012
325.035
325.058
325.086
325.126
325.154
325.178
325.2
325.221
325.242
325.261
325.28
325.299
325.318
325.336
325.354
325.372
325.39
325.408
325.426
325.444
325.461
325.479
325.496
325.513
325.531
325.549
325.568
325.588
325.609
325.633
325.659
325.692
325.743
325.854
326.132
320.486
320.864
321.25
321.584
321.873
322.124
322.343
322.538
322.71
322.865
323.005
323.131
323.247
323.353
323.45
323.54
323.624
323.701
323.772
323.838
323.899
323.957
324.011
324.063
324.112
324.159
324.205
324.25
324.294
324.338
324.379
324.418
324.453
324.486
324.519
324.551
324.583
324.613
324.643
324.672
324.701
324.729
324.756
324.783
324.809
324.835
324.861
324.886
324.91
324.934
324.957
324.979
325.001
325.023
325.045
325.067
325.089
325.112
325.136
325.159
325.181
325.203
325.225
325.246
325.265
325.284
325.303
325.322
325.341
325.359
325.377
325.395
325.413
325.431
325.449
325.467
325.484
325.502
325.519
325.537
325.555
325.573
325.593
325.614
325.637
325.663
325.695
325.747
325.859
326.137
320.486
320.864
321.251
321.585
321.873
322.124
322.344
322.538
322.711
322.866
323.006
323.132
323.248
323.354
323.451
323.541
323.625
323.701
323.773
323.839
323.9
323.958
324.013
324.065
324.115
324.163
324.209
324.255
324.299
324.342
324.384
324.422
324.459
324.493
324.526
324.559
324.591
324.622
324.652
324.681
324.71
324.738
324.766
324.793
324.818
324.844
324.869
324.894
324.919
324.943
324.967
324.99
325.013
325.035
325.057
325.078
325.1
325.122
325.143
325.165
325.186
325.207
325.229
325.25
325.269
325.289
325.308
325.327
325.345
325.364
325.382
325.401
325.419
325.437
325.455
325.473
325.491
325.508
325.526
325.543
325.561
325.58
325.599
325.62
325.642
325.668
325.701
325.752
325.865
326.143
320.486
320.865
321.251
321.585
321.874
322.125
322.344
322.539
322.712
322.866
323.006
323.133
323.249
323.355
323.452
323.542
323.625
323.702
323.773
323.84
323.901
323.96
324.015
324.068
324.118
324.166
324.213
324.259
324.303
324.346
324.387
324.425
324.461
324.496
324.529
324.562
324.594
324.626
324.656
324.686
324.715
324.743
324.77
324.797
324.823
324.848
324.874
324.899
324.923
324.948
324.972
324.996
325.019
325.041
325.064
325.085
325.107
325.128
325.149
325.17
325.191
325.212
325.233
325.253
325.273
325.293
325.312
325.331
325.35
325.369
325.387
325.406
325.424
325.442
325.46
325.478
325.496
325.514
325.532
325.55
325.568
325.587
325.606
325.626
325.649
325.674
325.706
325.758
325.87
326.149
320.487
320.865
321.251
321.585
321.874
322.125
322.345
322.539
322.712
322.867
323.007
323.133
323.249
323.355
323.453
323.542
323.626
323.702
323.774
323.84
323.903
323.961
324.017
324.07
324.121
324.17
324.217
324.263
324.307
324.349
324.389
324.427
324.463
324.498
324.532
324.564
324.597
324.628
324.659
324.688
324.717
324.746
324.773
324.8
324.826
324.852
324.877
324.902
324.927
324.952
324.976
325
325.023
325.046
325.068
325.09
325.112
325.134
325.155
325.175
325.196
325.216
325.237
325.257
325.277
325.297
325.316
325.335
325.354
325.373
325.392
325.41
325.429
325.447
325.465
325.483
325.502
325.52
325.539
325.557
325.575
325.594
325.613
325.634
325.656
325.681
325.713
325.764
325.877
326.156
320.487
320.865
321.251
321.585
321.874
322.125
322.345
322.539
322.712
322.867
323.007
323.134
323.249
323.355
323.453
323.543
323.626
323.703
323.774
323.841
323.904
323.963
324.02
324.073
324.124
324.173
324.22
324.266
324.31
324.351
324.391
324.428
324.465
324.5
324.534
324.567
324.599
324.631
324.661
324.691
324.72
324.748
324.776
324.803
324.829
324.855
324.88
324.905
324.93
324.955
324.98
325.004
325.027
325.05
325.073
325.095
325.117
325.138
325.16
325.18
325.201
325.221
325.242
325.262
325.282
325.301
325.321
325.34
325.359
325.378
325.397
325.416
325.434
325.453
325.471
325.489
325.508
325.526
325.545
325.564
325.583
325.602
325.621
325.642
325.664
325.689
325.721
325.772
325.885
326.163
320.487
320.865
321.251
321.585
321.874
322.125
322.345
322.539
322.712
322.867
323.007
323.134
323.25
323.356
323.453
323.543
323.626
323.703
323.775
323.842
323.906
323.965
324.022
324.076
324.127
324.176
324.223
324.269
324.312
324.353
324.393
324.43
324.467
324.502
324.536
324.569
324.602
324.633
324.664
324.694
324.723
324.751
324.779
324.806
324.833
324.859
324.884
324.91
324.935
324.959
324.984
325.008
325.032
325.055
325.077
325.1
325.122
325.144
325.165
325.186
325.206
325.227
325.247
325.267
325.287
325.307
325.327
325.346
325.365
325.385
325.404
325.422
325.441
325.459
325.478
325.496
325.515
325.534
325.553
325.572
325.591
325.61
325.63
325.651
325.673
325.698
325.73
325.78
325.892
326.171
320.487
320.865
321.251
321.585
321.874
322.125
322.345
322.539
322.713
322.868
323.008
323.135
323.25
323.356
323.454
323.544
323.627
323.705
323.777
323.844
323.908
323.968
324.025
324.079
324.131
324.18
324.227
324.272
324.315
324.356
324.396
324.434
324.47
324.506
324.54
324.573
324.606
324.638
324.669
324.699
324.728
324.757
324.785
324.812
324.839
324.865
324.891
324.916
324.941
324.966
324.991
325.015
325.039
325.062
325.085
325.107
325.13
325.151
325.173
325.194
325.215
325.235
325.256
325.276
325.296
325.315
325.335
325.355
325.374
325.393
325.412
325.431
325.45
325.468
325.486
325.505
325.523
325.542
325.561
325.581
325.6
325.619
325.639
325.66
325.682
325.707
325.738
325.787
325.898
326.173
320.487
320.865
321.251
321.586
321.875
322.126
322.346
322.541
322.714
322.869
323.01
323.137
323.253
323.359
323.457
323.547
323.631
323.709
323.782
323.85
323.914
323.975
324.032
324.086
324.138
324.188
324.235
324.28
324.323
324.365
324.404
324.442
324.48
324.515
324.55
324.584
324.617
324.649
324.68
324.711
324.74
324.769
324.798
324.825
324.852
324.879
324.905
324.931
324.957
324.982
325.006
325.031
325.054
325.078
325.101
325.124
325.146
325.168
325.19
325.212
325.233
325.253
325.274
325.294
325.314
325.334
325.354
325.373
325.393
325.412
325.431
325.45
325.469
325.487
325.506
325.524
325.542
325.561
325.58
325.599
325.618
325.638
325.657
325.678
325.7
325.725
325.755
325.802
325.909
326.178
320.488
320.867
321.255
321.59
321.88
322.133
322.354
322.55
322.725
322.881
323.023
323.151
323.269
323.376
323.475
323.567
323.652
323.731
323.805
323.874
323.94
324.002
324.06
324.116
324.169
324.219
324.267
324.313
324.357
324.4
324.44
324.48
324.518
324.555
324.591
324.626
324.66
324.693
324.725
324.756
324.787
324.817
324.846
324.875
324.903
324.931
324.958
324.985
325.011
325.037
325.063
325.088
325.112
325.137
325.161
325.184
325.207
325.23
325.253
325.275
325.297
325.319
325.34
325.361
325.382
325.402
325.423
325.443
325.463
325.483
325.503
325.522
325.541
325.56
325.579
325.598
325.617
325.636
325.655
325.674
325.694
325.713
325.734
325.755
325.777
325.802
325.832
325.876
325.975
326.232
320.494
320.879
321.273
321.614
321.91
322.168
322.395
322.596
322.776
322.937
323.084
323.217
323.338
323.45
323.553
323.649
323.738
323.821
323.899
323.972
324.042
324.107
324.169
324.228
324.284
324.338
324.389
324.438
324.486
324.531
324.575
324.618
324.659
324.699
324.738
324.776
324.813
324.849
324.884
324.918
324.952
324.984
325.017
325.048
325.079
325.109
325.139
325.169
325.198
325.226
325.254
325.282
325.309
325.336
325.362
325.388
325.414
325.439
325.464
325.488
325.513
325.536
325.56
325.583
325.606
325.629
325.651
325.674
325.696
325.718
325.739
325.761
325.782
325.803
325.823
325.844
325.865
325.886
325.906
325.927
325.948
325.969
325.991
326.013
326.036
326.062
326.093
326.136
326.224
326.448
)
;
        refGradient     uniform 0;
        valueFraction   nonuniform List<scalar> 
990
(
0.495766
0.495766
0.495766
0.495766
0.495766
0.495766
0.495766
0.495766
0.495766
0.495766
0.495766
0.495766
0.495766
0.495766
0.495766
0.495766
0.495766
0.495766
0.495766
0.495766
0.495766
0.495766
0.495766
0.495766
0.495766
0.495766
0.495766
0.495766
0.495766
0.495766
0.495766
0.495766
0.495766
0.495766
0.495766
0.495766
0.495766
0.495766
0.495766
0.495766
0.495766
0.495766
0.495766
0.495766
0.495766
0.495766
0.495766
0.495766
0.495766
0.495766
0.495766
0.495766
0.495766
0.495766
0.495766
0.495766
0.495766
0.495766
0.495766
0.495766
0.495766
0.495766
0.495766
0.495766
0.495766
0.495766
0.495766
0.495766
0.495766
0.495766
0.495766
0.495766
0.495766
0.495766
0.495766
0.495766
0.495766
0.495766
0.495766
0.495766
0.495766
0.495766
0.495766
0.495766
0.495766
0.495766
0.495766
0.495766
0.495766
0.495766
0.495766
0.495766
0.495766
0.495766
0.495766
0.495766
0.495766
0.495766
0.495766
0.495766
0.495766
0.495766
0.495766
0.495766
0.495766
0.495766
0.495766
0.495766
0.495766
0.495766
0.495766
0.495766
0.495766
0.495766
0.495766
0.495766
0.495766
0.495766
0.495766
0.495766
0.495766
0.495766
0.495766
0.495766
0.495766
0.495766
0.495766
0.495766
0.495766
0.495766
0.495766
0.495766
0.495766
0.495766
0.495766
0.495766
0.495766
0.495766
0.495766
0.495766
0.495766
0.495766
0.495766
0.495766
0.495766
0.495766
0.495766
0.495766
0.495766
0.495766
0.495766
0.495766
0.495766
0.495766
0.495766
0.495766
0.495766
0.495766
0.495766
0.495766
0.495766
0.495766
0.495766
0.495766
0.495766
0.495766
0.495766
0.495766
0.495766
0.495766
0.495766
0.495766
0.495766
0.495766
0.495766
0.495766
0.495766
0.495766
0.495766
0.495766
0.495766
0.495766
0.495766
0.495766
0.495766
0.495766
0.495766
0.495766
0.495766
0.495766
0.495766
0.495766
0.495766
0.495766
0.495766
0.495766
0.495766
0.495766
0.495766
0.495766
0.495766
0.495766
0.495766
0.495766
0.495766
0.495766
0.495766
0.495766
0.495766
0.495766
0.495766
0.495766
0.495766
0.495766
0.495766
0.495766
0.495766
0.495766
0.495766
0.495766
0.495766
0.495766
0.495766
0.495766
0.495766
0.495766
0.495766
0.495766
0.495766
0.495766
0.495766
0.495766
0.495766
0.495766
0.495766
0.495766
0.495766
0.495766
0.495766
0.495766
0.495766
0.495766
0.495766
0.495766
0.495766
0.495766
0.495766
0.495766
0.495766
0.495766
0.495766
0.495766
0.495766
0.495766
0.495766
0.495766
0.495766
0.495766
0.495766
0.495766
0.495766
0.495766
0.495766
0.495766
0.495766
0.495766
0.495766
0.495766
0.495766
0.495766
0.495766
0.495766
0.495766
0.495766
0.495766
0.495766
0.495766
0.495766
0.495766
0.495766
0.495766
0.495766
0.495766
0.495766
0.495766
0.495766
0.495766
0.495766
0.495766
0.495766
0.495766
0.495766
0.495766
0.495766
0.495766
0.495766
0.495766
0.495766
0.495766
0.495766
0.495766
0.495766
0.495766
0.495766
0.495766
0.495766
0.495766
0.495766
0.495766
0.495766
0.495766
0.495766
0.495766
0.495766
0.495766
0.495766
0.495766
0.495766
0.495766
0.495766
0.495766
0.495766
0.495766
0.495766
0.495766
0.495766
0.495766
0.495766
0.495766
0.495766
0.495766
0.495766
0.495766
0.495766
0.495766
0.495766
0.495766
0.495766
0.495766
0.495766
0.495766
0.495766
0.495766
0.495766
0.495766
0.495766
0.495766
0.495766
0.495766
0.495766
0.495766
0.495766
0.495766
0.495766
0.495766
0.495766
0.495766
0.495766
0.495766
0.495766
0.495766
0.495766
0.495766
0.495766
0.495766
0.495766
0.495766
0.495766
0.495766
0.495766
0.495766
0.495766
0.495766
0.495766
0.495766
0.495766
0.495766
0.495766
0.495766
0.495766
0.495766
0.495766
0.495766
0.495766
0.495766
0.495766
0.495766
0.495766
0.495766
0.495766
0.495766
0.495766
0.495766
0.495766
0.495766
0.495766
0.495766
0.495766
0.495766
0.495766
0.495766
0.495766
0.495766
0.495766
0.495766
0.495766
0.495766
0.495766
0.495766
0.495766
0.495766
0.495766
0.495766
0.495766
0.495766
0.495766
0.495766
0.495766
0.495766
0.495766
0.495766
0.495766
0.495766
0.495766
0.495766
0.495766
0.495766
0.495766
0.495766
0.495766
0.495766
0.495766
0.495766
0.495766
0.495766
0.495766
0.495766
0.495766
0.495766
0.495766
0.495766
0.495766
0.495766
0.495766
0.495766
0.495766
0.495766
0.495766
0.495766
0.495766
0.495766
0.495766
0.495766
0.495766
0.495766
0.495766
0.495766
0.495766
0.495766
0.495766
0.495766
0.495766
0.495766
0.495766
0.495766
0.495766
0.495766
0.495766
0.495766
0.495766
0.495766
0.495766
0.495766
0.495766
0.495766
0.495766
0.495766
0.495766
0.495766
0.495766
0.495766
0.495766
0.495766
0.495766
0.495766
0.495766
0.495766
0.495766
0.495766
0.495766
0.495766
0.495766
0.495766
0.495766
0.495766
0.495766
0.495766
0.495766
0.495766
0.495766
0.495766
0.495766
0.495766
0.495766
0.495766
0.495766
0.495766
0.495766
0.495766
0.495766
0.495766
0.495766
0.495766
0.495766
0.495766
0.495766
0.495766
0.495766
0.495766
0.495766
0.495766
0.495766
0.495766
0.495766
0.495766
0.495766
0.495766
0.495766
0.495766
0.495766
0.495766
0.495766
0.495766
0.495766
0.495766
0.495766
0.495766
0.495766
0.495766
0.495766
0.495766
0.495766
0.495766
0.495766
0.495766
0.495766
0.495766
0.495766
0.495766
0.495766
0.495766
0.495766
0.495766
0.495766
0.495766
0.495766
0.495766
0.495766
0.495766
0.495766
0.495766
0.495766
0.495766
0.495766
0.495766
0.495766
0.495766
0.495766
0.495766
0.495766
0.495766
0.495766
0.495766
0.495766
0.495766
0.495766
0.495766
0.495766
0.495766
0.495766
0.495766
0.495766
0.495766