/*--------------------------------*- C++ -*----------------------------------*\
| =========                 |                                                 |
| \\      /  F ield         | OpenFOAM: The Open Source CFD Toolbox           |
|  \\    /   O peration     | Version:  v2012                                 |
|   \\  /    A nd           | Website:  www.openfoam.com                      |
|    \\/     M anipulation  |                                                 |
\*---------------------------------------------------------------------------*/
FoamFile
{
    version     2.0;
    format      ascii;
    class       volScalarField;
    location    "250/soil2";
    object      T;
}
// * * * * * * * * * * * * * * * * * * * * * * * * * * * * * * * * * * * * * //

dimensions      [0 0 0 1 0 0 0];


internalField   nonuniform List<scalar> 
10496
(
327.45
328.093
328.679
329.157
329.529
329.823
330.068
330.281
330.466
330.631
330.786
330.939
331.094
331.247
331.396
331.534
331.662
331.779
331.888
331.99
332.086
332.177
332.264
332.346
332.425
332.5
332.572
332.64
332.706
332.769
332.83
332.889
332.947
333.003
333.057
333.11
333.161
333.211
333.26
333.308
333.355
333.401
333.446
333.492
333.536
333.58
333.624
333.667
333.709
333.75
333.792
333.833
333.876
333.919
333.964
334.009
334.055
334.1
334.144
334.186
334.227
334.266
334.304
334.342
334.378
334.415
334.451
334.488
334.525
334.563
334.6
334.637
334.674
334.712
334.757
334.815
334.894
334.998
335.124
335.264
335.406
335.544
335.674
335.795
335.898
335.975
336.035
336.129
336.35
336.836
327.195
327.821
328.391
328.854
329.213
329.494
329.727
329.929
330.104
330.259
330.405
330.549
330.696
330.842
330.982
331.114
331.235
331.345
331.447
331.543
331.633
331.718
331.799
331.875
331.948
332.017
332.084
332.147
332.207
332.266
332.322
332.376
332.428
332.479
332.528
332.576
332.622
332.668
332.712
332.755
332.797
332.838
332.879
332.92
332.961
333
333.039
333.078
333.116
333.153
333.191
333.227
333.265
333.303
333.342
333.382
333.422
333.463
333.503
333.541
333.578
333.614
333.648
333.682
333.715
333.748
333.781
333.814
333.848
333.882
333.915
333.948
333.981
334.016
334.057
334.111
334.187
334.287
334.41
334.546
334.685
334.82
334.948
335.065
335.164
335.238
335.294
335.387
335.618
336.143
326.927
327.544
328.104
328.559
328.911
329.186
329.413
329.609
329.78
329.931
330.072
330.213
330.355
330.498
330.636
330.764
330.882
330.99
331.089
331.182
331.269
331.352
331.43
331.505
331.575
331.642
331.706
331.767
331.825
331.881
331.935
331.988
332.038
332.087
332.134
332.179
332.223
332.266
332.309
332.35
332.39
332.429
332.468
332.507
332.545
332.583
332.62
332.656
332.693
332.728
332.763
332.798
332.833
332.869
332.905
332.942
332.98
333.018
333.055
333.091
333.127
333.16
333.193
333.224
333.255
333.286
333.316
333.347
333.379
333.411
333.442
333.473
333.503
333.535
333.574
333.626
333.698
333.796
333.916
334.05
334.187
334.32
334.445
334.559
334.656
334.727
334.78
334.872
335.105
335.625
326.66
327.268
327.821
328.269
328.615
328.885
329.108
329.3
329.466
329.614
329.752
329.89
330.03
330.171
330.306
330.433
330.549
330.655
330.752
330.844
330.93
331.011
331.088
331.16
331.23
331.295
331.358
331.417
331.475
331.529
331.582
331.634
331.683
331.731
331.776
331.82
331.863
331.905
331.946
331.986
332.025
332.063
332.1
332.139
332.176
332.212
332.248
332.284
332.319
332.354
332.388
332.421
332.455
332.489
332.524
332.559
332.595
332.631
332.667
332.702
332.737
332.769
332.801
332.831
332.861
332.891
332.921
332.951
332.981
333.012
333.042
333.072
333.101
333.132
333.17
333.221
333.293
333.389
333.509
333.642
333.778
333.91
334.034
334.148
334.244
334.314
334.367
334.458
334.69
335.203
326.396
326.995
327.54
327.982
328.322
328.587
328.805
328.994
329.157
329.301
329.437
329.572
329.71
329.849
329.982
330.107
330.221
330.325
330.422
330.512
330.596
330.676
330.752
330.824
330.892
330.956
331.018
331.076
331.132
331.186
331.238
331.288
331.337
331.384
331.428
331.471
331.512
331.554
331.594
331.633
331.671
331.708
331.744
331.781
331.817
331.852
331.887
331.922
331.956
331.99
332.023
332.056
332.089
332.121
332.155
332.188
332.223
332.257
332.292
332.326
332.36
332.391
332.422
332.452
332.481
332.509
332.538
332.568
332.597
332.627
332.657
332.686
332.714
332.744
332.781
332.831
332.902
332.999
333.117
333.25
333.386
333.518
333.642
333.755
333.851
333.921
333.974
334.064
334.292
334.796
326.135
326.725
327.263
327.698
328.033
328.293
328.508
328.692
328.852
328.993
329.126
329.259
329.394
329.531
329.662
329.785
329.898
330.001
330.096
330.185
330.268
330.347
330.422
330.492
330.559
330.623
330.683
330.741
330.796
330.849
330.9
330.949
330.997
331.043
331.087
331.128
331.169
331.209
331.248
331.285
331.322
331.358
331.394
331.429
331.464
331.498
331.532
331.565
331.598
331.631
331.663
331.695
331.726
331.757
331.789
331.821
331.853
331.886
331.919
331.952
331.984
332.014
332.044
332.072
332.1
332.128
332.155
332.183
332.212
332.241
332.269
332.296
332.323
332.352
332.388
332.436
332.506
332.6
332.718
332.849
332.983
333.114
333.236
333.348
333.442
333.509
333.559
333.646
333.865
334.351
325.877
326.459
326.99
327.418
327.748
328.003
328.214
328.394
328.551
328.689
328.818
328.948
329.081
329.215
329.345
329.467
329.578
329.68
329.774
329.862
329.944
330.022
330.096
330.166
330.232
330.295
330.354
330.411
330.465
330.517
330.567
330.615
330.662
330.706
330.749
330.79
330.829
330.867
330.904
330.94
330.975
331.01
331.045
331.077
331.11
331.142
331.174
331.205
331.236
331.266
331.296
331.325
331.354
331.383
331.412
331.441
331.47
331.5
331.53
331.56
331.589
331.618
331.645
331.671
331.697
331.722
331.747
331.773
331.799
331.825
331.849
331.873
331.896
331.921
331.952
331.996
332.061
332.15
332.263
332.389
332.519
332.645
332.762
332.868
332.955
333.016
333.06
333.138
333.34
333.788
325.623
326.196
326.72
327.142
327.466
327.717
327.923
328.101
328.253
328.386
328.508
328.632
328.762
328.894
329.022
329.143
329.253
329.355
329.449
329.537
329.619
329.697
329.77
329.84
329.906
329.968
330.027
330.083
330.137
330.187
330.236
330.283
330.328
330.371
330.413
330.453
330.49
330.524
330.556
330.589
330.621
330.654
330.686
330.713
330.741
330.769
330.796
330.823
330.85
330.876
330.901
330.926
330.95
330.974
330.997
331.021
331.044
331.068
331.092
331.116
331.139
331.161
331.182
331.201
331.22
331.239
331.257
331.276
331.294
331.313
331.33
331.347
331.363
331.38
331.404
331.441
331.499
331.581
331.686
331.806
331.929
332.049
332.161
332.26
332.341
332.396
332.435
332.508
332.696
333.089
325.372
325.937
326.453
326.869
327.188
327.435
327.637
327.81
327.957
328.077
328.17
328.274
328.393
328.52
328.648
328.771
328.886
328.992
329.091
329.184
329.271
329.354
329.431
329.504
329.573
329.637
329.697
329.753
329.805
329.855
329.901
329.945
329.987
330.028
330.067
330.105
330.139
330.166
330.192
330.22
330.248
330.278
330.306
330.327
330.348
330.371
330.393
330.414
330.435
330.455
330.475
330.494
330.513
330.531
330.549
330.567
330.584
330.602
330.62
330.637
330.655
330.671
330.686
330.7
330.714
330.727
330.74
330.753
330.766
330.779
330.791
330.802
330.813
330.825
330.843
330.874
330.927
331.004
331.105
331.222
331.35
331.474
331.587
331.687
331.766
331.818
331.854
331.925
332.1
332.435
325.124
325.681
326.19
326.6
326.914
327.156
327.354
327.522
327.656
327.731
327.579
327.553
327.614
327.727
327.867
328.015
328.164
328.308
328.446
328.576
328.698
328.811
328.916
329.012
329.099
329.178
329.249
329.314
329.372
329.426
329.475
329.522
329.567
329.61
329.652
329.694
329.73
329.755
329.778
329.806
329.834
329.867
329.897
329.915
329.933
329.955
329.976
329.996
330.015
330.033
330.05
330.068
330.084
330.1
330.115
330.129
330.143
330.156
330.17
330.183
330.196
330.208
330.218
330.228
330.237
330.245
330.253
330.261
330.269
330.276
330.283
330.289
330.294
330.3
330.313
330.338
330.384
330.455
330.55
330.672
330.863
331.042
331.195
331.321
331.417
331.479
331.522
331.6
331.787
332.127
324.88
325.429
325.931
326.335
326.643
326.881
327.075
327.236
327.348
327.237
324.572
324.027
324.102
324.384
324.729
325.081
325.415
325.721
325.997
326.241
326.455
326.64
326.797
326.928
327.035
327.121
327.19
327.245
327.288
327.323
327.353
327.379
327.403
327.426
327.45
327.478
327.502
327.514
327.526
327.546
327.569
327.598
327.626
327.64
327.655
327.678
327.7
327.721
327.742
327.761
327.78
327.799
327.816
327.831
327.846
327.858
327.87
327.88
327.889
327.898
327.905
327.91
327.915
327.918
327.919
327.919
327.918
327.917
327.914
327.909
327.903
327.895
327.885
327.876
327.871
327.876
327.897
327.936
327.992
328.105
329.097
329.871
330.429
330.825
331.097
331.274
331.391
331.523
331.768
332.188
324.64
325.18
325.675
326.073
326.376
326.609
326.799
326.955
327.056
326.907
324.115
323.524
323.592
323.881
324.241
324.608
324.959
325.281
325.571
325.829
326.054
326.249
326.413
326.55
326.66
326.748
326.816
326.868
326.907
326.937
326.961
326.981
326.999
327.016
327.037
327.067
327.096
327.11
327.126
327.156
327.192
327.239
327.288
327.318
327.35
327.396
327.441
327.488
327.535
327.584
327.633
327.683
327.733
327.782
327.831
327.879
327.927
327.974
328.02
328.065
328.109
328.152
328.193
328.231
328.267
328.301
328.332
328.36
328.385
328.407
328.426
328.439
328.449
328.456
328.465
328.482
328.514
328.565
328.636
328.776
329.634
330.31
330.802
331.155
331.402
331.562
331.671
331.805
332.085
332.601
324.403
324.934
325.422
325.814
326.112
326.341
326.527
326.68
326.776
326.62
323.852
323.259
323.322
323.607
323.963
324.328
324.675
324.995
325.284
325.541
325.765
325.958
326.12
326.254
326.362
326.447
326.511
326.558
326.592
326.615
326.631
326.644
326.654
326.665
326.68
326.706
326.731
326.737
326.743
326.767
326.797
326.84
326.887
326.908
326.931
326.972
327.012
327.053
327.096
327.141
327.188
327.235
327.283
327.332
327.381
327.43
327.481
327.533
327.587
327.642
327.698
327.755
327.814
327.874
327.935
327.998
328.061
328.126
328.191
328.257
328.322
328.385
328.447
328.51
328.575
328.651
328.742
328.854
328.988
329.191
329.998
330.622
331.072
331.395
331.624
331.779
331.89
332.036
332.344
332.941
324.169
324.692
325.173
325.559
325.852
326.077
326.259
326.408
326.501
326.345
323.614
323.028
323.088
323.369
323.719
324.079
324.422
324.738
325.024
325.277
325.499
325.689
325.849
325.981
326.087
326.17
326.233
326.279
326.311
326.332
326.344
326.353
326.36
326.367
326.38
326.406
326.433
326.434
326.433
326.454
326.481
326.524
326.573
326.587
326.604
326.641
326.678
326.717
326.757
326.798
326.84
326.88
326.92
326.959
326.999
327.038
327.077
327.117
327.156
327.195
327.234
327.274
327.315
327.355
327.396
327.437
327.479
327.521
327.563
327.605
327.646
327.687
327.728
327.769
327.816
327.874
327.949
328.047
328.168
328.357
329.146
329.742
330.159
330.451
330.658
330.8
330.911
331.062
331.359
331.895
323.938
324.453
324.927
325.308
325.596
325.816
325.994
326.14
326.231
326.076
323.385
322.806
322.865
323.141
323.486
323.841
324.179
324.491
324.772
325.022
325.24
325.428
325.585
325.715
325.819
325.9
325.963
326.01
326.042
326.062
326.073
326.078
326.082
326.086
326.099
326.126
326.155
326.153
326.148
326.167
326.193
326.238
326.29
326.301
326.313
326.351
326.388
326.429
326.471
326.513
326.554
326.593
326.631
326.669
326.707
326.745
326.783
326.82
326.857
326.893
326.928
326.963
326.997
327.029
327.061
327.093
327.123
327.153
327.182
327.209
327.235
327.257
327.278
327.298
327.321
327.354
327.402
327.47
327.555
327.69
328.452
329.017
329.411
329.687
329.881
330.012
330.11
330.248
330.529
331.025
323.711
324.217
324.685
325.059
325.342
325.558
325.733
325.875
325.964
325.811
323.159
322.589
322.647
322.919
323.259
323.608
323.941
324.248
324.525
324.771
324.986
325.171
325.326
325.453
325.554
325.635
325.698
325.745
325.779
325.8
325.81
325.813
325.813
325.815
325.826
325.854
325.886
325.881
325.871
325.889
325.915
325.963
326.021
326.031
326.041
326.08
326.122
326.167
326.214
326.258
326.299
326.338
326.375
326.414
326.453
326.493
326.532
326.57
326.608
326.645
326.682
326.718
326.754
326.789
326.823
326.857
326.889
326.921
326.952
326.982
327.01
327.035
327.056
327.077
327.101
327.134
327.182
327.25
327.335
327.467
328.206
328.755
329.138
329.407
329.595
329.722
329.817
329.95
330.224
330.71
323.486
323.984
324.446
324.814
325.092
325.304
325.475
325.614
325.701
325.549
322.937
322.376
322.433
322.701
323.036
323.38
323.708
324.011
324.283
324.526
324.737
324.919
325.07
325.194
325.293
325.371
325.433
325.482
325.519
325.543
325.553
325.554
325.551
325.55
325.558
325.586
325.619
325.611
325.593
325.61
325.637
325.688
325.756
325.768
325.779
325.823
325.87
325.923
325.975
326.022
326.064
326.102
326.14
326.182
326.224
326.268
326.31
326.352
326.393
326.433
326.473
326.513
326.553
326.592
326.63
326.668
326.706
326.742
326.779
326.814
326.848
326.88
326.91
326.94
326.974
327.019
327.081
327.164
327.27
327.432
328.166
328.717
329.106
329.385
329.584
329.718
329.813
329.942
330.206
330.696
323.265
323.755
324.21
324.573
324.846
325.053
325.22
325.357
325.441
325.293
322.722
322.171
322.228
322.493
322.823
323.161
323.484
323.781
324.048
324.286
324.492
324.669
324.816
324.935
325.029
325.103
325.162
325.209
325.248
325.274
325.287
325.287
325.28
325.273
325.276
325.3
325.33
325.316
325.288
325.303
325.329
325.384
325.463
325.48
325.496
325.548
325.606
325.667
325.725
325.774
325.814
325.852
325.893
325.937
325.984
326.03
326.076
326.12
326.165
326.209
326.253
326.298
326.342
326.387
326.431
326.475
326.519
326.563
326.607
326.651
326.693
326.734
326.774
326.815
326.861
326.917
326.992
327.089
327.211
327.399
328.15
328.718
329.12
329.407
329.611
329.75
329.853
329.99
330.268
330.793
323.048
323.529
323.977
324.335
324.603
324.806
324.969
325.103
325.188
325.048
322.53
321.996
322.055
322.316
322.639
322.97
323.285
323.572
323.829
324.055
324.249
324.412
324.545
324.65
324.73
324.789
324.835
324.872
324.905
324.929
324.941
324.937
324.923
324.906
324.897
324.91
324.932
324.912
324.877
324.886
324.912
324.969
325.056
325.084
325.113
325.183
325.259
325.336
325.404
325.458
325.502
325.544
325.588
325.636
325.685
325.731
325.776
325.819
325.861
325.904
325.946
325.989
326.032
326.074
326.117
326.159
326.201
326.242
326.282
326.321
326.358
326.392
326.423
326.453
326.487
326.529
326.587
326.665
326.765
326.93
327.698
328.289
328.714
329.019
329.234
329.377
329.477
329.604
329.865
330.354
322.833
323.307
323.749
324.1
324.363
324.562
324.723
324.855
324.944
324.839
322.504
322.027
322.093
322.34
322.641
322.943
323.224
323.473
323.687
323.866
324.013
324.129
324.219
324.284
324.329
324.359
324.381
324.401
324.423
324.444
324.457
324.455
324.439
324.417
324.399
324.405
324.426
324.412
324.386
324.394
324.416
324.466
324.545
324.581
324.625
324.718
324.82
324.923
325.013
325.087
325.152
325.216
325.282
325.347
325.406
325.455
325.496
325.53
325.558
325.582
325.603
325.621
325.638
325.654
325.669
325.683
325.698
325.712
325.725
325.737
325.748
325.755
325.761
325.766
325.775
325.793
325.827
325.881
325.957
326.091
326.922
327.563
328.024
328.352
328.581
328.731
328.832
328.952
329.19
329.615
322.622
323.087
323.523
323.869
324.127
324.322
324.479
324.61
324.715
324.769
324.664
324.676
324.763
324.881
325.008
325.132
325.248
325.354
325.451
325.54
325.622
325.698
325.767
325.828
325.882
325.928
325.972
326.02
326.076
326.137
326.194
326.234
326.252
326.254
326.257
326.292
326.355
326.384
326.406
326.429
326.444
326.459
326.482
326.466
326.455
326.507
326.564
326.612
326.637
326.646
326.653
326.669
326.697
326.729
326.76
326.788
326.813
326.835
326.856
326.877
326.897
326.916
326.935
326.954
326.972
326.989
327.007
327.024
327.04
327.056
327.071
327.085
327.097
327.111
327.13
327.162
327.214
327.291
327.393
327.52
327.702
327.872
328.02
328.144
328.239
328.301
328.344
328.421
328.613
328.968
322.412
322.869
323.299
323.639
323.893
324.083
324.237
324.367
324.476
324.565
324.634
324.719
324.819
324.929
325.04
325.144
325.24
325.327
325.406
325.48
325.55
325.617
325.681
325.74
325.792
325.839
325.882
325.928
325.983
326.048
326.115
326.167
326.196
326.204
326.215
326.268
326.371
326.446
326.53
326.57
326.576
326.551
326.503
326.449
326.404
326.442
326.491
326.524
326.532
326.526
326.525
326.538
326.565
326.596
326.624
326.65
326.673
326.696
326.718
326.739
326.76
326.781
326.8
326.818
326.836
326.853
326.869
326.885
326.9
326.915
326.928
326.941
326.953
326.966
326.985
327.017
327.07
327.148
327.251
327.371
327.501
327.627
327.744
327.847
327.929
327.982
328.018
328.088
328.268
328.609
322.205
322.653
323.077
323.411
323.66
323.847
323.997
324.124
324.233
324.327
324.415
324.509
324.611
324.719
324.826
324.927
325.019
325.102
325.178
325.249
325.316
325.381
325.444
325.503
325.557
325.605
325.648
325.691
325.742
325.805
325.873
325.932
325.969
325.985
326.011
326.101
326.262
326.39
326.541
326.603
326.592
326.516
326.387
326.284
326.191
326.209
326.25
326.276
326.278
326.271
326.276
326.3
326.334
326.37
326.402
326.431
326.458
326.485
326.511
326.537
326.562
326.586
326.609
326.631
326.652
326.673
326.692
326.711
326.729
326.747
326.764
326.779
326.794
326.81
326.832
326.867
326.924
327.005
327.11
327.23
327.354
327.475
327.588
327.688
327.768
327.82
327.855
327.923
328.106
328.474
321.998
322.439
322.856
323.185
323.429
323.611
323.758
323.883
323.989
324.082
324.172
324.266
324.368
324.474
324.579
324.679
324.769
324.851
324.927
324.996
325.062
325.126
325.187
325.247
325.303
325.354
325.399
325.441
325.487
325.544
325.61
325.67
325.71
325.734
325.786
325.926
326.155
326.33
326.551
326.636
326.594
326.45
326.23
326.076
325.923
325.91
325.936
325.953
325.95
325.945
325.956
325.985
326.021
326.056
326.086
326.115
326.143
326.171
326.2
326.228
326.255
326.281
326.307
326.332
326.356
326.379
326.402
326.423
326.445
326.465
326.485
326.503
326.52
326.539
326.563
326.601
326.66
326.744
326.851
326.973
327.099
327.221
327.335
327.436
327.517
327.568
327.599
327.663
327.84
328.211
321.793
322.225
322.636
322.96
323.199
323.377
323.521
323.642
323.746
323.837
323.925
324.018
324.118
324.223
324.327
324.425
324.515
324.596
324.671
324.74
324.806
324.868
324.928
324.988
325.046
325.1
325.15
325.194
325.24
325.293
325.353
325.41
325.449
325.479
325.556
325.746
326.035
326.243
326.513
326.616
326.517
326.271
325.961
325.76
325.55
325.498
325.503
325.505
325.494
325.486
325.496
325.519
325.544
325.566
325.586
325.607
325.629
325.652
325.676
325.7
325.725
325.75
325.776
325.801
325.827
325.853
325.878
325.903
325.928
325.952
325.975
325.997
326.017
326.038
326.065
326.104
326.164
326.247
326.351
326.468
326.589
326.704
326.81
326.903
326.974
327.014
327.033
327.082
327.24
327.568
321.59
322.014
322.419
322.737
322.972
323.146
323.286
323.404
323.505
323.594
323.68
323.771
323.87
323.974
324.076
324.173
324.262
324.343
324.418
324.487
324.552
324.613
324.672
324.73
324.788
324.845
324.899
324.95
325
325.053
325.112
325.166
325.201
325.233
325.321
325.54
325.865
326.089
326.503
326.598
326.388
325.968
325.409
325.139
324.864
324.764
324.731
324.702
324.667
324.643
324.636
324.639
324.645
324.653
324.667
324.688
324.715
324.746
324.78
324.817
324.855
324.896
324.937
324.979
325.02
325.061
325.101
325.139
325.176
325.211
325.243
325.272
325.298
325.324
325.352
325.391
325.448
325.528
325.629
325.742
325.857
325.967
326.066
326.151
326.213
326.244
326.255
326.294
326.433
326.713
321.392
321.808
322.207
322.52
322.75
322.92
323.056
323.172
323.27
323.357
323.441
323.53
323.627
323.729
323.83
323.926
324.014
324.095
324.17
324.239
324.304
324.365
324.423
324.479
324.534
324.588
324.642
324.7
324.758
324.819
324.884
324.938
324.975
325.006
325.091
325.31
325.643
325.841
325.965
325.885
325.429
324.759
324.232
323.895
323.576
323.462
323.426
323.406
323.393
323.397
323.419
323.452
323.492
323.539
323.596
323.659
323.726
323.793
323.859
323.924
323.988
324.051
324.112
324.169
324.225
324.277
324.326
324.372
324.414
324.453
324.487
324.516
324.541
324.564
324.591
324.629
324.684
324.76
324.856
324.963
325.073
325.177
325.273
325.355
325.416
325.447
325.459
325.498
325.633
325.883
321.203
321.612
322.005
322.313
322.539
322.705
322.838
322.951
323.047
323.131
323.213
323.3
323.396
323.497
323.597
323.692
323.779
323.86
323.935
324.004
324.07
324.131
324.188
324.24
324.289
324.337
324.385
324.446
324.512
324.584
324.661
324.723
324.77
324.809
324.89
325.094
325.429
325.613
326.352
325.76
324.908
324.02
322.578
322.277
322.065
322.08
322.158
322.249
322.341
322.434
322.528
322.62
322.712
322.806
322.901
322.994
323.082
323.162
323.236
323.306
323.37
323.431
323.487
323.539
323.588
323.632
323.672
323.708
323.739
323.768
323.792
323.813
323.832
323.85
323.872
323.905
323.956
324.03
324.125
324.234
324.348
324.458
324.562
324.652
324.722
324.763
324.785
324.832
324.968
325.205
321.033
321.434
321.822
322.126
322.348
322.511
322.641
322.751
322.844
322.926
323.006
323.092
323.187
323.286
323.386
323.48
323.567
323.647
323.722
323.792
323.858
323.92
323.976
324.026
324.069
324.112
324.155
324.213
324.282
324.359
324.444
324.516
324.585
324.655
324.754
324.949
325.27
325.185
323.341
322.151
321.331
320.796
321.082
321.12
321.112
321.292
321.486
321.675
321.848
322.001
322.135
322.253
322.364
322.469
322.567
322.654
322.729
322.793
322.848
322.895
322.937
322.975
323.009
323.04
323.069
323.096
323.121
323.144
323.166
323.187
323.206
323.224
323.24
323.257
323.28
323.315
323.369
323.447
323.546
323.66
323.779
323.896
324.006
324.105
324.183
324.232
324.262
324.315
324.453
324.682
320.891
321.286
321.67
321.97
322.188
322.348
322.476
322.584
322.675
322.756
322.834
322.919
323.012
323.111
323.209
323.303
323.389
323.47
323.545
323.615
323.682
323.745
323.801
323.851
323.896
323.946
324
324.053
324.117
324.184
324.254
324.331
324.428
324.554
324.709
324.903
325.186
324.699
318.012
316.766
316.183
316.105
320.424
320.793
320.833
321.022
321.195
321.385
321.575
321.747
321.897
322.03
322.154
322.267
322.363
322.441
322.502
322.55
322.589
322.621
322.647
322.67
322.689
322.705
322.719
322.733
322.745
322.758
322.771
322.784
322.797
322.809
322.822
322.836
322.857
322.892
322.946
323.025
323.126
323.243
323.365
323.486
323.601
323.704
323.788
323.842
323.876
323.934
324.072
324.297
320.785
321.176
321.556
321.854
322.07
322.228
322.354
322.461
322.551
322.631
322.708
322.792
322.885
322.983
323.081
323.174
323.26
323.34
323.415
323.486
323.554
323.616
323.675
323.734
323.797
323.874
323.965
324.023
324.077
324.116
324.138
324.207
324.329
324.528
324.764
324.967
325.199
324.354
313.593
312.369
312.028
312.362
320.141
320.788
320.834
320.976
321.073
321.219
321.395
321.568
321.726
321.873
322.012
322.137
322.245
322.333
322.403
322.458
322.502
322.536
322.559
322.575
322.583
322.586
322.585
322.582
322.578
322.576
322.574
322.574
322.576
322.58
322.585
322.593
322.61
322.64
322.692
322.769
322.868
322.984
323.106
323.227
323.342
323.447
323.531
323.587
323.623
323.682
323.82
324.042
320.719
321.107
321.486
321.781
321.996
322.154
322.279
322.386
322.476
322.556
322.634
322.719
322.812
322.911
323.009
323.103
323.189
323.269
323.344
323.414
323.481
323.544
323.61
323.692
323.795
323.919
324.074
324.148
324.192
324.19
324.137
324.177
324.301
324.566
324.878
325.082
325.277
324.258
311.742
310.515
310.311
310.912
320.381
321.141
321.137
321.192
321.172
321.233
321.362
321.512
321.662
321.81
321.957
322.099
322.227
322.337
322.431
322.511
322.586
322.637
322.67
322.689
322.694
322.687
322.671
322.65
322.626
322.602
322.581
322.562
322.547
322.534
322.525
322.522
322.528
322.549
322.593
322.664
322.758
322.869
322.988
323.107
323.22
323.323
323.407
323.462
323.497
323.555
323.692
323.912
320.69
321.077
321.455
321.749
321.964
322.12
322.246
322.352
322.443
322.524
322.603
322.689
322.784
322.885
322.986
323.081
323.169
323.251
323.327
323.397
323.462
323.528
323.612
323.736
323.904
324.082
324.307
324.405
324.434
324.382
324.243
324.226
322.797
322.872
322.921
322.954
322.972
322.973
322.957
322.926
322.886
322.841
322.796
322.753
322.714
322.678
322.647
322.624
322.612
322.618
322.648
322.706
322.791
322.893
323.004
323.116
323.224
323.322
323.401
323.452
323.485
323.54
323.676
323.895
320.69
321.076
321.454
321.748
321.961
322.117
322.242
322.348
322.438
322.518
322.598
322.685
322.781
322.884
322.986
323.084
323.175
323.26
323.339
323.411
323.476
323.548
323.662
323.848
324.097
324.33
324.622
324.746
324.744
324.622
324.386
324.3
323.078
323.142
323.189
323.226
323.253
323.267
323.267
323.254
323.23
323.197
323.156
323.11
323.06
323.006
322.952
322.903
322.866
322.848
322.858
322.898
322.966
323.055
323.153
323.254
323.351
323.44
323.51
323.554
323.58
323.63
323.763
323.983
320.704
321.092
321.469
321.763
321.977
322.132
322.256
322.361
322.45
322.529
322.607
322.693
322.788
322.89
322.992
323.091
323.183
323.27
323.351
323.424
323.49
323.57
323.717
323.969
324.298
324.574
324.916
325.067
325.013
324.788
324.453
324.277
323.224
323.318
323.377
323.414
323.432
323.435
323.429
323.415
323.397
323.374
323.348
323.318
323.284
323.248
323.21
323.175
323.147
323.136
323.147
323.185
323.249
323.331
323.42
323.51
323.595
323.671
323.729
323.761
323.776
323.816
323.944
324.165
320.722
321.11
321.488
321.783
321.997
322.153
322.277
322.382
322.471
322.549
322.626
322.71
322.804
322.904
323.005
323.102
323.193
323.28
323.36
323.432
323.496
323.581
323.749
324.042
324.421
324.727
325.225
325.399
325.265
324.88
324.29
324.002
323.229
323.299
323.34
323.367
323.386
323.396
323.4
323.4
323.397
323.391
323.381
323.367
323.349
323.327
323.303
323.281
323.266
323.266
323.288
323.337
323.41
323.5
323.597
323.693
323.784
323.865
323.926
323.959
323.973
324.012
324.139
324.365
320.734
321.123
321.502
321.797
322.012
322.169
322.294
322.4
322.489
322.568
322.646
322.731
322.825
322.925
323.025
323.122
323.213
323.298
323.379
323.45
323.514
323.6
323.768
324.062
324.447
324.748
325.024
325.123
324.834
324.239
323.678
323.317
323.247
323.286
323.306
323.322
323.339
323.348
323.356
323.362
323.368
323.372
323.374
323.372
323.367
323.357
323.344
323.332
323.324
323.33
323.356
323.407
323.482
323.573
323.67
323.765
323.855
323.935
323.995
324.027
324.041
324.08
324.208
324.433
320.738
321.127
321.506
321.801
322.017
322.174
322.299
322.406
322.496
322.576
322.655
322.74
322.835
322.936
323.038
323.136
323.228
323.315
323.397
323.472
323.541
323.625
323.775
324.035
324.394
324.718
325.845
325.659
325.071
324.254
322.665
322.346
323.116
323.145
323.161
323.179
323.202
323.217
323.231
323.243
323.255
323.266
323.277
323.285
323.289
323.291
323.289
323.287
323.29
323.305
323.34
323.398
323.479
323.574
323.675
323.773
323.864
323.944
324.003
324.034
324.047
324.084
324.209
324.419
320.735
321.123
321.502
321.798
322.013
322.17
322.295
322.401
322.492
322.572
322.65
322.736
322.832
322.933
323.035
323.134
323.226
323.314
323.398
323.478
323.553
323.636
323.758
323.959
324.238
324.32
323.203
322.395
321.737
321.231
321.393
321.464
323.033
323.061
323.079
323.099
323.126
323.145
323.164
323.178
323.191
323.202
323.213
323.222
323.228
323.232
323.234
323.236
323.243
323.263
323.303
323.367
323.454
323.555
323.661
323.764
323.86
323.943
324.005
324.038
324.051
324.088
324.21
324.408
320.728
321.116
321.495
321.79
322.005
322.161
322.286
322.392
322.482
322.562
322.64
322.726
322.821
322.923
323.025
323.124
323.217
323.305
323.39
323.473
323.554
323.636
323.73
323.858
324
323.627
317.557
316.553
316.08
316.056
320.585
321.068
323.106
323.136
323.153
323.164
323.176
323.191
323.207
323.218
323.226
323.231
323.235
323.237
323.237
323.236
323.233
323.232
323.237
323.256
323.296
323.361
323.448
323.552
323.66
323.766
323.864
323.95
324.015
324.05
324.065
324.103
324.224
324.417
320.721
321.11
321.488
321.783
321.997
322.154
322.278
322.383
322.473
322.552
322.631
322.716
322.811
322.912
323.014
323.113
323.206
323.294
323.379
323.463
323.547
323.63
323.709
323.776
323.762
322.892
312.383
311.259
311.014
311.483
319.949
320.813
323.364
323.405
323.418
323.408
323.376
323.373
323.374
323.377
323.377
323.374
323.366
323.356
323.344
323.331
323.317
323.305
323.302
323.313
323.347
323.408
323.493
323.595
323.703
323.809
323.908
323.995
324.061
324.097
324.113
324.152
324.271
324.463
320.717
321.106
321.484
321.779
321.993
322.15
322.274
322.38
322.47
322.549
322.626
322.711
322.806
322.907
323.008
323.106
323.197
323.284
323.368
323.451
323.535
323.618
323.693
323.734
323.609
322.384
309.649
308.425
308.33
309.175
319.728
320.807
323.771
323.833
323.841
323.796
323.695
323.654
323.622
323.613
323.612
323.607
323.595
323.577
323.555
323.53
323.505
323.483
323.469
323.471
323.496
323.548
323.626
323.72
323.822
323.922
324.016
324.099
324.161
324.193
324.205
324.24
324.358
324.552
320.718
321.106
321.484
321.78
321.994
322.151
322.276
322.382
322.472
322.551
322.629
322.714
322.809
322.909
323.01
323.107
323.197
323.282
323.364
323.444
323.525
323.604
323.676
323.709
323.547
322.224
308.87
307.513
307.473
308.58
320.399
321.427
324.233
324.325
324.32
324.227
324.043
323.947
323.86
323.832
323.832
323.838
323.839
323.833
323.82
323.8
323.774
323.746
323.722
323.711
323.723
323.761
323.824
323.905
323.993
324.081
324.164
324.236
324.289
324.313
324.318
324.346
324.46
324.657
320.722
321.11
321.489
321.784
321.999
322.156
322.282
322.388
322.479
322.558
322.637
322.722
322.816
322.917
323.017
323.114
323.203
323.288
323.368
323.447
323.524
323.599
323.663
323.685
323.519
322.219
308.872
307.469
307.405
308.598
321.237
322.279
324.67
324.79
324.753
324.59
324.313
324.151
323.995
323.932
323.922
323.932
323.945
323.956
323.965
323.968
323.964
323.954
323.944
323.94
323.951
323.983
324.035
324.102
324.176
324.25
324.319
324.378
324.419
324.432
324.425
324.444
324.551
324.751
320.73
321.119
321.498
321.793
322.008
322.165
322.291
322.398
322.489
322.569
322.647
322.732
322.826
322.926
323.026
323.122
323.211
323.294
323.374
323.451
323.526
323.597
323.655
323.669
323.496
322.205
308.904
307.509
307.444
308.68
321.782
322.938
325.019
325.146
325.033
324.752
324.383
324.153
323.918
323.81
323.785
323.794
323.81
323.828
323.848
323.869