/*--------------------------------*- C++ -*----------------------------------*\
| =========                 |                                                 |
| \\      /  F ield         | OpenFOAM: The Open Source CFD Toolbox           |
|  \\    /   O peration     | Version:  v2012                                 |
|   \\  /    A nd           | Website:  www.openfoam.com                      |
|    \\/     M anipulation  |                                                 |
\*---------------------------------------------------------------------------*/
FoamFile
{
    version     2.0;
    format      ascii;
    class       volScalarField;
    location    "650/concrete";
    object      T;
}
// * * * * * * * * * * * * * * * * * * * * * * * * * * * * * * * * * * * * * //

dimensions      [0 0 0 1 0 0 0];


internalField   nonuniform List<scalar> 
1924
(
326.082
326.155
326.22
326.176
326.045
324.813
312.071
310.779
310.671
311.62
322.886
323.73
323.644
323.532
323.415
323.364
323.363
323.399
323.463
323.551
323.657
323.773
323.894
324.014
324.132
324.258
326.009
326.018
325.997
325.854
325.741
324.554
312.1
310.844
310.797
311.928
324.168
325.261
325.175
325.01
324.789
324.615
324.477
324.37
324.294
324.253
324.244
324.261
324.298
324.349
324.413
324.498
325.794
325.662
325.468
325.248
325.3
324.179
311.587
310.301
310.278
311.527
324.353
325.604
325.444
325.324
325.163
325.05
324.957
324.876
324.805
324.748
324.706
324.682
324.674
324.683
324.711
324.767
325.327
325.031
324.635
324.293
323.833
322.71
312
310.847
310.833
312.04
323.782
325.459
326.063
326.059
325.76
325.462
325.226
325.06
324.952
324.885
324.845
324.827
324.827
324.845
324.884
324.953
324.563
324.258
323.78
322.277
303.445
300.438
298.596
298.091
298.1
298.65
300.677
304.062
325.161
326.326
325.972
325.609
325.301
325.093
324.972
324.916
324.915
324.95
325.011
325.094
325.195
325.324
323.733
323.707
323.598
322.056
300.66
297.185
296.196
295.908
295.917
296.235
297.32
301.135
324.587
326.333
326.165
325.854
325.585
325.398
325.286
325.24
325.256
325.32
325.407
325.517
325.621
325.727
323.159
323.432
323.614
322.211
300.122
296.494
295.601
295.364
295.371
295.634
296.605
300.542
324.44
326.307
326.215
325.935
325.679
325.489
325.362
325.296
325.282
325.306
325.352
325.419
325.479
325.543
322.958
323.341
323.649
322.356
300.008
296.326
295.443
295.216
295.223
295.473
296.431
300.405
324.406
326.294
326.207
325.892
325.595
325.365
325.206
325.112
325.071
325.068
325.094
325.133
325.173
325.224
322.831
323.224
323.533
322.266
299.975
296.301
295.424
295.201
295.208
295.454
296.41
300.397
324.463
326.387
326.281
325.978
325.659
325.393
325.198
325.076
325.011
324.988
324.989
325.003
325.025
325.065
322.843
323.144
323.33
321.98
299.987
296.372
295.514
295.297
295.303
295.544
296.491
300.475
324.653
326.689
326.569
326.256
325.894
325.582
325.347
325.201
325.118
325.072
325.051
325.047
325.058
325.09
323.276
323.286
323.176
321.666
300.19
296.713
295.899
295.692
295.694
295.918
296.825
300.737
324.958
327.176
327.147
326.541
326.095
325.759
325.527
325.378
325.285
325.232
325.207
325.202
325.214
325.249
324.023
323.735
323.215
321.539
301.357
298.264
297.555
297.363
297.345
297.517
298.288
301.815
325.094
326.857
326.636
326.242
325.906
325.666
325.51
325.417
325.369
325.351
325.355
325.375
325.408
325.459
324.731
324.362
323.679
322.183
309.77
308.183
307.712
307.474
307.328
307.298
307.605
309.37
323.693
325.181
325.347
325.32
325.283
325.269
325.28
325.31
325.354
325.406
325.464
325.525
325.589
325.658
325.214
324.944
324.334
322.765
310.656
309.291
308.941
308.79
308.714
308.722
308.964
310.327
322.977
324.419
324.763
324.916
325.026
325.127
325.227
325.326
325.422
325.515
325.605
325.69
325.767
325.836
325.464
325.309
324.856
323.318
310.738
309.384
309.074
308.95
308.89
308.898
309.11
310.399
323.116
324.539
324.895
325.064
325.183
325.288
325.388
325.486
325.582
325.676
325.766
325.85
325.918
325.932
325.59
325.501
325.174
323.751
310.867
309.509
309.217
309.108
309.057
309.067
309.267
310.529
323.316
324.691
325.021
325.179
325.293
325.395
325.493
325.592
325.689
325.786
325.878
325.961
326.014
325.984
325.666
325.603
325.358
324.123
312.169
310.918
310.655
310.561
310.519
310.531
310.713
311.868
323.708
324.952
325.24
325.377
325.478
325.567
325.654
325.742
325.83
325.919
326.005
326.075
326.079
325.731
325.715
325.667
325.492
324.561
315.361
314.389
314.184
314.112
314.083
314.096
314.243
315.145
324.287
325.253
325.478
325.589
325.674
325.75
325.825
325.901
325.978
326.056
326.131
326.18
326.108
325.303
325.738
325.706
325.604
325.051
319.728
319.144
319.019
318.978
318.967
318.983
319.085
319.641
324.959
325.556
325.709
325.793
325.861
325.926
325.989
326.053
326.118
326.184
326.245
326.271
326.128
324.932
325.74
325.724
325.685
325.471
323.635
323.407
323.358
323.348
323.354
323.375
323.436
323.676
325.54
325.8
325.888
325.947
326.001
326.054
326.107
326.16
326.214
326.27
326.319
326.328
326.143
324.767
325.729
325.726
325.729
325.725
325.918
325.911
325.914
325.926
325.944
325.968
326.001
326.047
325.898
325.948
325.994
326.037
326.081
326.125
326.171
326.216
326.263
326.308
326.346
326.342
326.142
324.785
325.717
325.721
325.743
325.814
326.572
326.646
326.672
326.695
326.719
326.744
326.766
326.743
326.036
326.012
326.039
326.073
326.11
326.15
326.191
326.232
326.273
326.312
326.341
326.328
326.122
324.777
325.706
325.714
325.741
325.808
326.341
326.41
326.441
326.467
326.492
326.517
326.538
326.521
326.042
326.024
326.048
326.078
326.112
326.149
326.187
326.226
326.263
326.298
326.322
326.303
326.098
324.778
325.699
325.708
325.734
325.777
325.957
326
326.028
326.053
326.079
326.104
326.127
326.137
326.011
326.021
326.047
326.077
326.109
326.143
326.179
326.216
326.252
326.284
326.305
326.287
326.098
324.881
325.694
325.704
325.729
325.756
325.752
325.777
325.803
325.828
325.853
325.879
325.905
325.932
325.992
326.02
326.047
326.077
326.108
326.14
326.174
326.209
326.243
326.274
326.295
326.283
326.133
325.152
325.691
325.702
325.727
325.751
325.72
325.742
325.767
325.793
325.818
325.845
325.873
325.904
325.991
326.024
326.052
326.081
326.11
326.141
326.173
326.206
326.239
326.269
326.291
326.29
326.196
325.557
325.688
325.7
325.727
325.754
325.755
325.779
325.805
325.831
325.857
325.884
325.912
325.942
326
326.03
326.058
326.086
326.115
326.144
326.174
326.205
326.236
326.265
326.29
326.3
326.262
325.966
325.686
325.7
325.728
325.758
325.784
325.811
325.838
325.864
325.891
325.919
325.947
325.975
326.008
326.037
326.064
326.091
326.119
326.147
326.175
326.205
326.234
326.263
326.289
326.308
326.312
326.26
325.686
325.7
325.729
325.76
325.794
325.822
325.85
325.877
325.904
325.932
325.961
325.988
326.014
326.042
326.068
326.095
326.122
326.149
326.177
326.205
326.233
326.26
326.287
326.312
326.337
326.4
325.685
325.7
325.73
325.762
325.794
325.823
325.851
325.879
325.906
325.935
325.963
325.991
326.018
326.046
326.072
326.099
326.125
326.152
326.178
326.205
326.232
326.258
326.285
326.311
326.344
326.429
325.685
325.701
325.731
325.763
325.793
325.822
325.851
325.879
325.907
325.936
325.964
325.992
326.021
326.049
326.076
326.102
326.128
326.154
326.18
326.205
326.231
326.257
326.283
326.31
326.342
326.41
325.686
325.702
325.732
325.764
325.794
325.823
325.853
325.881
325.91
325.938
325.967
325.995
326.025
326.053
326.079
326.105
326.131
326.156
326.181
326.206
326.231
326.257
326.282
326.308
326.338
326.388
325.686
325.703
325.733
325.766
325.796
325.826
325.855
325.885
325.913
325.942
325.97
325.998
326.028
326.056
326.082
326.108
326.134
326.159
326.183
326.208
326.232
326.257
326.282
326.308
326.336
326.378
325.687
325.704
325.735
325.767
325.798
325.828
325.858
325.888
325.917
325.946
325.974
326.002
326.031
326.059
326.085
326.111
326.137
326.161
326.186
326.21
326.234
326.258
326.283
326.308
326.336
326.377
325.689
325.705
325.736
325.769
325.8
325.831
325.862
325.892
325.921
325.95
325.978
326.006
326.034
326.062
326.089
326.115
326.14
326.164
326.189
326.213
326.237
326.261
326.285
326.31
326.337
326.38
325.693
325.71
325.741
325.774
325.806
325.837
325.868
325.898
325.928
325.957
325.985
326.013
326.041
326.068
326.095
326.121
326.146
326.171
326.195
326.219
326.243
326.267
326.291
326.315
326.342
326.385
325.71
325.73
325.762
325.795
325.828
325.86
325.891
325.921
325.951
325.98
326.008
326.036
326.064
326.091
326.118
326.144
326.169
326.194
326.218
326.242
326.266
326.29
326.314
326.338
326.364
326.403
327.648
327.738
327.82
327.79
327.748
326.888
312.205
311.263
311.161
311.791
324.807
325.279
325.081
324.935
324.794
324.734
324.732
324.771
324.842
324.939
325.055
325.182
325.314
325.445
325.572
325.7
327.587
327.611
327.604
327.463
327.449
326.635
312.306
311.393
311.349
312.144
326.267
326.999
326.798
326.594
326.341
326.146
325.991
325.868
325.781
325.732
325.719
325.734
325.771
325.824
325.889
325.971
327.37
327.241
327.045
326.838
327.086
326.356
311.768
310.801
310.776
311.693
326.541
327.41
327.036
326.866
326.687
326.575
326.485
326.403
326.33
326.269
326.222
326.193
326.181
326.188
326.213
326.261
326.878
326.57
326.164
325.95
326.199
325.523
312.973
312.054
312.032
312.981
326.764
328.056
327.899
327.724
327.352
327.019
326.761
326.583
326.469
326.397
326.353
326.331
326.329
326.346
326.382
326.445
326.054
325.743
325.311
324.313
302.102
299.446
297.822
297.391
297.398
297.868
299.655
302.647
327.57
328.101
327.574
327.159
326.822
326.598
326.469
326.41
326.41
326.449
326.517
326.607
326.717
326.85
325.152
325.158
325.19
324.329
299.626
296.561
295.715
295.47
295.477
295.748
296.677
300.042
327.113
328.145
327.798
327.435
327.143
326.945
326.827
326.779
326.798
326.867
326.961
327.086
327.198
327.304
324.539
324.875
325.24
324.588
299.168
295.97
295.207
295.006
295.012
295.235
296.065
299.534
327.016
328.13
327.854
327.522
327.245
327.043
326.908
326.837
326.823
326.847
326.896
326.967
327.031
327.089
324.345
324.792
325.294
324.783
299.072
295.828
295.073
294.88
294.886
295.098
295.917
299.418
326.996
328.116
327.841
327.464
327.14
326.894
326.723
326.624
326.58
326.577
326.606
326.648
326.689
326.735
324.214
324.666
325.168
324.686
299.044
295.806
295.057
294.867
294.873
295.082
295.899
299.411
327.057
328.214
327.914
327.556
327.208
326.924
326.715
326.587
326.518
326.493
326.495
326.509
326.531
326.565
324.218
324.572
324.937
324.35
299.053
295.866
295.133
294.949
294.953
295.159
295.967
299.478
327.26
328.546
328.224
327.865
327.47
327.135
326.882
326.726
326.638
326.589
326.566
326.56
326.569
326.595
324.688
324.718
324.751
323.956
299.225
296.157
295.462
295.286
295.288
295.479
296.254
299.704
327.588
329.118
328.92
328.192
327.7
327.335
327.085
326.924
326.824
326.765
326.737
326.73
326.74
326.769
325.508
325.204
324.755
323.691
300.259
297.528
296.922
296.758
296.742
296.887
297.545
300.661
327.728
328.776
328.341
327.874
327.498
327.236
327.066
326.965
326.912
326.892
326.895
326.915
326.949
326.995
326.276
325.883
325.226
324.124
310.156
308.981
308.59
308.356
308.189
308.114
308.299
309.602
325.79
326.821
326.883
326.834
326.796
326.786
326.802
326.837
326.886
326.943
327.006
327.073
327.141
327.209
326.788
326.511
325.935
324.692
310.834
309.832
309.558
309.422
309.341
309.326
309.481
310.45
324.904
325.978
326.253
326.401
326.519
326.632
326.743
326.852
326.958
327.06
327.157
327.248
327.332
327.402
327.04
326.893
326.497
325.291
310.827
309.835
309.598
309.488
309.424
309.41
309.541
310.454
325.075
326.141
326.429
326.588
326.711
326.821
326.928
327.033
327.135
327.235
327.332
327.422
327.498
327.521
327.16
327.087
326.829
325.755
310.883
309.882
309.662
309.566
309.512
309.502
309.624
310.52
325.276
326.297
326.559
326.707
326.824
326.931
327.036
327.141
327.245
327.348
327.448
327.539
327.606
327.588
327.23
327.185
327.007
326.1
312.268
311.34
311.142
311.059
311.015
311.01
311.122
311.945
325.645
326.567
326.792
326.92
327.023
327.117
327.208
327.301
327.395
327.49
327.584
327.666
327.699
327.418
327.274
327.244
327.124
326.45
315.817
315.095
314.94
314.877
314.846
314.847
314.939
315.584
326.151
326.867
327.042
327.145
327.232
327.312
327.391
327.471
327.553
327.638
327.72
327.786
327.765
327.142
327.294
327.277
327.211
326.817
320.712
320.282
320.189
320.155
320.142
320.151
320.219
320.618
326.717
327.161
327.283
327.362
327.433
327.501
327.567
327.635
327.704
327.775
327.845
327.891
327.818
326.909
327.292
327.289
327.268
327.121
325.077
324.914
324.882
324.876
324.883
324.901
324.947
325.123
327.197
327.393
327.468
327.526
327.582
327.637
327.693
327.749
327.807
327.867
327.924
327.955
327.852
326.82
327.279
327.286
327.295
327.3
327.592
327.595
327.603
327.617
327.637
327.661
327.692
327.732
327.488
327.532
327.576
327.619
327.665
327.712
327.76
327.808
327.858
327.907
327.953
327.972
327.856
326.879
327.265
327.278
327.301
327.361
328.271
328.333
328.36
328.385
328.41
328.437
328.462
328.454
327.598
327.59
327.62
327.655
327.695
327.737
327.78
327.824
327.867
327.91
327.947
327.955
327.833
326.874
327.253
327.269
327.297
327.354
327.973
328.032
328.062
328.09
328.116
328.143
328.168
328.166
327.603
327.599
327.627
327.66
327.696
327.734
327.775
327.816
327.856
327.894
327.925
327.927
327.802
326.861
327.246
327.263
327.291
327.331
327.53
327.569
327.597
327.624
327.651
327.678
327.704
327.72
327.579
327.597
327.625
327.657
327.691
327.728
327.766
327.805
327.843
327.879
327.906
327.906
327.791
326.922
327.241
327.26
327.288
327.316
327.302
327.328
327.355
327.382
327.408
327.436
327.464
327.492
327.566
327.596
327.626
327.657
327.69
327.724
327.76
327.798
327.834
327.868
327.894
327.898
327.807
327.108
327.237
327.257
327.286
327.314
327.273
327.297
327.324
327.351
327.378
327.406
327.435
327.467
327.568
327.601
327.631
327.662
327.693
327.726
327.76
327.795
327.829
327.862
327.889
327.899
327.845
327.393
327.235
327.256
327.286
327.316
327.314
327.341
327.368
327.396
327.424
327.453
327.482
327.513
327.577
327.608
327.638
327.667
327.697
327.728
327.76
327.793
327.826
327.858
327.886
327.903
327.887
327.683
327.233
327.255
327.287
327.319
327.347
327.376
327.405
327.433
327.461
327.491
327.521
327.551
327.585
327.615
327.644
327.673
327.702
327.732
327.762
327.793
327.824
327.855
327.883
327.907
327.918
327.89
327.232
327.255
327.288
327.322
327.358
327.388
327.417
327.446
327.475
327.505
327.535
327.564
327.591
327.62
327.649
327.677
327.705
327.734
327.763
327.793
327.823
327.852
327.881
327.907
327.934
327.987
327.232
327.256
327.289
327.323
327.357
327.388
327.418
327.447
327.477
327.507
327.537
327.566
327.595
327.625
327.653
327.681
327.709
327.737
327.765
327.793
327.822
327.85
327.878
327.906
327.937
328.005
327.232
327.256
327.29
327.325
327.356
327.387
327.418
327.448
327.478
327.508
327.538
327.567
327.599
327.629
327.657
327.684
327.712
327.739
327.767
327.794
327.821
327.849
327.876
327.904
327.935
327.99
327.232
327.257
327.291
327.326
327.357
327.389
327.42
327.45
327.48
327.511
327.541
327.57
327.602
327.632
327.66
327.688
327.715
327.742
327.768
327.795
327.822
327.848
327.875
327.902
327.932
327.974
327.233
327.258
327.293
327.327
327.359
327.391
327.423
327.454
327.484
327.514
327.544
327.574
327.605
327.635
327.663
327.691
327.718
327.744
327.77
327.796
327.822
327.849
327.875
327.902
327.93
327.967
327.234
327.259
327.294
327.329
327.361
327.394
327.426
327.457
327.488
327.518
327.548
327.578
327.608
327.638
327.666
327.694
327.721
327.747
327.773
327.798
327.824
327.85
327.876
327.902
327.93
327.966
327.235
327.261
327.295
327.33
327.364
327.397
327.429
327.461
327.492
327.522
327.552
327.582
327.612
327.641
327.669
327.697
327.724
327.75
327.776
327.801
327.827
327.852
327.878
327.904
327.931
327.968
327.238
327.264
327.299
327.334
327.368
327.401
327.434
327.466
327.497
327.528
327.558
327.588
327.617
327.646
327.674
327.702
327.729
327.755
327.781
327.806
327.832
327.857
327.883
327.908
327.935
327.972
327.249
327.278
327.313
327.348
327.383
327.416
327.449
327.482
327.513
327.544
327.574
327.604
327.633
327.662
327.69
327.718
327.745
327.771
327.797
327.822
327.848
327.873
327.898
327.923
327.949
327.984
)
;

boundaryField
{
    concrete_to_air
    {
        type            compressible::turbulentTemperatureRadCoupledMixed;
        refValue        nonuniform List<scalar> 
898
(
313.313
313.36
313.388
313.396
313.421
313.441
313.209
312.907
312.581
312.302
312.261
312.236
312.22
312.212
312.21
312.214
312.222
312.233
312.248
312.265
312.283
312.303
312.324
312.346
312.368
312.39
313.261
313.263
313.228
313.169
313.172
313.199
313.046
312.906
312.766
312.635
312.703
312.761
312.8
312.819
312.818
312.799
312.768
312.732
312.695
312.663
312.637
312.618
312.606
312.6
312.6
312.605
313.121
313.056
312.949
312.852
312.876
312.926
312.753
312.602
312.474
312.372
312.511
312.64
312.746
312.834
312.902
312.948
312.971
312.973
312.961
312.94
312.916
312.892
312.872
312.858
312.85
312.847
312.853
312.739
312.614
312.572
312.681
312.816
312.607
312.419
312.278
312.195
312.546
312.858
313.095
313.238
313.31
313.335
313.331
313.308
313.276
313.24
313.203
313.17
313.143
313.123
313.111
313.109
312.487
312.405
312.353
312.442
313.979
313.702
313.498
313.386
313.321
313.313
313.329
313.341
313.351
313.359
313.368
313.378
313.391
313.407
312.137
312.149
312.222
312.454
313.608
313.282
313.096
312.994
312.938
312.912
312.9
312.898
312.901
312.902
312.898
312.893
312.897
312.901
311.875
311.977
312.149
312.521
313.427
313.041
312.833
312.703
312.615
312.552
312.508
312.48
312.465
312.459
312.457
312.465
312.478
312.491
311.662
311.81
312.045
312.523
313.326
312.918
312.696
312.541
312.433
312.352
312.293
312.255
312.233
312.224
312.227
312.237
312.251
312.267
311.466
311.631
311.883
312.397
313.324
312.877
312.644
312.515
312.404
312.311
312.238
312.192
312.166
312.155
312.155
312.162
312.174
312.19
311.439
311.589
311.81
312.255
313.427
312.989
312.733
312.622
312.493
312.378
312.289
312.235
312.207
312.194
312.191
312.196
312.208
312.225
311.597
311.667
311.796
312.116
313.665
313.357
313.12
312.777
312.595
312.466
312.382
312.331
312.304
312.293
312.294
312.305
312.324
312.349
311.874
311.858
311.873
312.06
313.669
313.181
312.844
312.631
312.493
312.416
312.379
312.368
312.373
312.39
312.415
312.449
312.489
312.534
312.165
312.115
312.056
312.097
311.917
311.705
311.493
311.291
311.107
310.949
310.826
310.78
311.263
311.563
311.77
311.926
312.051
312.156
312.246
312.327
312.402
312.474
312.544
312.615
312.688
312.759
312.411
312.385
312.322
312.277
312.089
311.922
311.773
311.643
311.53
311.431
311.349
311.29
311.495
311.681
311.845
311.992
312.125
312.247
312.361
312.467
312.569
312.666
312.762
312.856
312.948
313.029
312.612
312.624
312.597
312.547
312.347
312.177
312.029
311.901
311.789
311.691
311.607
311.544
311.712
311.879
312.036
312.185
312.325
312.457
312.582
312.701
312.815
312.925
313.031
313.133
313.225
313.277
312.809
312.841
312.85
312.831
312.636
312.462
312.31
312.178
312.062
311.96
311.872
311.805
311.953
312.106
312.255
312.4
312.541
312.678
312.809
312.936
313.059
313.177
313.288
313.388
313.46
313.433
313.008
313.046
313.074
313.084
312.918
312.764
312.626
312.505
312.399
312.306
312.226
312.166
312.3
312.44
312.58
312.717
312.852
312.983
313.11
313.232
313.349
313.46
313.561
313.64
313.665
313.481
313.172
313.215
313.255
313.284
313.172
313.065
312.968
312.882
312.808
312.746
312.695
312.662
312.776
312.897
313.019
313.138
313.256
313.37
313.481
313.587
313.688
313.784
313.868
313.925
313.916
313.666
313.268
313.319
313.368
313.412
313.371
313.329
313.292
313.261
313.237
313.222
313.215
313.221
313.312
313.406
313.501
313.595
313.687
313.776
313.863
313.945
314.024
314.099
314.164
314.202
314.169
313.881
313.298
313.356
313.413
313.467
313.49
313.51
313.53
313.551
313.576
313.605
313.639
313.679
313.748
313.819
313.889
313.959
314.027
314.094
314.158
314.22
314.28
314.336
314.389
314.417
314.379
314.091
313.29
313.352
313.413
313.473
313.533
313.591
313.647
313.703
313.758
313.815
313.872
313.932
313.988
314.043
314.098
314.152
314.205
314.257
314.308
314.357
314.405
314.452
314.496
314.537
314.552
314.469
313.273
313.336
313.398
313.459
313.531
313.601
313.669
313.736
313.802
313.867
313.932
313.995
314.046
314.096
314.145
314.194
314.241
314.288
314.333
314.378
314.422
314.465
314.507
314.548
314.581
314.577
313.261
313.323
313.384
313.445
313.513
313.58
313.646
313.711
313.775
313.838
313.899
313.959
314.01
314.06
314.109
314.157
314.204
314.25
314.296
314.34
314.384
314.427
314.469
314.51
314.549
314.575
313.254
313.315
313.375
313.435
313.496
313.557
313.618
313.677
313.736
313.794
313.85
313.906
313.958
314.009
314.059
314.108
314.157
314.204
314.25
314.296
314.341
314.385
314.428
314.469
314.51
314.54
313.25
313.31
313.37
313.429
313.486
313.543
313.6
313.656
313.711
313.766
313.819
313.872
313.925
313.976
314.027
314.077
314.126
314.174
314.221
314.267
314.312
314.357
314.4
314.443
314.483
314.517
313.247
313.306
313.365
313.424
313.48
313.536
313.591
313.646
313.7
313.754
313.807
313.859
313.911
313.962
314.013
314.062
314.111
314.159
314.206
314.253
314.298
314.343
314.386
314.429
314.471
314.507
313.244
313.303
313.361
313.419
313.476
313.532
313.587
313.642
313.696
313.749
313.802
313.854
313.905
313.956
314.006
314.056
314.104
314.152
314.199
314.245
314.29
314.335
314.379
314.422
314.464
314.503
313.241
313.3
313.358
313.415
313.472
313.528
313.583
313.638
313.692
313.745
313.798
313.85
313.901
313.951
314.001
314.05
314.098
314.146
314.192
314.238
314.284
314.328
314.372
314.415
314.458
314.499
313.238
313.297
313.355
313.412
313.468
313.524
313.579
313.634
313.688
313.741
313.793
313.845
313.896
313.946
313.995
314.044
314.092
314.14
314.186
314.232
314.277
314.322
314.366
314.409
314.451
314.494
313.236
313.294
313.352
313.409
313.465
313.521
313.576
313.63
313.683
313.736
313.788
313.84
313.89
313.941
313.99
314.038
314.086
314.134
314.18
314.226
314.271
314.316
314.36
314.403
314.445
314.488
313.234
313.292
313.35
313.407
313.463
313.518
313.573
313.627
313.68
313.732
313.784
313.835
313.886
313.936
313.985
314.034
314.081
314.129
314.175
314.221
314.266
314.31
314.354
314.397
314.44
314.482
313.232
313.291
313.348
313.405
313.461
313.516
313.57
313.624
313.677
313.729
313.781
313.832
313.882
313.932
313.981
314.029
314.077
314.124
314.171
314.216
314.261
314.306
314.35
314.393
314.435
314.478
313.231
313.289
313.346
313.403
313.459
313.514
313.568
313.621
313.674
313.727
313.778
313.829
313.879
313.929
313.978
314.026
314.074
314.121
314.167
314.213
314.258
314.302
314.346
314.389
314.432
314.474
313.23
313.288
313.345
313.401
313.457
313.512
313.566
313.619
313.672
313.724
313.776
313.826
313.877
313.926
313.975
314.023
314.071
314.117
314.164
314.209
314.254
314.299
314.342
314.386
314.428
314.47
313.229
313.287
313.344
313.4
313.456
313.51
313.564
313.618
313.67
313.722
313.774
313.824
313.874
313.924
313.972
314.021
314.068
314.115
314.161
314.207
314.251
314.296
314.34
314.383
314.425
314.467
313.228
313.286
313.343
313.399
313.454
313.509
313.563
313.616
313.669
313.721
313.772
313.823
313.873
313.922
313.971
314.019
314.066
314.113
314.159
314.204
314.249
314.294
314.337
314.381
314.423
314.465
313.227
313.285
313.342
313.398
313.454
313.508
313.562
313.616
313.668
313.72
313.771
313.822
313.872
313.921
313.97
314.018
314.065
314.112
314.158
314.204
314.248
314.293
314.337
314.38
314.422
314.465
)
;
        refGradient     nonuniform List<scalar> 
898
(
58.4634
58.8674
59.6419
60.6031
62.2538
65.8759
-3.27371
-0.0513323
0.428216
-1.51652
76.2182
74.6625
74.0361
73.8576
73.2384
72.6972
72.1508
71.5632
70.951
70.3527
69.7789
69.2208
68.6688
68.1197
67.5736
67.0149
58.6611
59.4446
61.0298
63.0515
65.524
69.1964
-1.58091
1.27743
1.61822
-0.628567
71.3496
68.3767
66.7299
66.2481
65.8305
65.8923
66.1401
66.4129
66.6376
66.789
66.852
66.8168
66.6831
66.4604
66.1617
65.7812
59.3348
60.6502
63.2713
66.411
70.8101
74.2388
-3.23136
-0.90645
-0.514876
-2.27946
74.4474
70.6619
66.3359
64.963
64.0663
63.8315
63.8583
64.0156
64.2305
64.4505
64.6314
64.743
64.7703
64.7102
64.5643
64.3196
61.3591
63.2184
66.3584
69.6779
82.5255
85.2223
13.4542
14.6762
14.9299
13.8592
80.9334
76.0269
61.6477
60.0424
60.4718
61.4946
62.389
63.0446
63.4852
63.7634
63.9223
63.9873
63.9719
63.878
63.7023
63.4235
64.7873
66.2549
68.2024
71.8445
57.8984
55.9648
58.4406
60.3306
61.9066
62.9116
63.4519
63.6837
63.656
63.4513
63.1379
62.7185
62.2141
61.6042
69.2658
69.306
69.1242
71.5979
60.2586
56.4354
57.7779
59.2549
60.4942
61.3196
61.7838
61.9425
61.8166
61.4306
60.953
60.3627
59.8305
59.3467
72.0217
70.4693
68.6775
70.0853
60.4229
56.463
57.4902
58.7896
59.9415
60.7892
61.3383
61.6058
61.6292
61.4909
61.2452
60.9005
60.6062
60.3581
72.6987
70.6601
68.2292
68.9471
60.3046
56.4614
57.5172
59.0373
60.4059
61.471
62.2085
62.6263
62.7917
62.7752
62.6133
62.4019
62.2051
62.0113
73.1646
71.1069
68.6605
69.2218
59.883
55.8877
57.0957
58.5182
59.9844
61.2304
62.1637
62.7387
63.0346
63.1177
63.082
62.995
62.8843
62.7427
73.0839
71.4642
69.6315
70.6912
58.8693
54.1531
55.496
56.9226
58.625
60.1146
61.2708
61.9851
62.3788
62.5875
62.6733
62.6781
62.6275
62.5219
70.8713
70.7646
70.4852
72.5462
57.2542
51.0774
51.7601
55.1952
57.4042
59.0502
60.1866
60.9343
61.4022
61.6677
61.7878
61.8067
61.7546
61.6379
66.9796
68.4822
70.574
74.0473
56.2371
52.5214
54.5296
56.6296
58.3011
59.4543
60.2077
60.6704
60.9214
61.0156
60.9952
60.8957
60.7417
60.5411
63.3657
65.2668
68.2421
71.9204
-3.09584
-0.274518
0.611035
1.21064
1.71192
2.05167
1.84442
-1.3185
64.1158
61.4015
61.3684
61.5685
61.6607
61.624
61.493
61.2984
61.0581
60.7823
60.4804
60.1651
59.8485
59.5417
60.9531
62.2659
64.8005
69.3488
-4.17679
-1.56852
-0.954602
-0.645825
-0.415009
-0.268394
-0.456725
-2.9418
68.3493
65.1401
64.1756
63.5326
62.9288
62.3392
61.7721
61.2342
60.7248
60.2406
59.7803
59.3504
58.9642
58.6527
59.8086
60.4692
62.1314
66.5843
-5.93668
-3.21465
-2.60305
-2.32414
-2.11926
-1.98904
-2.19261
-4.6893
67.4856
64.1116
63.0918
62.4585
61.8901
61.347
60.8264
60.3273
59.8466
59.3828
58.9391
58.531
58.1957
58.0916
59.3084
59.5986
60.5893
64.4432
-7.35203
-4.5591
-3.94968
-3.69692
-3.51912
-3.41386
-3.64695
-6.16666
66.6208
63.3407
62.4137
61.8603
61.3466
60.8306
60.3187
59.8169
59.3261
58.8469
58.3874
57.9741
57.6772
57.7899
59.0462
59.1858
59.8113
62.9801
-2.64195
-0.00262128
0.583617
0.821575
0.980788
1.06266
0.817019
-1.56709
65.0734
62.0727
61.2589
60.7983
60.3754
59.9394
59.494
59.0472
58.6013
58.1583
57.7303
57.3675
57.2393
58.4594
58.8833
58.9521
59.3463
61.667
12.076
14.2125
14.7144
14.9244
15.0539
15.1008
14.8652
12.9099
63.0804
60.7194
60.0655
59.6929
59.3529
58.996
58.6203
58.2333
57.839
57.4403
57.055
56.756
56.8217
59.2494
58.8169
58.8324
59.034
60.3812
32.8295
34.1688
34.4998
34.636
34.7039
34.6979
34.4923
33.2063
60.913
59.4141
58.9389
58.6411
58.3674
58.0802
57.7731
57.4503
57.1159
56.7743
56.4436
56.218
56.4666
59.8749
58.8351
58.8042
58.8463
59.3382
50.9441
51.4719
51.6006
51.6358
51.6253
51.5629
51.3947
50.7834
59.086
58.3881
58.0832
57.8548
57.6376
57.4092
57.1616
56.8957
56.6153
56.3264
56.0469
55.8779
56.2289
60.0229
58.8983
58.8337
58.7705
58.735
60.827
60.8129
60.7881
60.7407
60.6691
60.5683
60.4317
60.2643
57.9806
57.7829
57.5903
57.4075
57.2249
57.0337
56.8271
56.6038
56.3673
56.1264
55.9024
55.7786
56.1427
59.5257
58.9649
58.8805
58.7669
58.5401
62.9551
62.7349
62.6341
62.5408
62.4371
62.3195
62.1997
62.1906
57.5542
57.5349
57.3927
57.2336
57.07
56.9011
56.7222
56.5301
56.326
56.1175
55.928
55.8408
56.2174
59.4999
59.0155
58.9215
58.7937
58.5746
61.2484
61.0333
60.914
60.8055
60.6928
60.574
60.4599
60.4336
57.5318
57.4986
57.3652
57.214
57.0578
56.8991
56.736
56.5652
56.3859
56.2043
56.0429
55.9813
56.3625
59.5704
59.0492
58.9505
58.8225
58.6631
59.2392
59.0851
58.9682
58.8561
58.7422
58.6257
58.5104
58.4218
57.6122
57.5153
57.3762
57.2275
57.0753
56.9227
56.7699
56.6144
56.4545
56.2938
56.1513
56.0975
56.4454
59.4036
59.0719
58.9701
58.8431
58.7206
58.3169
58.1995
58.0843
57.9691
57.8536
57.7377
57.62
57.4922
57.6557
57.5191
57.3762
57.2301
57.0819
56.9342
56.7886
56.6442
56.4992
56.3551
56.2259
56.1677
56.4336
58.8083
59.0883
58.9835
58.8547
58.7381
58.2596
58.1459
58.0263
57.9054
57.786
57.668
57.548
57.4103
57.6418
57.4971
57.3547
57.2119
57.068
56.9248
56.7845
56.6476
56.5131
56.3809
56.2594
56.1868
56.3328
57.8581
59.1005
58.9929
58.8608
58.736
58.4605
58.336
58.2094
58.0825
57.9583
57.8373
57.7157
57.5819
57.6047
57.4666
57.3274
57.1883
57.0487
56.9098
56.7737
56.6419
56.5144
56.3904
56.2734
56.1838
56.2077
56.8821
59.1096
58.9995
58.8639
58.7305
58.5896
58.4545
58.3218
58.1899
58.0616
57.9376
57.8146
57.6853
57.5688
57.4378
57.3018
57.1658
57.0298
56.8947
56.762
56.6337
56.5102
56.391
56.2764
56.1732
56.1063
56.1787
59.1163
59.0042
58.8654
58.7266
58.611
58.4697
58.3329
58.1977
58.0664
57.9398
57.8153
57.6877
57.5418
57.4147
57.2813
57.1479
57.0151
56.8832
56.7536
56.6278
56.5067
56.3901
56.2771
56.1672
56.0539
55.8475
59.1213
59.0073
58.8658
58.7235
58.5889
58.4445
58.305
58.1679
58.0345
57.9056
57.7794
57.6515
57.5207
57.3951
57.2639
57.1327
57.0023
56.8732
56.7461
56.622
56.5022
56.3869
56.2755
56.1647
56.0397
55.7865
59.1251
59.0092
58.8651
58.7198
58.5682
58.4218
58.2806
58.1422
58.0074
57.8766
57.7487
57.62
57.5025
57.3777
57.2485
57.1193
56.9909
56.8639
56.7387
56.6162
56.4973
56.383
56.2732
56.1647
56.0444
55.8375
59.1278
59.0101
58.8633
58.7149
58.5578
58.4099
58.2675
58.1282
57.9923
57.86
57.7306
57.6011
57.4857
57.3615
57.234
57.1066
56.9799
56.8545
56.7307
56.6094
56.4915
56.3783
56.2699
56.1638
56.0507
55.8907
59.1296
59.01
58.8605
58.7093
58.5525
58.4033
58.2598
58.1199
57.9831
57.8496
57.7189
57.5889
57.4702
57.3463
57.2202
57.0945
56.9693
56.8451
56.7224
56.6023
56.4856
56.3736
56.2662
56.1615
56.0523
55.9124
59.1303
59.0086
58.8568
58.7029
58.5471
58.397
58.2527
58.112
57.9746
57.8402
57.7085
57.5782
57.4558
57.3319
57.2069
57.0825
56.9585
56.8354
56.7138
56.5948
56.4796
56.3687
56.262
56.1576
56.0489
55.9105
59.1292
59.0051
58.8509
58.6949
58.5393
58.3887
58.2435
58.1021