/*--------------------------------*- C++ -*----------------------------------*\
| =========                 |                                                 |
| \\      /  F ield         | OpenFOAM: The Open Source CFD Toolbox           |
|  \\    /   O peration     | Version:  v2012                                 |
|   \\  /    A nd           | Website:  www.openfoam.com                      |
|    \\/     M anipulation  |                                                 |
\*---------------------------------------------------------------------------*/
FoamFile
{
    version     2.0;
    format      ascii;
    class       volScalarField;
    location    "350/soil1";
    object      T;
}
// * * * * * * * * * * * * * * * * * * * * * * * * * * * * * * * * * * * * * //

dimensions      [0 0 0 1 0 0 0];


internalField   nonuniform List<scalar> 
57600
(
303.12
303.166
303.225
303.281
303.329
303.371
303.408
303.44
303.469
303.495
303.518
303.539
303.559
303.577
303.593
303.609
303.623
303.636
303.649
303.66
303.671
303.682
303.692
303.701
303.71
303.718
303.726
303.734
303.741
303.749
303.755
303.762
303.768
303.775
303.781
303.786
303.792
303.798
303.803
303.808
303.814
303.819
303.824
303.828
303.833
303.838
303.843
303.847
303.852
303.856
303.861
303.865
303.869
303.874
303.878
303.882
303.886
303.89
303.894
303.898
303.902
303.906
303.91
303.914
303.918
303.922
303.925
303.929
303.933
303.936
303.94
303.944
303.947
303.951
303.955
303.959
303.963
303.968
303.973
303.979
303.985
303.992
303.998
304.004
304.01
304.016
304.024
304.035
304.054
304.078
303.1
303.146
303.203
303.258
303.306
303.347
303.383
303.414
303.442
303.468
303.49
303.511
303.53
303.547
303.564
303.579
303.593
303.605
303.617
303.629
303.639
303.649
303.659
303.668
303.676
303.684
303.692
303.7
303.707
303.713
303.72
303.726
303.732
303.738
303.744
303.75
303.755
303.76
303.765
303.77
303.775
303.78
303.785
303.789
303.794
303.798
303.803
303.807
303.811
303.815
303.82
303.824
303.828
303.832
303.836
303.84
303.844
303.847
303.851
303.855
303.859
303.862
303.866
303.87
303.873
303.877
303.88
303.884
303.887
303.891
303.894
303.898
303.901
303.904
303.908
303.912
303.916
303.921
303.926
303.931
303.937
303.944
303.95
303.956
303.961
303.967
303.975
303.986
304.006
304.031
303.073
303.118
303.174
303.228
303.275
303.315
303.351
303.382
303.409
303.434
303.456
303.476
303.495
303.512
303.528
303.542
303.556
303.568
303.58
303.591
303.601
303.611
303.62
303.629
303.637
303.645
303.652
303.66
303.666
303.673
303.679
303.685
303.691
303.697
303.702
303.708
303.713
303.718
303.723
303.727
303.732
303.737
303.741
303.745
303.75
303.754
303.758
303.762
303.766
303.77
303.774
303.778
303.782
303.785
303.789
303.793
303.797
303.8
303.804
303.807
303.811
303.814
303.818
303.821
303.825
303.828
303.831
303.835
303.838
303.841
303.844
303.848
303.851
303.854
303.857
303.861
303.865
303.869
303.874
303.88
303.885
303.891
303.897
303.903
303.909
303.914
303.922
303.933
303.953
303.979
303.044
303.088
303.144
303.197
303.243
303.283
303.317
303.348
303.375
303.399
303.421
303.441
303.459
303.476
303.491
303.506
303.519
303.531
303.543
303.554
303.564
303.573
303.582
303.591
303.599
303.606
303.614
303.621
303.627
303.634
303.64
303.646
303.651
303.657
303.662
303.667
303.672
303.677
303.682
303.687
303.691
303.695
303.7
303.704
303.708
303.712
303.716
303.72
303.724
303.728
303.731
303.735
303.739
303.742
303.746
303.749
303.753
303.756
303.76
303.763
303.767
303.77
303.773
303.777
303.78
303.783
303.786
303.789
303.792
303.796
303.799
303.802
303.805
303.808
303.811
303.814
303.818
303.823
303.827
303.833
303.838
303.844
303.85
303.856
303.861
303.867
303.874
303.885
303.905
303.931
303.014
303.058
303.113
303.165
303.211
303.25
303.284
303.314
303.341
303.365
303.386
303.406
303.424
303.44
303.456
303.47
303.483
303.495
303.506
303.517
303.527
303.536
303.545
303.554
303.562
303.569
303.576
303.583
303.59
303.596
303.602
303.608
303.613
303.619
303.624
303.629
303.633
303.638
303.643
303.647
303.652
303.656
303.66
303.664
303.668
303.672
303.676
303.68
303.683
303.687
303.69
303.694
303.698
303.701
303.704
303.708
303.711
303.715
303.718
303.721
303.724
303.728
303.731
303.734
303.737
303.74
303.743
303.746
303.749
303.752
303.755
303.758
303.761
303.763
303.767
303.77
303.774
303.778
303.782
303.788
303.793
303.799
303.805
303.81
303.816
303.821
303.828
303.839
303.859
303.884
302.985
303.028
303.083
303.134
303.179
303.218
303.252
303.281
303.307
303.331
303.352
303.371
303.389
303.405
303.42
303.434
303.447
303.459
303.47
303.481
303.491
303.5
303.509
303.517
303.525
303.532
303.539
303.546
303.553
303.559
303.565
303.57
303.576
303.581
303.586
303.591
303.595
303.6
303.604
303.609
303.613
303.617
303.621
303.625
303.629
303.632
303.636
303.639
303.643
303.646
303.65
303.653
303.656
303.66
303.663
303.666
303.669
303.672
303.675
303.678
303.681
303.684
303.687
303.69
303.693
303.696
303.699
303.701
303.704
303.707
303.709
303.712
303.715
303.717
303.72
303.723
303.727
303.731
303.735
303.74
303.745
303.751
303.756
303.762
303.767
303.772
303.778
303.789
303.807
303.831
302.957
302.999
303.053
303.103
303.148
303.186
303.219
303.248
303.274
303.297
303.317
303.335
303.352
303.368
303.383
303.397
303.41
303.422
303.434
303.444
303.454
303.463
303.472
303.48
303.488
303.495
303.502
303.509
303.515
303.521
303.527
303.533
303.538
303.543
303.548
303.553
303.557
303.561
303.566
303.57
303.574
303.577
303.581
303.585
303.588
303.592
303.595
303.598
303.601
303.605
303.608
303.611
303.613
303.616
303.619
303.622
303.625
303.627
303.63
303.633
303.635
303.638
303.64
303.643
303.645
303.647
303.65
303.652
303.654
303.657
303.659
303.661
303.663
303.665
303.667
303.67
303.673
303.676
303.68
303.685
303.69
303.695
303.7
303.705
303.71
303.715
303.72
303.73
303.746
303.767
302.928
302.97
303.023
303.073
303.117
303.155
303.187
303.216
303.24
303.261
303.278
303.294
303.309
303.325
303.34
303.354
303.368
303.38
303.392
303.403
303.414
303.423
303.432
303.441
303.449
303.456
303.463
303.47
303.476
303.482
303.488
303.493
303.498
303.503
303.508
303.512
303.516
303.52
303.524
303.528
303.531
303.535
303.538
303.541
303.544
303.547
303.55
303.553
303.556
303.558
303.561
303.563
303.566
303.568
303.57
303.573
303.575
303.577
303.579
303.581
303.583
303.585
303.587
303.588
303.59
303.592
303.593
303.595
303.597
303.598
303.599
303.601
303.602
303.604
303.605
303.607
303.609
303.612
303.615
303.619
303.625
303.631
303.636
303.641
303.646
303.65
303.656
303.664
303.678
303.696
302.9
302.941
302.994
303.043
303.086
303.124
303.156
303.183
303.205
303.219
303.224
303.231
303.244
303.259
303.275
303.291
303.306
303.321
303.335
303.347
303.359
303.37
303.381
303.39
303.399
303.407
303.414
303.421
303.427
303.433
303.438
303.444
303.448
303.453
303.457
303.462
303.465
303.469
303.472
303.475
303.478
303.482
303.485
303.487
303.49
303.492
303.495
303.497
303.5
303.502
303.504
303.506
303.508
303.51
303.512
303.513
303.515
303.517
303.518
303.519
303.521
303.522
303.523
303.524
303.525
303.526
303.527
303.528
303.529
303.53
303.53
303.531
303.532
303.532
303.533
303.534
303.535
303.537
303.541
303.546
303.556
303.566
303.574
303.582
303.588
303.593
303.599
303.607
303.62
303.635
302.873
302.913
302.965
303.014
303.056
303.093
303.124
303.15
303.165
303.161
303.127
303.11
303.114
303.129
303.149
303.171
303.193
303.213
303.232
303.25
303.266
303.281
303.294
303.306
303.316
303.326
303.334
303.341
303.347
303.353
303.358
303.363
303.367
303.371
303.375
303.379
303.383
303.386
303.388
303.391
303.395
303.398
303.401
303.403
303.406
303.408
303.411
303.413
303.415
303.418
303.42
303.422
303.424
303.425
303.427
303.429
303.43
303.431
303.432
303.434
303.434
303.435
303.436
303.437
303.437
303.437
303.438
303.438
303.438
303.438
303.438
303.437
303.437
303.437
303.436
303.436
303.437
303.438
303.441
303.452
303.475
303.499
303.519
303.534
303.545
303.554
303.562
303.572
303.586
303.601
302.845
302.885
302.936
302.985
303.027
303.063
303.093
303.116
303.121
303.08
302.96
302.898
302.891
302.911
302.942
302.976
303.009
303.04
303.068
303.094
303.116
303.136
303.153
303.168
303.18
303.19
303.198
303.205
303.211
303.216
303.22
303.223
303.226
303.23
303.233
303.236
303.239
303.241
303.243
303.246
303.249
303.253
303.256
303.259
303.261
303.264
303.267
303.27
303.273
303.276
303.279
303.281
303.284
303.286
303.289
303.291
303.293
303.295
303.296
303.298
303.299
303.3
303.301
303.301
303.302
303.302
303.302
303.302
303.302
303.301
303.3
303.299
303.298
303.297
303.296
303.294
303.293
303.293
303.298
303.317
303.37
303.425
303.468
303.499
303.52
303.536
303.549
303.562
303.58
303.598
302.819
302.858
302.908
302.956
302.998
303.033
303.062
303.083
303.083
303.025
302.87
302.789
302.776
302.798
302.833
302.872
302.91
302.946
302.978
303.008
303.033
303.055
303.074
303.09
303.103
303.114
303.122
303.128
303.133
303.137
303.14
303.143
303.145
303.148
303.15
303.153
303.156
303.158
303.16
303.163
303.167
303.171
303.176
303.179
303.182
303.186
303.191
303.195
303.199
303.204
303.208
303.213
303.217
303.222
303.226
303.23
303.234
303.238
303.242
303.245
303.249
303.252
303.255
303.258
303.261
303.264
303.266
303.268
303.27
303.271
303.273
303.274
303.274
303.275
303.275
303.275
303.275
303.277
303.283
303.307
303.366
303.425
303.473
303.506
303.53
303.547
303.561
303.577
303.599
303.622
302.792
302.831
302.881
302.928
302.969
303.004
303.033
303.052
303.05
302.987
302.824
302.737
302.723
302.745
302.781
302.821
302.86
302.897
302.931
302.961
302.987
303.01
303.029
303.045
303.058
303.069
303.077
303.083
303.087
303.09
303.093
303.095
303.096
303.098
303.1
303.103
303.105
303.107
303.108
303.111
303.115
303.119
303.123
303.127
303.13
303.134
303.138
303.143
303.147
303.152
303.157
303.161
303.166
303.171
303.175
303.18
303.184
303.189
303.193
303.198
303.202
303.207
303.211
303.215
303.22
303.224
303.228
303.233
303.237
303.241
303.246
303.25
303.254
303.258
303.261
303.265
303.27
303.275
303.286
303.312
303.371
303.429
303.475
303.507
303.53
303.548
303.563
303.582
303.607
303.635
302.766
302.805
302.853
302.9
302.94
302.975
303.003
303.022
303.019
302.956
302.793
302.705
302.69
302.712
302.748
302.788
302.827
302.864
302.898
302.928
302.954
302.977
302.996
303.012
303.025
303.035
303.043
303.049
303.053
303.056
303.058
303.059
303.06
303.061
303.063
303.066
303.068
303.069
303.07
303.072
303.076
303.08
303.084
303.087
303.09
303.094
303.098
303.102
303.107
303.112
303.116
303.121
303.125
303.129
303.133
303.137
303.141
303.145
303.149
303.153
303.157
303.16
303.164
303.168
303.171
303.175
303.178
303.182
303.186
303.189
303.193
303.197
303.201
303.204
303.208
303.212
303.217
303.223
303.233
303.259
303.316
303.372
303.416
303.447
303.47
303.488
303.504
303.525
303.553
303.583
302.741
302.778
302.827
302.872
302.912
302.946
302.974
302.993
302.99
302.927
302.766
302.679
302.664
302.685
302.721
302.76
302.799
302.836
302.869
302.899
302.925
302.947
302.966
302.982
302.995
303.005
303.012
303.018
303.022
303.025
303.027
303.028
303.028
303.029
303.031
303.034
303.036
303.037
303.037
303.039
303.043
303.047
303.052
303.054
303.057
303.061
303.065
303.07
303.074
303.079
303.084
303.088
303.092
303.096
303.1
303.104
303.108
303.112
303.116
303.119
303.123
303.126
303.13
303.133
303.136
303.139
303.143
303.146
303.149
303.152
303.155
303.157
303.16
303.163
303.166
303.168
303.172
303.176
303.185
303.209
303.264
303.317
303.359
303.388
303.409
303.425
303.441
303.461
303.488
303.516
302.715
302.752
302.8
302.845
302.884
302.918
302.946
302.964
302.961
302.9
302.74
302.655
302.64
302.661
302.696
302.735
302.773
302.809
302.842
302.871
302.897
302.919
302.938
302.953
302.965
302.975
302.983
302.989
302.993
302.996
302.997
302.998
302.999
302.999
303.001
303.003
303.006
303.006
303.007
303.009
303.012
303.017
303.021
303.024
303.027
303.031
303.036
303.041
303.046
303.051
303.056
303.06
303.064
303.069
303.073
303.077
303.081
303.085
303.089
303.093
303.097
303.101
303.104
303.108
303.111
303.115
303.119
303.122
303.125
303.129
303.132
303.135
303.139
303.142
303.145
303.148
303.152
303.156
303.166
303.189
303.243
303.295
303.335
303.363
303.384
303.399
303.415
303.434
303.46
303.488
302.69
302.727
302.774
302.818
302.857
302.89
302.918
302.936
302.933
302.873
302.716
302.632
302.617
302.638
302.673
302.711
302.749
302.784
302.817
302.845
302.87
302.892
302.91
302.925
302.937
302.946
302.954
302.96
302.964
302.967
302.968
302.969
302.969
302.969
302.971
302.973
302.976
302.976
302.976
302.978
302.981
302.986
302.991
302.994
302.997
303.002
303.007
303.013
303.019
303.024
303.029
303.034
303.038
303.042
303.047
303.052
303.056
303.06
303.065
303.069
303.073
303.077
303.081
303.085
303.089
303.093
303.097
303.101
303.105
303.109
303.113
303.117
303.121
303.125
303.13
303.134
303.139
303.145
303.156
303.181
303.235
303.288
303.329
303.357
303.378
303.394
303.41
303.429
303.455
303.484
302.666
302.702
302.748
302.792
302.83
302.863
302.89
302.908
302.906
302.848
302.695
302.614
302.601
302.621
302.655
302.692
302.729
302.764
302.795
302.822
302.846
302.867
302.884
302.898
302.909
302.918
302.925
302.93
302.934
302.937
302.939
302.939
302.939
302.939
302.94
302.942
302.944
302.944
302.944
302.945
302.948
302.954
302.959
302.963
302.966
302.971
302.978
302.984
302.991
302.996
303.001
303.006
303.01
303.015
303.02
303.024
303.028
303.033
303.037
303.04
303.044
303.048
303.052
303.056
303.06
303.064
303.068
303.072
303.076
303.08
303.084
303.088
303.091
303.095
303.1
303.104
303.108
303.115
303.125
303.151
303.206
303.26
303.301
303.331
303.352
303.369
303.384
303.402
303.428
303.456
302.641
302.677
302.723
302.766
302.804
302.836
302.863
302.882
302.881
302.829
302.687
302.613
302.602
302.622
302.654
302.689
302.724
302.756
302.784
302.81
302.831
302.85
302.865
302.877
302.886
302.893
302.899
302.904
302.907
302.91
302.912
302.912
302.912
302.911
302.911
302.912
302.914
302.914
302.913
302.914
302.917
302.923
302.928
302.932
302.936
302.943
302.95
302.958
302.965
302.971
302.976
302.981
302.985
302.99
302.994
302.998
303.002
303.006
303.009
303.012
303.015
303.017
303.02
303.023
303.025
303.028
303.03
303.033
303.036
303.038
303.041
303.044
303.046
303.049
303.051
303.054
303.057
303.061
303.069
303.093
303.147
303.2
303.241
303.271
303.293
303.309
303.323
303.34
303.362
303.386
302.617
302.652
302.698
302.74
302.778
302.809
302.836
302.856
302.861
302.824
302.717
302.663
302.657
302.676
302.703
302.733
302.761
302.787
302.811
302.831
302.848
302.862
302.874
302.883
302.89
302.895
302.9
302.904
302.908
302.911
302.913
302.914
302.914
302.914
302.914
302.915
302.918
302.918
302.917
302.918
302.921
302.925
302.931
302.935
302.939
302.945
302.953
302.961
302.968
302.974
302.979
302.983
302.988
302.992
302.997
303
303.003
303.006
303.008
303.01
303.011
303.013
303.014
303.015
303.016
303.017
303.018
303.019
303.02
303.021
303.022
303.023
303.024
303.025
303.026
303.027
303.028
303.03
303.036
303.055
303.101
303.147
303.183
303.21
303.228
303.243
303.255
303.269
303.287
303.307
302.594
302.628
302.673
302.715
302.752
302.783
302.81
302.832
302.845
302.841
302.812
302.799
302.804
302.819
302.837
302.856
302.874
302.891
302.906
302.919
302.931
302.941
302.95
302.958
302.965
302.97
302.976
302.981
302.986
302.992
302.997
303
303.002
303.003
303.005
303.008
303.012
303.013
303.013
303.014
303.017
303.02
303.025
303.026
303.028
303.033
303.039
303.044
303.048
303.051
303.053
303.056
303.059
303.063
303.066
303.069
303.071
303.074
303.075
303.077
303.079
303.08
303.081
303.082
303.083
303.084
303.085
303.086
303.086
303.087
303.088
303.088
303.089
303.09
303.09
303.091
303.093
303.095
303.099
303.108
303.128
303.149
303.166
303.18
303.189
303.197
303.205
303.215
303.229
303.244
302.571
302.604
302.648
302.69
302.726
302.757
302.784
302.807
302.826
302.837
302.842
302.849
302.86
302.873
302.887
302.901
302.914
302.926
302.937
302.947
302.957
302.965
302.973
302.98
302.987
302.992
302.998
303.004
303.01
303.016
303.023
303.028
303.031
303.034
303.036
303.04
303.045
303.048
303.049
303.05
303.052
303.054
303.057
303.057
303.057
303.061
303.066
303.069
303.071
303.072
303.073
303.075
303.078
303.081
303.084
303.087
303.089
303.091
303.093
303.095
303.097
303.098
303.1
303.101
303.102
303.103
303.105
303.106
303.107
303.107
303.108
303.109
303.11
303.111
303.111
303.113
303.114
303.116
303.119
303.124
303.133
303.141
303.149
303.156
303.161
303.166
303.171
303.179
303.191
303.205
302.547
302.581
302.624
302.665
302.701
302.732
302.758
302.781
302.802
302.818
302.832
302.846
302.859
302.872
302.885
302.897
302.908
302.919
302.929
302.938
302.946
302.954
302.962
302.969
302.975
302.981
302.986
302.992
302.998
303.005
303.012
303.018
303.022
303.026
303.029
303.034
303.04
303.043
303.045
303.046
303.046
303.046
303.047
303.046
303.046
303.048
303.052
303.054
303.055
303.056
303.056
303.059
303.062
303.065
303.068
303.071
303.073
303.076
303.078
303.08
303.082
303.084
303.086
303.088
303.089
303.091
303.092
303.093
303.094
303.096
303.097
303.098
303.099
303.1
303.102
303.103
303.105
303.107
303.11
303.114
303.119
303.124
303.13
303.134
303.138
303.143
303.147
303.155
303.167
303.183
302.524
302.557
302.6
302.64
302.676
302.706
302.732
302.755
302.776
302.794
302.81
302.825
302.839
302.852
302.865
302.876
302.887
302.897
302.906
302.915
302.923
302.931
302.938
302.945
302.951
302.958
302.963
302.969
302.975
302.982
302.988
302.995
303
303.004
303.008
303.013
303.02
303.024
303.025
303.025
303.023
303.02
303.018
303.015
303.013
303.014
303.016
303.018
303.018
303.018
303.018
303.021
303.023
303.026
303.029
303.032
303.034
303.037
303.039
303.041
303.043
303.045
303.047
303.049
303.05
303.052
303.054
303.055
303.057
303.059
303.06
303.062
303.063
303.065
303.067
303.069
303.072
303.075
303.078
303.083
303.087
303.093
303.098
303.102
303.107
303.111
303.116
303.124
303.138
303.154
302.502
302.534
302.576
302.616
302.65
302.68
302.706
302.729
302.75
302.768
302.785
302.8
302.814
302.827
302.839
302.85
302.861
302.87
302.88
302.888
302.896
302.904
302.911
302.918
302.925
302.931
302.937
302.943
302.949
302.955
302.962
302.969
302.974
302.979
302.983
302.988
302.995
302.999
302.998
302.994
302.986
302.978
302.971
302.964
302.959
302.958
302.959
302.958
302.957
302.956
302.957
302.958
302.96
302.962
302.964
302.966
302.968
302.97
302.972
302.974
302.976
302.978
302.98
302.982
302.985
302.987
302.989
302.991
302.994
302.996
302.999
303.001
303.004
303.007
303.01
303.013
303.016
303.02
303.025
303.03
303.036
303.041
303.047
303.053
303.058
303.063
303.069
303.077
303.091
303.108
302.479
302.511
302.552
302.591
302.626
302.655
302.681
302.704
302.724
302.742
302.758
302.773
302.787
302.8
302.812
302.823
302.834
302.844
302.853
302.861
302.869
302.877
302.884
302.891
302.898
302.904
302.911
302.917
302.923
302.93
302.936
302.943
302.949
302.953
302.958
302.963
302.969
302.969
302.962
302.948
302.929
302.909
302.893
302.881
302.872
302.868
302.867
302.865
302.863
302.862
302.863
302.864
302.866
302.868
302.87
302.872
302.875
302.878
302.881
302.884
302.888
302.891
302.894
302.898
302.901
302.905
302.909
302.913
302.916
302.92
302.924
302.928
302.932
302.936
302.94
302.945
302.949
302.954
302.96
302.965
302.972
302.978
302.984
302.99
302.996
303.001
303.007
303.016
303.029
303.045
302.457
302.489
302.529
302.568
302.602
302.631
302.656
302.679
302.699
302.717
302.733
302.748
302.761
302.774
302.786
302.797
302.808
302.817
302.826
302.835
302.843
302.85
302.857
302.864
302.871
302.878
302.884
302.891
302.898
302.905
302.912
302.919
302.925
302.93
302.934
302.938
302.94
302.931
302.902
302.863
302.822
302.788
302.767
302.752
302.743
302.74
302.74
302.741
302.743
302.746
302.749
302.754
302.758
302.763
302.769
302.775
302.78
302.786
302.792
302.798
302.803
302.808
302.814
302.819
302.824
302.83
302.835
302.84
302.845
302.85
302.855
302.86
302.864
302.869
302.873
302.878
302.883
302.888
302.894
302.9
302.906
302.913
302.919
302.925
302.93
302.935
302.941
302.949
302.96
302.974
302.437
302.468
302.508
302.546
302.58
302.608
302.633
302.655
302.675
302.693
302.709
302.723
302.737
302.75
302.762
302.773
302.783
302.792
302.802
302.81
302.818
302.826
302.833
302.839
302.846
302.853
302.859
302.867
302.874
302.882
302.889
302.897
302.903
302.909
302.913
302.915
302.909
302.878
302.811
302.73
302.663
302.621
302.603
302.598
302.6
302.607
302.617
302.627
302.637
302.647
302.656
302.666
302.675
302.685
302.694
302.703
302.712
302.72
302.727
302.734
302.741
302.748
302.754
302.761
302.767
302.772
302.778
302.783
302.789
302.794
302.798
302.803
302.807
302.812
302.816
302.82
302.825
302.829
302.834
302.84
302.845
302.851
302.857
302.862
302.867
302.871
302.876
302.883
302.893
302.905
302.419
302.449
302.489
302.527
302.56
302.588
302.613
302.634
302.654
302.671
302.687
302.702
302.715
302.728
302.74
302.751
302.761
302.77
302.779
302.788
302.796
302.804
302.811
302.818
302.824
302.831
302.837
302.844
302.852
302.86
302.868
302.876
302.884
302.891
302.896
302.894
302.868
302.773
302.569
302.419
302.343
302.341
302.417
302.465
302.491
302.513
302.533
302.552
302.57
302.586
302.601
302.614
302.627
302.639
302.651
302.661
302.671
302.68
302.688
302.695
302.703
302.709
302.716
302.722
302.728
302.733
302.738
302.743
302.748
302.752
302.756
302.76
302.763
302.767
302.77
302.773
302.777
302.78
302.785
302.789
302.794
302.799
302.804
302.808
302.812
302.816
302.82
302.826
302.835
302.846
302.404
302.434
302.473
302.51
302.543
302.571
302.596
302.617
302.636
302.654
302.67
302.684
302.697
302.71
302.722
302.733
302.743
302.752
302.761
302.77
302.778
302.786
302.793
302.8
302.807
302.813
302.82
302.827
302.834
302.842
302.85
302.859
302.868
302.876
302.882
302.874
302.821
302.631
302.22
301.996
301.928
302.004
302.254
302.38
302.433
302.465
302.489
302.512
302.532
302.551
302.568
302.584
302.599
302.613
302.625
302.637
302.647
302.657
302.665
302.673
302.681
302.688
302.694
302.7
302.706
302.711
302.715
302.72
302.723
302.727
302.73
302.733
302.735
302.737
302.739
302.742
302.744
302.747
302.749
302.753
302.757
302.761
302.765
302.768
302.772
302.775
302.778
302.784
302.791
302.801
302.392
302.422
302.461
302.498
302.531
302.559
302.583
302.604
302.623
302.641
302.656
302.671
302.684
302.697
302.708
302.719
302.729
302.739
302.748
302.757
302.765
302.773
302.78
302.788
302.795
302.802
302.809
302.816
302.823
302.83
302.837
302.845
302.855
302.864
302.87
302.857
302.778
302.506
301.914
301.63
301.576
301.729
302.145
302.345
302.417
302.451
302.474
302.494
302.513
302.531
302.549
302.565
302.581
302.596
302.61
302.622
302.634
302.645
302.655
302.664
302.673
302.681
302.688
302.694
302.7
302.705
302.71
302.714
302.718
302.721
302.723
302.725
302.727
302.728
302.729
302.73
302.731
302.732
302.733
302.735
302.738
302.741
302.743
302.746
302.748
302.75
302.753
302.757
302.765
302.773
302.385
302.414
302.453
302.49
302.522
302.55
302.574
302.596
302.615
302.632
302.648
302.662
302.676
302.688
302.7
302.711
302.721
302.731
302.74
302.749
302.757
302.765
302.773
302.782
302.79
302.798
302.805
302.812
302.818
302.824
302.83
302.837
302.843
302.851
302.855
302.837
302.743
302.425
301.738
301.425
301.385
301.595
302.121
302.368
302.449
302.477
302.491
302.503
302.515
302.528
302.542
302.557
302.572
302.587
302.601
302.614
302.627
302.641
302.655
302.667
302.677
302.686
302.694
302.702
302.709
302.716
302.722
302.727
302.731
302.735
302.737
302.739
302.74
302.74
302.74
302.74
302.739
302.739
302.738
302.739
302.739
302.741
302.742
302.743
302.744
302.745
302.746
302.749
302.756
302.764
302.381
302.41
302.449
302.486
302.518
302.546
302.57
302.591
302.61
302.628
302.644
302.658
302.672
302.684
302.696
302.707
302.718
302.728
302.737
302.746
302.754
302.763
302.772
302.781
302.791
302.8
302.808
302.814
302.819
302.824
302.827
302.829
302.826
302.829
302.828
302.803
302.701
302.37
301.662
301.345
301.321
301.575
302.185
302.463
302.541
302.556
302.553
302.55
302.55
302.553
302.559
302.568
302.579
302.59
302.602
302.614
302.627
302.643
302.664
302.679
302.691
302.702
302.712
302.721
302.73
302.739
302.747
302.754
302.76
302.765
302.768
302.771
302.771
302.771
302.77
302.768
302.766
302.764
302.762
302.761
302.76
302.759
302.759
302.758
302.758
302.757
302.757
302.759
302.764
302.772
302.38
302.409
302.448
302.485
302.517
302.544
302.568
302.59
302.609
302.626
302.642
302.657
302.67
302.683
302.695
302.706
302.717
302.727
302.737
302.746
302.755
302.764
302.774
302.784
302.795
302.806
302.814
302.82
302.823
302.824
302.824
302.82
302.809
302.802
302.791
302.753
302.642
302.309
301.61
301.301
301.291
301.574
302.24
302.55
302.642
302.656
302.646
302.633
302.623
302.616
302.613
302.613
302.616
302.622
302.628
302.637
302.647
302.662
302.685
302.701
302.714
302.725
302.737
302.749
302.76
302.771
302.781
302.79
302.797
302.802
302.806
302.807
302.807
302.805
302.803
302.8
302.796
302.793
302.79
302.788
302.786
302.784
302.783
302.782
302.78
302.779
302.778
302.78
302.785
302.794
302.38
302.41
302.448
302.485
302.517
302.545
302.569
302.59
302.609
302.626
302.642
302.657
302.67
302.683
302.695
302.707
302.717
302.728
302.737
302.747
302.756
302.766
302.777
302.789
302.801
302.812
302.82
302.824
302.823
302.818
302.811
302.799
302.778
302.757
302.724
302.655
302.5
302.159
301.489
301.197
301.195
301.485
302.165
302.513
302.664
302.709
302.707
302.694
302.68
302.669
302.662
302.658
302.657
302.658
302.66
302.666
302.674
302.688
302.711
302.729
302.743
302.757
302.77
302.783
302.796
302.806
302.815
302.821
302.824
302.826
302.827
302.825
302.823
302.821
302.818
302.815
302.812
302.809
302.807
302.805
302.804
302.803
302.802
302.801
302.8
302.799
302.799
302.8
302.806
302.815
302.381
302.411
302.449
302.486
302.518
302.546
302.57
302.591
302.61
302.628
302.643
302.658
302.671
302.684
302.696
302.707
302.718
302.728
302.738
302.748
302.758
302.768
302.779
302.791
302.804
302.814
302.819
302.817
302.808
302.794
302.778
302.756
302.724
302.686
302.614
302.445
302.093
301.706
301.147
300.91
300.912
301.163
301.764
302.191
302.571
302.725
302.752
302.738
302.719
302.705
302.695
302.69
302.687
302.686
302.689
302.695
302.705
302.721
302.746
302.764
302.78
302.793
302.804
302.813
302.818
302.822
302.824
302.824
302.824
302.823
302.822
302.821
302.819
302.817
302.816
302.814
302.813
302.812
302.811
302.811
302.811
302.811
302.811
302.811
302.811
302.81
302.811
302.813
302.819
302.828
302.382
302.412
302.45
302.487
302.519
302.547
302.571
302.592
302.612
302.629
302.644
302.659
302.672
302.685
302.697
302.709
302.719
302.73
302.74
302.75
302.759
302.77
302.781
302.792
302.802
302.806
302.796
302.777
302.753
302.729
302.708
302.684
302.649
302.6
302.47
302.077
301.18
300.642
300.294
300.155
300.159
300.309
300.688
301.281
302.267
302.671
302.762
302.758
302.739
302.724
302.716
302.712
302.712
302.715
302.719
302.727
302.739
302.756
302.78
302.795
302.802
302.806
302.807
302.808
302.808
302.807
302.806
302.806
302.805
302.805
302.805
302.805
302.804
302.804
302.804
302.804
302.804
302.805
302.805
302.806
302.808
302.81
302.811
302.812
302.812
302.813
302.814
302.816
302.823
302.831
302.382
302.412
302.451
302.488
302.52
302.548
302.572
302.593
302.612
302.629
302.645
302.66
302.673
302.686
302.698
302.709
302.72
302.731
302.741
302.751
302.761
302.771
302.782
302.791
302.794
302.78
302.742
302.692
302.647
302.618
302.602
302.592
302.572
302.533
302.386
301.884
300.728
300.102
299.832
299.739
299.742
299.843
300.136
300.818
302.079
302.621
302.758
302.769
302.754
302.74
302.733
302.732
302.734
302.737
302.742
302.746
302.752
302.762
302.778
302.784
302.785
302.785
302.784
302.783
302.782
302.781
302.781
302.782
302.783
302.784
302.785
302.786
302.787
302.788
302.789
302.79
302.791
302.793
302.795
302.797
302.799
302.802
302.804
302.806
302.807
302.808
302.809
302.812
302.819
302.827
302.382
302.412
302.45
302.487
302.519
302.547
302.571
302.593
302.612
302.629
302.645
302.659
302.673
302.686
302.698
302.709
302.72
302.731
302.741
302.751
302.761
302.771
302.78
302.784
302.766
302.69
302.522
302.404
302.349
302.363
302.449
302.497
302.509
302.491
302.351
301.817
300.574
299.912
299.659
299.58
299.582
299.667
299.94
300.656
302.002
302.593
302.75
302.768
302.755
302.74
302.73
302.726
302.725
302.725
302.727
302.729
302.731
302.738
302.751
302.756
302.757
302.757
302.757
302.757
302.758
302.759
302.76
302.762
302.764
302.767
302.769
302.771
302.773
302.775
302.777
302.779
302.781
302.783
302.786
302.788
302.791
302.794
302.797
302.799
302.801
302.802
302.803
302.806
302.812
302.82
302.382
302.411
302.45
302.487
302.519
302.547
302.571
302.592
302.611
302.628
302.644
302.659
302.672
302.685
302.697
302.709
302.72
302.73
302.741
302.751
302.761
302.77
302.777
302.772
302.723
302.548
302.165
301.964
301.914
302.009
302.286
302.424
302.471
302.468
302.337
301.797
300.53
299.855
299.604
299.529
299.531
299.612
299.882
300.608
301.978
302.583
302.745
302.763
302.747
302.728
302.715
302.706
302.702
302.701
302.702
302.703
302.707
302.714
302.729
302.736
302.738
302.74
302.741
302.742
302.744
302.746
302.749
302.752
302.754
302.757
302.76
302.763
302.766
302.768
302.771
302.773
302.776
302.778
302.781
302.784
302.788
302.791
302.794
302.796
302.798
302.799
302.8
302.803
302.809
302.816
302.381
302.41
302.449
302.486
302.518
302.546
302.57
302.591
302.61
302.627
302.643
302.658
302.671
302.684
302.696
302.708
302.719
302.729
302.74
302.75
302.76
302.769
302.773
302.759
302.681
302.413
301.832
301.559
301.519
301.697
302.156
302.377
302.449
302.454
302.323
301.785
300.518
299.844
299.596
299.522
299.523
299.604
299.872
300.601
301.978
302.587
302.749
302.765
302.746
302.724
302.707
302.696
302.69
302.688
302.689
302.692
302.697
302.706
302.723
302.732
302.735
302.737
302.739
302.74
302.742
302.745
302.747
302.75
302.753
302.756
302.759
302.762
302.765
302.768
302.771
302.774
302.777
302.78
302.783
302.787
302.79
302.794
302.797
302.799
302.801
302.802
302.803
302.806
302.812
302.819
302.381
302.41
302.449
302.485
302.518
302.545