/*--------------------------------*- C++ -*----------------------------------*\
| =========                 |                                                 |
| \\      /  F ield         | OpenFOAM: The Open Source CFD Toolbox           |
|  \\    /   O peration     | Version:  v2012                                 |
|   \\  /    A nd           | Website:  www.openfoam.com                      |
|    \\/     M anipulation  |                                                 |
\*---------------------------------------------------------------------------*/
FoamFile
{
    version     2.0;
    format      ascii;
    class       volScalarField;
    location    "550/concrete";
    object      T;
}
// * * * * * * * * * * * * * * * * * * * * * * * * * * * * * * * * * * * * * //

dimensions      [0 0 0 1 0 0 0];


internalField   nonuniform List<scalar> 
1924
(
326.079
326.152
326.216
326.173
326.042
324.81
312.067
310.775
310.667
311.616
322.879
323.723
323.635
323.523
323.405
323.353
323.352
323.388
323.454
323.544
323.653
323.773
323.897
324.019
324.14
324.267
326.006
326.015
325.994
325.85
325.738
324.551
312.097
310.841
310.793
311.925
324.162
325.254
325.166
324.997
324.773
324.597
324.456
324.347
324.273
324.236
324.232
324.255
324.297
324.353
324.421
324.51
325.792
325.659
325.465
325.245
325.297
324.176
311.583
310.298
310.274
311.523
324.348
325.598
325.437
325.315
325.153
325.038
324.944
324.861
324.789
324.733
324.695
324.674
324.67
324.684
324.714
324.772
325.324
325.028
324.632
324.29
323.83
322.706
311.996
310.844
310.829
312.036
323.775
325.45
326.055
326.055
325.757
325.467
325.239
325.075
324.966
324.895
324.85
324.828
324.827
324.847
324.89
324.965
324.56
324.256
323.777
322.275
303.444
300.436
298.594
298.09
298.098
298.648
300.674
304.055
325.161
326.335
325.986
325.626
325.326
325.09
324.975
324.936
324.947
324.989
325.059
325.159
325.286
325.448
323.73
323.705
323.596
322.054
300.659
297.184
296.195
295.907
295.916
296.234
297.317
301.127
324.561
326.308
326.148
325.846
325.589
325.411
325.312
325.287
325.326
325.396
325.475
325.574
325.673
325.772
323.156
323.429
323.611
322.209
300.121
296.493
295.6
295.363
295.37
295.632
296.602
300.537
324.424
326.291
326.206
325.934
325.687
325.503
325.384
325.325
325.315
325.333
325.368
325.42
325.469
325.523
322.955
323.338
323.646
322.354
300.006
296.325
295.442
295.216
295.222
295.472
296.429
300.402
324.4
326.283
326.199
325.888
325.598
325.373
325.217
325.126
325.085
325.079
325.098
325.13
325.165
325.211
322.828
323.221
323.531
322.265
299.973
296.3
295.423
295.2
295.206
295.452
296.408
300.395
324.46
326.373
326.265
325.961
325.645
325.384
325.193
325.076
325.013
324.992
324.994
325.008
325.031
325.071
322.84
323.141
323.327
321.978
299.985
296.37
295.512
295.295
295.301
295.542
296.488
300.473
324.649
326.67
326.542
326.222
325.864
325.559
325.329
325.19
325.111
325.069
325.052
325.053
325.068
325.105
323.272
323.284
323.174
321.664
300.188
296.71
295.896
295.69
295.691
295.916
296.822
300.735
324.949
327.147
327.083
326.502
326.062
325.733
325.507
325.361
325.272
325.223
325.202
325.203
325.22
325.26
324.019
323.733
323.212
321.537
301.354
298.262
297.552
297.36
297.342
297.514
298.285
301.811
325.061
326.818
326.602
326.213
325.881
325.646
325.493
325.401
325.354
325.338
325.346
325.37
325.407
325.461
324.728
324.359
323.677
322.18
309.767
308.18
307.708
307.47
307.323
307.293
307.6
309.365
323.679
325.164
325.329
325.303
325.267
325.255
325.266
325.296
325.339
325.392
325.452
325.516
325.583
325.655
325.211
324.941
324.331
322.762
310.652
309.286
308.936
308.785
308.708
308.716
308.959
310.321
322.972
324.413
324.756
324.906
325.015
325.117
325.216
325.314
325.41
325.503
325.594
325.68
325.76
325.83
325.46
325.306
324.852
323.315
310.734
309.38
309.069
308.945
308.885
308.892
309.105
310.394
323.112
324.534
324.889
325.056
325.175
325.279
325.38
325.477
325.573
325.666
325.757
325.842
325.911
325.926
325.586
325.497
325.17
323.747
310.862
309.505
309.212
309.103
309.052
309.062
309.262
310.524
323.311
324.685
325.014
325.171
325.285
325.387
325.486
325.584
325.682
325.778
325.871
325.954
326.008
325.978
325.661
325.598
325.353
324.119
312.164
310.913
310.65
310.556
310.514
310.526
310.708
311.863
323.703
324.947
325.234
325.37
325.471
325.561
325.648
325.736
325.824
325.913
325.999
326.069
326.074
325.727
325.711
325.662
325.488
324.557
315.357
314.384
314.179
314.107
314.078
314.092
314.238
315.14
324.282
325.248
325.473
325.583
325.668
325.745
325.82
325.896
325.973
326.051
326.126
326.175
326.104
325.299
325.735
325.703
325.6
325.047
319.724
319.14
319.015
318.974
318.963
318.979
319.081
319.637
324.955
325.552
325.705
325.788
325.857
325.921
325.984
326.048
326.113
326.179
326.24
326.267
326.124
324.929
325.738
325.721
325.682
325.468
323.631
323.403
323.355
323.345
323.351
323.372
323.432
323.673
325.537
325.796
325.885
325.944
325.997
326.05
326.102
326.155
326.209
326.264
326.314
326.323
326.139
324.763
325.728
325.724
325.727
325.722
325.915
325.908
325.911
325.923
325.941
325.965
325.998
326.044
325.895
325.945
325.991
326.034
326.077
326.121
326.166
326.211
326.257
326.303
326.341
326.338
326.138
324.781
325.714
325.718
325.741
325.812
326.569
326.643
326.669
326.692
326.716
326.741
326.763
326.739
326.032
326.009
326.036
326.069
326.106
326.146
326.186
326.227
326.267
326.306
326.336
326.323
326.118
324.773
325.704
325.711
325.738
325.806
326.338
326.407
326.438
326.464
326.489
326.514
326.535
326.518
326.038
326.021
326.044
326.075
326.108
326.145
326.183
326.221
326.258
326.292
326.316
326.298
326.093
324.774
325.696
325.705
325.731
325.774
325.954
325.997
326.025
326.051
326.076
326.101
326.124
326.133
326.007
326.017
326.043
326.073
326.105
326.139
326.175
326.211
326.246
326.278
326.299
326.281
326.093
324.876
325.691
325.701
325.726
325.753
325.749
325.774
325.8
325.825
325.85
325.876
325.902
325.928
325.988
326.016
326.044
326.073
326.104
326.136
326.17
326.204
326.238
326.268
326.289
326.277
326.128
325.148
325.688
325.699
325.725
325.749
325.717
325.739
325.764
325.79
325.815
325.842
325.869
325.9
325.988
326.02
326.048
326.077
326.106
326.137
326.169
326.202
326.234
326.263
326.285
326.284
326.19
325.553
325.685
325.697
325.724
325.752
325.752
325.776
325.801
325.827
325.854
325.881
325.909
325.939
325.996
326.027
326.054
326.082
326.11
326.139
326.17
326.2
326.231
326.26
326.284
326.294
326.256
325.961
325.684
325.697
325.725
325.755
325.781
325.807
325.834
325.861
325.887
325.915
325.943
325.972
326.004
326.033
326.06
326.087
326.114
326.142
326.171
326.2
326.229
326.257
326.283
326.302
326.306
326.254
325.682
325.697
325.726
325.758
325.791
325.819
325.846
325.873
325.9
325.928
325.956
325.984
326.01
326.038
326.065
326.091
326.117
326.144
326.172
326.199
326.227
326.255
326.281
326.305
326.331
326.395
325.682
325.697
325.727
325.76
325.791
325.819
325.847
325.875
325.902
325.93
325.959
325.986
326.015
326.043
326.069
326.095
326.12
326.146
326.173
326.199
326.226
326.253
326.279
326.305
326.338
326.423
325.682
325.698
325.729
325.761
325.79
325.818
325.847
325.875
325.903
325.931
325.96
325.988
326.018
326.047
326.073
326.098
326.123
326.148
326.174
326.2
326.225
326.251
326.277
326.304
326.336
326.404
325.682
325.699
325.73
325.762
325.791
325.82
325.849
325.877
325.906
325.934
325.962
325.99
326.022
326.05
326.077
326.102
326.127
326.151
326.176
326.201
326.226
326.251
326.276
326.302
326.332
326.383
325.683
325.7
325.731
325.764
325.793
325.822
325.852
325.881
325.91
325.938
325.966
325.994
326.025
326.054
326.08
326.105
326.13
326.154
326.178
326.202
326.227
326.251
326.276
326.302
326.33
326.373
325.684
325.702
325.733
325.765
325.795
325.825
325.855
325.885
325.914
325.942
325.97
325.998
326.028
326.057
326.083
326.109
326.133
326.157
326.181
326.204
326.228
326.253
326.277
326.302
326.33
326.372
325.686
325.704
325.735
325.767
325.798
325.829
325.859
325.889
325.918
325.947
325.975
326.003
326.032
326.06
326.087
326.113
326.137
326.161
326.185
326.208
326.232
326.256
326.28
326.305
326.332
326.375
325.691
325.708
325.74
325.772
325.804
325.835
325.866
325.896
325.925
325.954
325.983
326.01
326.039
326.067
326.093
326.119
326.144
326.168
326.192
326.215
326.239
326.263
326.286
326.311
326.338
326.38
325.708
325.729
325.761
325.794
325.826
325.858
325.889
325.919
325.949
325.978
326.006
326.034
326.062
326.09
326.116
326.142
326.168
326.192
326.216
326.239
326.263
326.286
326.31
326.334
326.36
326.399
327.646
327.735
327.817
327.787
327.746
326.885
312.202
311.259
311.158
311.787
324.799
325.271
325.073
324.925
324.783
324.722
324.72
324.758
324.83
324.929
325.048
325.179
325.314
325.447
325.576
325.707
327.585
327.609
327.601
327.46
327.446
326.632
312.303
311.39
311.345
312.14
326.261
326.992
326.788
326.581
326.324
326.125
325.966
325.841
325.754
325.709
325.7
325.722
325.764
325.822
325.892
325.978
327.367
327.239
327.043
326.836
327.083
326.353
311.765
310.797
310.772
311.69
326.537
327.404
327.029
326.857
326.676
326.563
326.47
326.386
326.311
326.25
326.206
326.18
326.172
326.182
326.211
326.261
326.875
326.567
326.161
325.947
326.195
325.519
312.969
312.05
312.028
312.977
326.757
328.047
327.894
327.723
327.355
327.029
326.781
326.606
326.489
326.411
326.361
326.333
326.326
326.342
326.381
326.449
326.051
325.74
325.309
324.311
302.1
299.444
297.821
297.39
297.397
297.866
299.652
302.641
327.581
328.123
327.599
327.184
326.852
326.59
326.468
326.429
326.442
326.487
326.56
326.666
326.803
326.973
325.149
325.155
325.188
324.327
299.625
296.56
295.714
295.47
295.476
295.747
296.674
300.035
327.089
328.122
327.782
327.427
327.146
326.959
326.855
326.834
326.884
326.967
327.051
327.159
327.266
327.363
324.536
324.873
325.238
324.586
299.167
295.969
295.207
295.005
295.011
295.233
296.062
299.53
327
328.112
327.842
327.518
327.249
327.055
326.931
326.871
326.864
326.885
326.923
326.978
327.027
327.074
324.343
324.79
325.292
324.781
299.071
295.827
295.072
294.88
294.885
295.097
295.915
299.415
326.988
328.1
327.826
327.453
327.135
326.894
326.729
326.635
326.593
326.588
326.61
326.644
326.679
326.72
324.211
324.664
325.166
324.685
299.042
295.805
295.056
294.866
294.872
295.081
295.897
299.41
327.051
328.193
327.888
327.526
327.181
326.901
326.697
326.574
326.508
326.487
326.491
326.506
326.529
326.563
324.215
324.569
324.935
324.348
299.051
295.865
295.132
294.947
294.952
295.157
295.965
299.477
327.253
328.522
328.19
327.818
327.425
327.096
326.848
326.699
326.617
326.572
326.554
326.554
326.568
326.598
324.685
324.716
324.749
323.954
299.223
296.156
295.46
295.284
295.286
295.476
296.251
299.702
327.577
329.087
328.846
328.146
327.656
327.297
327.052
326.895
326.798
326.744
326.72
326.719
326.735
326.768
325.505
325.202
324.753
323.69
300.257
297.526
296.919
296.756
296.739
296.885
297.542
300.658
327.691
328.733
328.305
327.841
327.469
327.21
327.043
326.943
326.89
326.871
326.878
326.902
326.939
326.99
326.273
325.881
325.224
324.122
310.153
308.978
308.586
308.352
308.184
308.109
308.294
309.598
325.774
326.803
326.865
326.817
326.779
326.77
326.786
326.821
326.869
326.926
326.991
327.06
327.131
327.201
326.785
326.508
325.933
324.69
310.83
309.828
309.554
309.417
309.336
309.321
309.476
310.446
324.901
325.973
326.247
326.392
326.51
326.622
326.733
326.841
326.945
327.046
327.144
327.238
327.324
327.394
327.036
326.89
326.494
325.288
310.824
309.831
309.594
309.483
309.419
309.406
309.536
310.449
325.071
326.137
326.423
326.581
326.703
326.814
326.921
327.025
327.126
327.226
327.322
327.413
327.49
327.514
327.156
327.083
326.826
325.752
310.879
309.878
309.658
309.561
309.507
309.498
309.62
310.516
325.272
326.293
326.553
326.7
326.816
326.924
327.029
327.134
327.238
327.341
327.441
327.532
327.6
327.582
327.225
327.181
327.003
326.096
312.264
311.336
311.138
311.054
311.01
311.005
311.117
311.94
325.641
326.562
326.787
326.914
327.016
327.111
327.203
327.296
327.39
327.485
327.578
327.66
327.694
327.413
327.271
327.24
327.12
326.447
315.813
315.09
314.936
314.873
314.842
314.842
314.935
315.579
326.147
326.862
327.038
327.141
327.227
327.307
327.387
327.467
327.549
327.633
327.716
327.781
327.761
327.138
327.291
327.274
327.208
326.813
320.709
320.278
320.185
320.151
320.139
320.148
320.215
320.614
326.713
327.157
327.28
327.359
327.429
327.497
327.563
327.63
327.699
327.771
327.84
327.886
327.814
326.905
327.29
327.287
327.266
327.118
325.074
324.911
324.879
324.874
324.88
324.898
324.944
325.119
327.194
327.39
327.465
327.523
327.578
327.634
327.689
327.745
327.802
327.862
327.92
327.951
327.848
326.816
327.278
327.284
327.293
327.298
327.59
327.592
327.6
327.615
327.634
327.658
327.69
327.729
327.485
327.529
327.573
327.616
327.661
327.708
327.756
327.803
327.852
327.902
327.948
327.967
327.852
326.875
327.263
327.276
327.299
327.359
328.269
328.331
328.357
328.382
328.408
328.434
328.459
328.451
327.595
327.587
327.617
327.652
327.691
327.733
327.776
327.819
327.862
327.904
327.941
327.95
327.829
326.87
327.251
327.267
327.295
327.352
327.971
328.03
328.06
328.087
328.114
328.141
328.165
328.162
327.599
327.596
327.623
327.656
327.692
327.731
327.771
327.811
327.851
327.888
327.919
327.921
327.797
326.857
327.244
327.261
327.289
327.328
327.527
327.566
327.594
327.621
327.648
327.675
327.701
327.717
327.576
327.593
327.622
327.653
327.687
327.724
327.762
327.801
327.838
327.873
327.9
327.901
327.786
326.917
327.238
327.257
327.285
327.314
327.299
327.326
327.353
327.379
327.406
327.433
327.461
327.489
327.563
327.593
327.622
327.653
327.686
327.72
327.756
327.793
327.829
327.862
327.888
327.892
327.801
327.103
327.235
327.255
327.284
327.311
327.27
327.294
327.321
327.348
327.375
327.403
327.432
327.464
327.565
327.598
327.628
327.658
327.689
327.722
327.756
327.79
327.825
327.857
327.883
327.893
327.839
327.389
327.232
327.253
327.284
327.314
327.312
327.338
327.366
327.393
327.421
327.45
327.479
327.51
327.573
327.605
327.634
327.663
327.693
327.724
327.756
327.789
327.822
327.853
327.88
327.897
327.881
327.678
327.23
327.253
327.285
327.317
327.345
327.373
327.402
327.43
327.458
327.488
327.518
327.547
327.582
327.612
327.64
327.669
327.698
327.727
327.758
327.789
327.82
327.85
327.878
327.901
327.912
327.884
327.229
327.253
327.286
327.32
327.355
327.385
327.414
327.443
327.471
327.501
327.531
327.561
327.588
327.617
327.645
327.673
327.701
327.73
327.759
327.788
327.818
327.847
327.875
327.901
327.928
327.981
327.228
327.253
327.287
327.321
327.355
327.385
327.414
327.444
327.473
327.503
327.533
327.562
327.592
327.622
327.65
327.677
327.704
327.732
327.76
327.788
327.817
327.845
327.872
327.9
327.931
327.999
327.228
327.254
327.288
327.323
327.354
327.384
327.414
327.444
327.474
327.504
327.534
327.563
327.596
327.626
327.654
327.681
327.707
327.734
327.761
327.789
327.816
327.843
327.87
327.898
327.929
327.984
327.229
327.255
327.289
327.324
327.355
327.385
327.416
327.446
327.477
327.506
327.536
327.566
327.599
327.63
327.658
327.685
327.711
327.737
327.763
327.789
327.816
327.843
327.869
327.896
327.926
327.968
327.23
327.256
327.291
327.326
327.357
327.388
327.419
327.45
327.481
327.511
327.541
327.57
327.603
327.633
327.661
327.688
327.714
327.74
327.765
327.791
327.817
327.843
327.869
327.896
327.924
327.961
327.231
327.257
327.292
327.327
327.359
327.391
327.423
327.454
327.485
327.515
327.545
327.574
327.606
327.636
327.664
327.692
327.718
327.743
327.768
327.793
327.819
327.844
327.87
327.897
327.924
327.961
327.233
327.259
327.294
327.329
327.362
327.394
327.426
327.458
327.489
327.519
327.549
327.579
327.61
327.639
327.668
327.695
327.721
327.747
327.772
327.796
327.822
327.847
327.873
327.899
327.926
327.963
327.236
327.263
327.297
327.333
327.366
327.399
327.431
327.463
327.495
327.525
327.555
327.585
327.615
327.645
327.673
327.7
327.727
327.753
327.777
327.802
327.827
327.853
327.878
327.903
327.93
327.967
327.247
327.276
327.311
327.347
327.381
327.414
327.447
327.48
327.511
327.542
327.572
327.602
327.631
327.66
327.689
327.716
327.743
327.769
327.794
327.819
327.844
327.869
327.894
327.919
327.945
327.98
)
;

boundaryField
{
    concrete_to_air
    {
        type            compressible::turbulentTemperatureRadCoupledMixed;
        refValue        nonuniform List<scalar> 
898
(
313.313
313.36
313.388
313.396
313.42
313.441
313.208
312.906
312.58
312.301
312.259
312.234
312.218
312.21
312.207
312.21
312.217
312.228
312.243
312.26
312.279
312.299
312.321
312.344
312.368
312.392
313.261
313.263
313.228
313.169
313.171
313.199
313.045
312.905
312.765
312.635
312.701
312.759
312.798
312.816
312.813
312.791
312.758
312.72
312.683
312.651
312.626
312.608
312.599
312.596
312.599
312.608
313.121
313.055
312.949
312.852
312.876
312.925
312.753
312.601
312.474
312.372
312.51
312.64
312.745
312.832
312.9
312.944
312.963
312.962
312.947
312.925
312.9
312.878
312.861
312.851
312.847
312.849
312.853
312.739
312.613
312.572
312.681
312.815
312.607
312.419
312.277
312.194
312.544
312.856
313.096
313.24
313.309
313.33
313.321
313.293
313.257
313.218
313.181
313.149
313.125
313.111
313.108
313.117
312.487
312.405
312.353
312.441
313.981
313.714
313.517
313.409
313.351
313.355
313.366
313.371
313.371
313.375
313.387
313.403
313.421
313.441
312.137
312.149
312.222
312.454
313.615
313.301
313.127
313.037
312.991
312.972
312.963
312.964
312.96
312.939
312.9
312.865
312.854
312.846
311.874
311.976
312.149
312.52
313.435
313.053
312.85
312.723
312.637
312.575
312.531
312.501
312.48
312.465
312.453
312.451
312.456
312.462
311.662
311.81
312.044
312.523
313.337
312.928
312.707
312.554
312.446
312.365
312.306
312.267
312.242
312.23
312.227
312.233
312.243
312.255
311.465
311.63
311.883
312.396
313.335
312.883
312.649
312.516
312.406
312.313
312.241
312.196
312.169
312.158
312.157
312.164
312.175
312.19
311.439
311.589
311.81
312.254
313.438
312.992
312.733
312.613
312.484
312.371
312.282
312.231
312.205
312.192
312.19
312.197
312.21
312.229
311.597
311.666
311.795
312.115
313.676
313.353
313.078
312.763
312.581
312.454
312.372
312.323
312.297
312.287
312.29
312.303
312.324
312.351
311.874
311.858
311.873
312.059
313.636
313.153
312.824
312.615
312.481
312.406
312.369
312.358
312.364
312.382
312.408
312.443
312.485
312.532
312.165
312.115
312.056
312.096
311.916
311.704
311.492
311.29
311.106
310.948
310.824
310.779
311.258
311.555
311.762
311.918
312.043
312.148
312.238
312.319
312.394
312.466
312.537
312.609
312.683
312.756
312.411
312.385
312.322
312.276
312.089
311.922
311.773
311.642
311.529
311.43
311.348
311.289
311.494
311.68
311.843
311.989
312.122
312.244
312.357
312.463
312.564
312.662
312.757
312.852
312.945
313.027
312.612
312.624
312.597
312.546
312.347
312.176
312.029
311.901
311.788
311.69
311.606
311.543
311.711
311.878
312.035
312.183
312.323
312.455
312.579
312.698
312.812
312.922
313.029
313.131
313.223
313.276
312.809
312.841
312.849
312.831
312.635
312.462
312.31
312.177
312.061
311.959
311.871
311.804
311.952
312.104
312.253
312.398
312.539
312.675
312.807
312.934
313.056
313.175
313.286
313.386
313.459
313.431
313.007
313.045
313.073
313.084
312.917
312.763
312.626
312.505
312.398
312.305
312.225
312.165
312.299
312.439
312.578
312.716
312.85
312.981
313.107
313.229
313.347
313.458
313.56
313.639
313.664
313.48
313.172
313.215
313.254
313.284
313.172
313.064
312.967
312.881
312.808
312.745
312.695
312.661
312.775
312.896
313.017
313.137
313.254
313.369
313.479
313.585
313.687
313.783
313.867
313.924
313.915
313.666
313.268
313.319
313.368
313.412
313.371
313.329
313.291
313.26
313.236
313.221
313.214
313.22
313.311
313.405
313.5
313.594
313.686
313.775
313.862
313.944
314.023
314.098
314.164
314.201
314.169
313.881
313.298
313.356
313.413
313.467
313.49
313.509
313.529
313.551
313.576
313.605
313.638
313.678
313.747
313.818
313.889
313.958
314.027
314.093
314.158
314.22
314.279
314.336
314.388
314.416
314.378
314.09
313.29
313.352
313.413
313.473
313.533
313.591
313.647
313.702
313.758
313.814
313.872
313.931
313.987
314.043
314.098
314.152
314.205
314.257
314.308
314.357
314.405
314.451
314.496
314.537
314.551
314.469
313.273
313.336
313.397
313.459
313.53
313.6
313.669
313.736
313.802
313.867
313.931
313.995
314.046
314.096
314.145
314.193
314.241
314.287
314.333
314.378
314.421
314.464
314.506
314.547
314.58
314.577
313.261
313.323
313.384
313.444
313.512
313.58
313.646
313.711
313.775
313.837
313.899
313.959
314.01
314.06
314.109
314.157
314.204
314.25
314.295
314.339
314.383
314.426
314.468
314.509
314.548
314.574
313.254
313.315
313.375
313.435
313.496
313.557
313.617
313.677
313.736
313.793
313.85
313.906
313.958
314.009
314.059
314.108
314.156
314.203
314.25
314.295
314.34
314.384
314.427
314.469
314.509
314.539
313.25
313.31
313.369
313.428
313.486
313.543
313.6
313.655
313.711
313.765
313.819
313.872
313.924
313.976
314.027
314.076
314.125
314.173
314.22
314.266
314.311
314.356
314.399
314.442
314.483
314.516
313.247
313.306
313.365
313.423
313.48
313.536
313.591
313.646
313.7
313.753
313.806
313.858
313.91
313.962
314.012
314.062
314.111
314.159
314.206
314.252
314.297
314.342
314.386
314.429
314.47
314.506
313.243
313.302
313.361
313.419
313.475
313.531
313.587
313.641
313.695
313.749
313.801
313.853
313.905
313.956
314.006
314.055
314.103
314.151
314.198
314.244
314.289
314.334
314.378
314.421
314.463
314.502
313.24
313.299
313.357
313.415
313.472
313.528
313.583
313.637
313.691
313.745
313.797
313.849
313.9
313.951
314
314.049
314.098
314.145
314.192
314.238
314.283
314.327
314.371
314.415
314.457
314.498
313.238
313.296
313.354
313.412
313.468
313.524
313.579
313.633
313.687
313.74
313.792
313.844
313.895
313.945
313.995
314.043
314.092
314.139
314.185
314.231
314.276
314.321
314.365
314.408
314.45
314.493
313.235
313.294
313.352
313.409
313.465
313.521
313.575
313.629
313.683
313.736
313.788
313.839
313.89
313.94
313.989
314.038
314.086
314.133
314.179
314.225
314.27
314.315
314.359
314.402
314.444
314.487
313.233
313.292
313.349
313.406
313.462
313.518
313.572
313.626
313.679
313.732
313.784
313.835
313.885
313.935
313.984
314.033
314.081
314.128
314.174
314.22
314.265
314.309
314.353
314.396
314.439
314.481
313.232
313.29
313.348
313.404
313.46
313.515
313.57
313.623
313.676
313.729
313.78
313.831
313.882
313.931
313.98
314.029
314.076
314.123
314.17
314.215
314.26
314.305
314.349
314.392
314.434
314.477
313.23
313.289
313.346
313.402
313.458
313.513
313.567
313.621
313.674
313.726
313.777
313.828
313.879
313.928
313.977
314.025
314.073
314.12
314.166
314.212
314.257
314.301
314.345
314.388
314.43
314.473
313.229
313.287
313.344
313.401
313.456
313.511
313.565
313.619
313.672
313.724
313.775
313.826
313.876
313.925
313.974
314.022
314.07
314.117
314.163
314.209
314.253
314.298
314.341
314.385
314.427
314.469
313.228
313.286
313.343
313.399
313.455
313.51
313.564
313.617
313.67
313.722
313.773
313.824
313.874
313.923
313.972
314.02
314.067
314.114
314.16
314.206
314.251
314.295
314.339
314.382
314.424
314.466
313.227
313.285
313.342
313.398
313.454
313.509
313.563
313.616
313.668
313.72
313.772
313.822
313.872
313.921
313.97
314.018
314.065
314.112
314.158
314.204
314.249
314.293
314.337
314.38
314.422
314.464
313.227
313.285
313.342
313.398
313.453
313.508
313.562
313.615
313.668
313.72
313.771
313.821
313.871
313.921
313.969
314.017
314.065
314.111
314.158
314.203
314.248
314.292
314.336
314.379
314.422
314.464
)
;
        refGradient     nonuniform List<scalar> 
898
(
58.4715
58.8753
59.649
60.6075
62.2544
65.8745
-3.27986
-0.0585386
0.42011
-1.52431
76.2316
74.6781
74.0516
73.8753
73.2612
72.7239
72.176
71.5806
70.9569
70.3466
69.7619
69.1936
68.6307
68.0694
67.5099
66.9373
58.6689
59.4509
61.0337
63.0523
65.5217
69.1927
-1.58752
1.27043
1.61077
-0.636066
71.3554
68.3908
66.7531
66.2841
65.8854
65.969
66.2291
66.4996
66.7115
66.8449
66.8875
66.8296
66.6707
66.4209
66.0945
65.6855
59.3409
60.6536
63.2718
66.4094
70.8064
74.2343
-3.23903
-0.914589
-0.523589
-2.28861
74.4454
70.6653
66.3427
64.973
64.0828
63.8588
63.8934
64.0532
64.269
64.4884
64.6647
64.7659
64.7736
64.6901
64.5266
64.2719
61.3612
63.2179
66.3562
69.6755
82.5178
85.2143
13.4443
14.6661
14.9196
13.8496
80.939
76.0403
61.6487
60.0161
60.4398
61.4204
62.2589
62.89
63.3435
63.6656
63.8756
63.9816
63.9843
63.8836
63.685
63.3727
64.7847
66.2522
68.2006
71.8444
57.8153
55.8184
58.2757
60.1577
61.6376
62.8578
63.4107
63.5628
63.4718
63.2374
62.8555
62.311
61.6158
60.7691
69.2612
69.3018
69.1222
71.598
60.3551
56.5181
57.817
59.2495
60.4221
61.1934
61.5997
61.649
61.3951
60.9934
60.5478
59.9889
59.4706
59.0409
72.0169
70.4647
68.676
70.0873
60.4658
56.4959
57.4834
58.7445
59.8535
60.6608
61.1781
61.4016
61.4107
61.2992
61.1118
60.85
60.621
60.4271
72.694
70.6559
68.2285
68.9502
60.3026
56.4799
57.5195
59.0155
60.3523
61.3885
62.1034
62.505
62.6714
62.6728
62.5538
62.3838
62.2185
62.048
73.1592
71.1029
68.66
69.2251
59.8702
55.9405
57.1601
58.5913
60.0383
61.2598
62.1688
62.7126
62.9897
63.0566
63.02
62.9367
62.8275
62.6823
73.0775
71.4602
69.6306
70.6931
58.8588
54.2615
55.6318
57.1058
58.7793
60.2359
61.3665
62.034
62.3927
62.573
62.6368
62.6238
62.5558
62.4297
70.8645
70.7607
70.4839
72.5465
57.2625
51.308
52.1954
55.4073
57.5824
59.1913
60.2982
61.0171
61.4565
61.6958
61.7929
61.7912
61.7184
61.5781
66.9742
68.4789
70.5724
74.0465
56.4334
52.82
54.7187
56.7687
58.4127
59.5513
60.2945
60.7453
60.9821
61.0621
61.0286
60.9165
60.749
60.5311
63.3645
65.2646
68.2388
71.9165
-3.10083
-0.279851
0.605747
1.20589
1.70808
2.04882
1.8416
-1.32109
64.1796
61.4769
61.4324
61.6235
61.7134
61.6792
61.55
61.3534
61.108
60.8265
60.5196
60.1996
59.8774
59.562
60.9555
62.2667
64.7982
69.3441
-4.18432
-1.57672
-0.963579
-0.654988
-0.423871
-0.276606
-0.464333
-2.94882
68.3448
65.1386
64.1772
63.5382
62.9415
62.3613
61.8014
61.266
60.7559
60.2705
59.81
59.3802
58.9939
58.6801
59.8118
60.4722
62.132
66.5816
-5.94259
-3.22084
-2.61002
-2.33149
-2.12643
-1.99553
-2.19849
-4.69514
67.4817
64.109
63.0888
62.4554
61.8905
61.3543
60.8403
60.3449
59.8655
59.4027
58.9604
58.5539
58.2201
58.1169
59.3101
59.6015
60.5915
64.4432
-7.35675
-4.56392
-3.95507
-3.70285
-3.52503
-3.41924
-3.65198
-6.17177
66.6187
63.3399
62.412
61.8578
61.3465
60.836
60.3298
59.8318
59.3429
58.8649
58.4062
57.9933
57.697
57.8109
59.0468
59.1876
59.8134
62.9806
-2.64766
-0.00857856
0.577465
0.815174
0.974408
1.0565
0.81082
-1.57329
65.0724
62.0735
61.2597
60.799
60.3782
59.9463
59.5052
59.0615
58.6176
58.1761
57.7488
57.3858
57.257
58.4752
58.8843
58.9536
59.3478
61.6672
12.0693
14.2053
14.7075
14.9179
15.0475
15.0943
14.8584
12.9032
63.0797
60.7207
60.0676
59.696
59.3578
59.0034
58.6303
58.2453
57.8528
57.4556
57.0713
56.7725
56.8373
59.2603
58.8187
58.8343
59.0354
60.3817
32.8241
34.1628
34.4943
34.631
34.6991
34.6928
34.4869
33.2012
60.913
59.416
58.9418
58.6451
58.3726
58.0866
57.7806
57.4589
57.126
56.786
56.4572
56.2327
56.4812
59.8831
58.8373
58.8064
58.8481
59.3397
50.9422
51.4695
51.5984
51.6339
51.6234
51.5608
51.3925
50.7815
59.087
58.3903
58.0861
57.8585
57.6418
57.4136
57.1663
56.9008
56.6215
56.3343
56.0568
55.8899
56.242
60.0305
58.9002
58.8357
58.7725
58.737
60.8283
60.814
60.7893
60.7418
60.6702
60.5692
60.4326
60.2654
57.9819
57.785
57.5928
57.4103
57.2279
57.0367
56.83
56.6066
56.3705
56.1305
55.9082
55.7865
56.1518
59.5313
58.9661
58.882
58.7684
58.5419
62.9572
62.737
62.6363
62.5431
62.4394
62.3216
62.2018
62.1927
57.5552
57.5366
57.3946
57.2357
57.0724
56.9036
56.7246
56.5321
56.3276
56.1194
55.9311
55.8456
56.2236
59.5043
59.016
58.9224
58.7946
58.5757
61.2497
61.0347
60.9156
60.8074
60.6948
60.5759
60.4617
60.4353
57.5322
57.4998
57.3666
57.2157
57.0598
56.9015
56.7384
56.5669
56.3865
56.2042
56.0432
55.9832
56.3661
59.5733
59.0494
58.9511
58.8232
58.6639
59.2398
59.0858
58.9693
58.8575
58.7438
58.6274
58.512
58.4231
57.6125
57.5163
57.3776
57.2291
57.0773
56.9251
56.7723
56.6161
56.4546
56.2924
56.1493
56.0965
56.4461
59.4044
59.0722
58.9707
58.8437
58.7214
58.3174
58.2003
58.0854
57.9704
57.8551
57.7394
57.6217
57.4936
57.6561
57.5202
57.3775
57.2316
57.0838
56.9365
56.791
56.6458
56.4991
56.353
56.2224
56.1644
56.4318
58.8071
59.0886
58.9841
58.8554
58.7391
58.2603
58.1468
58.0275
57.9067
57.7874
57.6697
57.5499
57.412
57.6423
57.4982
57.3557
57.213
57.0694
56.9267
56.7865
56.649
56.5129
56.3785
56.255
56.1817
56.3287
57.8548
59.1006
58.9932
58.8613
58.7372
58.4612
58.3368
58.2104
58.0833
57.9592
57.8385
57.7173
57.5833
57.6054
57.4678
57.328
57.1885
57.0491
56.9106
56.7747
56.6427
56.5139
56.3878
56.2686
56.1776
56.2017
56.877
59.109
58.9993
58.8641
58.7318
58.5899
58.4547
58.3221
58.19
58.0617
57.938
57.8153
57.6859
57.5694
57.439
57.302
57.165
57.0288
56.8939
56.7616
56.6333
56.5091
56.3881
56.2713
56.1663
56.0989
56.172
59.1148
59.0033
58.8654
58.728
58.6107
58.4689
58.3321
58.1968
58.0655
57.939
57.8148
57.6871
57.5423
57.4159
57.2811
57.1462
57.0125
56.8806
56.7514
56.6258
56.5044
56.3865
56.2716
56.1597
56.0455
55.8394
59.1187
59.0058
58.8655
58.725
58.5879
58.4425
58.3031
58.1658
58.0324
57.9036
57.7776
57.6494
57.521
57.3965
57.2636
57.1303
56.9985
56.8688
56.7418
56.6182
56.4983
56.3822
56.2692
56.1566
56.0305
55.7772
59.1214
59.0072
58.8646
58.7211
58.5664
58.4186
58.2774
58.1391
58.0042
57.8733
57.7455
57.6163
57.5022
57.379
57.2482
57.1165
56.9862
56.8579
56.7325
56.6102
56.4915
56.3767
56.2657
56.1556
56.0344
55.8273
59.1233
59.0077
58.8625
58.7157
58.5552
58.4056
58.2632
58.124
57.988
57.8556
57.7261
57.596
57.4845
57.3622
57.2334
57.1037
56.9747
56.8474
56.7228
56.6013
56.4836
56.3701
56.2608
56.1536
56.0396
55.8795
59.1244
59.0071
58.8591
58.7091
58.5488
58.3979
58.2545
58.1146
57.9779
57.8442
57.7133
57.5826
57.4677
57.3458
57.219
57.0913
56.9637
56.8373
56.7131
56.5923
56.4755
56.3632
56.2553
56.1498
56.04
55.9
59.1247
59.0052
58.8544
58.7013
58.5423
58.3907
58.2464
58.1059
57.9684
57.8339
57.702
57.5709
57.4518
57.3297
57.2044
57.0786
56.9527
56.8272
56.7036
56.5834
56.4675
56.3563
56.2492
56.1442
56.0353
55.8968
59.1234
59.0011
58.8475
58.6918
58.5337
58.3818
58.2366
58.0954
57.9573
57.822
57.6894
57.5581
57.4357