/*--------------------------------*- C++ -*----------------------------------*\
| =========                 |                                                 |
| \\      /  F ield         | OpenFOAM: The Open Source CFD Toolbox           |
|  \\    /   O peration     | Version:  v2012                                 |
|   \\  /    A nd           | Website:  www.openfoam.com                      |
|    \\/     M anipulation  |                                                 |
\*---------------------------------------------------------------------------*/
FoamFile
{
    version     2.0;
    format      ascii;
    class       volScalarField;
    location    "550/asphalt";
    object      T;
}
// * * * * * * * * * * * * * * * * * * * * * * * * * * * * * * * * * * * * * //

dimensions      [0 0 0 1 0 0 0];


internalField   nonuniform List<scalar> 
1980
(
321.649
322.068
322.482
322.836
323.141
323.406
323.638
323.844
324.026
324.19
324.338
324.472
324.594
324.706
324.809
324.905
324.993
325.075
325.151
325.221
325.288
325.35
325.409
325.465
325.518
325.568
325.617
325.663
325.708
325.752
325.793
325.83
325.855
325.888
325.922
325.955
325.988
326.02
326.052
326.082
326.112
326.141
326.17
326.198
326.226
326.253
326.28
326.306
326.331
326.356
326.38
326.404
326.428
326.451
326.475
326.498
326.522
326.548
326.585
326.611
326.633
326.654
326.675
326.695
326.714
326.733
326.752
326.771
326.789
326.807
326.825
326.842
326.86
326.877
326.894
326.91
326.927
326.943
326.959
326.976
326.992
327.009
327.027
327.045
327.066
327.088
327.117
327.162
327.269
327.573
321.649
322.068
322.481
322.835
323.14
323.406
323.638
323.843
324.026
324.19
324.338
324.472
324.594
324.706
324.809
324.904
324.993
325.074
325.15
325.221
325.287
325.35
325.409
325.465
325.518
325.569
325.617
325.664
325.71
325.754
325.796
325.835
325.871
325.907
325.942
325.976
326.009
326.042
326.073
326.104
326.134
326.163
326.192
326.22
326.248
326.275
326.301
326.327
326.353
326.378
326.403
326.427
326.451
326.475
326.498
326.521
326.544
326.567
326.59
326.613
326.634
326.655
326.676
326.697
326.716
326.735
326.754
326.773
326.791
326.809
326.827
326.845
326.862
326.879
326.896
326.913
326.93
326.946
326.962
326.978
326.995
327.011
327.029
327.047
327.067
327.09
327.118
327.163
327.27
327.574
321.649
322.067
322.481
322.835
323.14
323.405
323.638
323.843
324.026
324.19
324.338
324.472
324.594
324.706
324.809
324.904
324.992
325.074
325.15
325.221
325.287
325.35
325.409
325.465
325.519
325.57
325.618
325.666
325.711
325.755
325.797
325.837
325.875
325.911
325.947
325.981
326.015
326.047
326.079
326.11
326.14
326.169
326.198
326.227
326.254
326.281
326.307
326.333
326.359
326.384
326.409
326.434
326.458
326.482
326.505
326.528
326.55
326.572
326.594
326.616
326.637
326.657
326.679
326.699
326.718
326.738
326.757
326.775
326.794
326.812
326.83
326.848
326.865
326.882
326.9
326.917
326.933
326.95
326.966
326.982
326.999
327.015
327.032
327.05
327.07
327.092
327.12
327.166
327.272
327.577
321.649
322.067
322.481
322.835
323.14
323.405
323.638
323.843
324.026
324.19
324.337
324.472
324.594
324.706
324.809
324.904
324.992
325.074
325.15
325.221
325.287
325.35
325.409
325.466
325.519
325.571
325.62
325.667
325.713
325.757
325.798
325.838
325.876
325.913
325.948
325.983
326.017
326.05
326.081
326.112
326.143
326.172
326.201
326.229
326.257
326.284
326.31
326.336
326.362
326.387
326.413
326.437
326.462
326.485
326.509
326.531
326.554
326.576
326.597
326.619
326.64
326.66
326.681
326.701
326.721
326.74
326.759
326.778
326.797
326.815
326.833
326.851
326.868
326.886
326.903
326.92
326.937
326.953
326.97
326.986
327.003
327.019
327.036
327.054
327.073
327.095
327.123
327.168
327.275
327.58
321.648
322.067
322.481
322.835
323.14
323.405
323.637
323.843
324.026
324.189
324.337
324.471
324.594
324.706
324.809
324.904
324.992
325.073
325.149
325.221
325.287
325.35
325.41
325.467
325.52
325.572
325.621
325.669
325.714
325.758
325.799
325.839
325.877
325.914
325.95
325.984
326.018
326.051
326.083
326.114
326.144
326.174
326.203
326.232
326.259
326.286
326.312
326.339
326.364
326.39
326.415
326.44
326.464
326.488
326.511
326.534
326.557
326.579
326.601
326.622
326.643
326.663
326.684
326.704
326.724
326.743
326.762
326.781
326.8
326.818
326.836
326.854
326.871
326.889
326.906
326.923
326.94
326.957
326.974
326.99
327.007
327.023
327.04
327.058
327.077
327.099
327.127
327.171
327.278
327.583
321.648
322.067
322.481
322.835
323.14
323.405
323.637
323.842
324.025
324.189
324.337
324.471
324.593
324.705
324.808
324.903
324.992
325.073
325.149
325.221
325.288
325.351
325.411
325.468
325.522
325.573
325.623
325.67
325.715
325.759
325.8
325.84
325.878
325.915
325.951
325.986
326.02
326.053
326.085
326.116
326.146
326.176
326.205
326.234
326.261
326.289
326.315
326.341
326.367
326.393
326.418
326.443
326.467
326.491
326.515
326.538
326.56
326.582
326.604
326.625
326.646
326.667
326.688
326.708
326.727
326.747
326.766
326.785
326.804
326.822
326.84
326.858
326.876
326.893
326.91
326.928
326.945
326.962
326.979
326.996
327.012
327.029
327.046
327.064
327.083
327.105
327.132
327.176
327.282
327.587
321.648
322.067
322.48
322.834
323.139
323.404
323.637
323.842
324.025
324.189
324.337
324.471
324.593
324.705
324.808
324.903
324.991
325.073
325.15
325.221
325.288
325.352
325.412
325.469
325.523
325.575
325.624
325.671
325.716
325.76
325.801
325.841
325.879
325.917
325.953
325.988
326.022
326.055
326.087
326.118
326.149
326.179
326.208
326.237
326.264
326.292
326.318
326.345
326.371
326.396
326.422
326.447
326.471
326.495
326.518
326.541
326.564
326.586
326.608
326.63
326.651
326.672
326.692
326.712
326.732
326.751
326.771
326.79
326.808
326.827
326.845
326.863
326.881
326.899
326.916
326.933
326.95
326.968
326.985
327.002
327.018
327.035
327.053
327.071
327.09
327.111
327.138
327.181
327.287
327.591
321.648
322.066
322.48
322.834
323.139
323.404
323.637
323.842
324.025
324.189
324.337
324.471
324.593
324.705
324.809
324.904
324.992
325.074
325.151
325.222
325.29
325.353
325.414
325.471
325.525
325.577
325.626
325.674
325.719
325.762
325.804
325.844
325.882
325.92
325.956
325.991
326.025
326.059
326.091
326.122
326.153
326.183
326.213
326.241
326.269
326.297
326.324
326.351
326.377
326.402
326.428
326.453
326.477
326.501
326.525
326.548
326.571
326.593
326.615
326.637
326.658
326.679
326.699
326.719
326.739
326.759
326.778
326.797
326.816
326.835
326.853
326.871
326.889
326.906
326.924
326.941
326.958
326.975
326.992
327.009
327.026
327.043
327.06
327.078
327.097
327.118
327.144
327.186
327.29
327.592
321.647
322.066
322.48
322.834
323.139
323.405
323.637
323.843
324.026
324.19
324.338
324.473
324.595
324.707
324.811
324.906
324.995
325.077
325.154
325.226
325.294
325.358
325.419
325.476
325.531
325.583
325.633
325.68
325.725
325.769
325.811
325.851
325.89
325.928
325.965
326
326.035
326.068
326.101
326.133
326.164
326.194
326.224
326.253
326.282
326.309
326.337
326.364
326.39
326.416
326.442
326.467
326.491
326.515
326.539
326.562
326.585
326.608
326.63
326.652
326.674
326.695
326.715
326.735
326.755
326.775
326.795
326.814
326.833
326.851
326.869
326.887
326.905
326.923
326.94
326.957
326.974
326.991
327.008
327.025
327.041
327.058
327.076
327.093
327.112
327.133
327.158
327.198
327.297
327.594
321.648
322.068
322.483
322.838
323.144
323.411
323.645
323.852
324.036
324.201
324.351
324.486
324.61
324.724
324.828
324.925
325.015
325.098
325.176
325.25
325.319
325.384
325.446
325.504
325.56
325.613
325.664
325.712
325.759
325.803
325.846
325.888
325.928
325.967
326.005
326.041
326.077
326.111
326.145
326.178
326.21
326.241
326.272
326.302
326.331
326.36
326.389
326.416
326.444
326.471
326.497
326.523
326.548
326.573
326.598
326.622
326.646
326.669
326.692
326.715
326.737
326.759
326.78
326.801
326.822
326.842
326.863
326.882
326.902
326.921
326.94
326.958
326.977
326.995
327.012
327.03
327.048
327.065
327.082
327.099
327.116
327.133
327.151
327.169
327.188
327.209
327.234
327.271
327.364
327.647
321.655
322.082
322.504
322.865
323.178
323.451
323.691
323.904
324.094
324.265
324.42
324.561
324.689
324.808
324.917
325.019
325.113
325.201
325.284
325.361
325.435
325.504
325.57
325.632
325.692
325.748
325.803
325.855
325.905
325.953
326
326.045
326.089
326.131
326.172
326.212
326.251
326.289
326.326
326.362
326.397
326.432
326.466
326.499
326.531
326.563
326.595
326.626
326.656
326.686
326.715
326.743
326.772
326.799
326.827
326.853
326.88
326.906
326.932
326.957
326.982
327.006
327.03
327.053
327.077
327.1
327.122
327.144
327.166
327.188
327.209
327.229
327.25
327.27
327.29
327.31
327.329
327.349
327.368
327.387
327.406
327.425
327.444
327.463
327.484
327.506
327.531
327.568
327.65
327.895
322.795
323.258
323.7
324.073
324.394
324.673
324.918
325.134
325.326
325.499
325.655
325.796
325.924
326.042
326.151
326.251
326.344
326.43
326.51
326.585
326.655
326.721
326.783
326.842
326.898
326.951
327.002
327.051
327.098
327.145
327.188
327.229
327.26
327.296
327.333
327.368
327.403
327.437
327.47
327.502
327.533
327.564
327.594
327.624
327.653
327.682
327.71
327.737
327.764
327.79
327.816
327.841
327.866
327.891
327.916
327.94
327.965
327.991
328.024
328.05
328.073
328.095
328.117
328.138
328.158
328.178
328.198
328.218
328.237
328.256
328.275
328.293
328.311
328.33
328.348
328.365
328.383
328.4
328.417
328.434
328.452
328.469
328.488
328.507
328.528
328.552
328.581
328.626
328.734
329.079
322.795
323.258
323.7
324.073
324.394
324.673
324.918
325.134
325.326
325.499
325.654
325.796
325.924
326.042
326.151
326.251
326.344
326.43
326.51
326.585
326.655
326.72
326.783
326.842
326.898
326.951
327.003
327.052
327.1
327.146
327.191
327.232
327.272
327.309
327.346
327.382
327.417
327.452
327.485
327.517
327.549
327.58
327.61
327.64
327.669
327.697
327.725
327.753
327.78
327.806
327.832
327.858
327.883
327.908
327.932
327.956
327.98
328.004
328.028
328.052
328.074
328.096
328.119
328.14
328.16
328.181
328.2
328.22
328.239
328.258
328.277
328.296
328.314
328.332
328.35
328.368
328.386
328.403
328.42
328.437
328.454
328.471
328.49
328.509
328.53
328.553
328.582
328.627
328.735
329.08
322.795
323.258
323.699
324.073
324.394
324.673
324.917
325.134
325.326
325.499
325.654
325.795
325.924
326.042
326.151
326.251
326.344
326.43
326.51
326.584
326.655
326.721
326.783
326.842
326.898
326.952
327.004
327.053
327.102
327.148
327.192
327.234
327.274
327.313
327.35
327.386
327.421
327.456
327.489
327.522
327.554
327.585
327.615
327.645
327.674
327.702
327.73
327.757
327.784
327.811
327.837
327.863
327.889
327.914
327.938
327.962
327.986
328.009
328.032
328.054
328.077
328.099
328.121
328.142
328.163
328.183
328.203
328.223
328.242
328.261
328.28
328.299
328.317
328.336
328.354
328.372
328.389
328.407
328.424
328.441
328.458
328.475
328.493
328.512
328.533
328.556
328.585
328.63
328.738
329.084
322.795
323.258
323.699
324.072
324.394
324.673
324.917
325.133
325.326
325.498
325.654
325.795
325.924
326.042
326.15
326.251
326.343
326.429
326.51
326.584
326.655
326.721
326.783
326.843
326.899
326.953
327.005
327.055
327.103
327.149
327.193
327.235
327.275
327.314
327.351
327.388
327.423
327.458
327.491
327.524
327.556
327.587
327.618
327.648
327.676
327.705
327.733
327.76
327.787
327.814
327.841
327.867
327.892
327.917
327.942
327.966
327.989
328.013
328.035
328.058
328.08
328.102
328.124
328.145
328.166
328.186
328.206
328.226
328.245
328.264
328.283
328.302
328.321
328.339
328.357
328.375
328.393
328.41
328.428
328.445
328.462
328.479
328.497
328.516
328.536
328.559
328.587
328.632
328.74
329.086
322.795
323.258
323.699
324.072
324.393
324.672
324.917
325.133
325.326
325.498
325.654
325.795
325.924
326.042
326.15
326.25
326.343
326.429
326.509
326.584
326.655
326.721
326.784
326.844
326.9
326.955
327.006
327.056
327.104
327.15
327.194
327.236
327.276
327.315
327.352
327.389
327.425
327.459
327.493
327.526
327.558
327.589
327.62
327.65
327.679
327.707
327.735
327.762
327.79
327.817
327.843
327.869
327.895
327.92
327.945
327.969
327.992
328.016
328.039
328.061
328.083
328.105
328.126
328.148
328.168
328.189
328.209
328.229
328.248
328.268
328.287
328.305
328.324
328.342
328.36
328.379
328.397
328.414
328.432
328.449
328.467
328.484
328.502
328.52
328.541
328.563
328.591
328.635
328.743
329.089
322.794
323.257
323.699
324.072
324.393
324.672
324.917
325.133
325.325
325.498
325.654
325.795
325.923
326.041
326.15
326.25
326.343
326.429
326.509
326.584
326.655
326.722
326.785
326.845
326.901
326.956
327.008
327.058
327.106
327.151
327.195
327.237
327.277
327.316
327.354
327.391
327.426
327.461
327.495
327.528
327.56
327.591
327.622
327.652
327.681
327.71
327.738
327.765
327.793
327.82
327.846
327.872
327.898
327.923
327.948
327.972
327.996
328.019
328.042
328.065
328.087
328.109
328.13
328.151
328.172
328.193
328.213
328.233
328.252
328.272
328.291
328.31
328.328
328.347
328.365
328.383
328.401
328.419
328.437
328.455
328.472
328.49
328.508
328.526
328.546
328.569
328.596
328.64
328.747
329.093
322.794
323.257
323.698
324.072
324.393
324.672
324.916
325.133
325.325
325.498
325.653
325.794
325.923
326.041
326.15
326.25
326.343
326.429
326.509
326.585
326.656
326.722
326.786
326.846
326.903
326.957
327.009
327.059
327.107
327.152
327.196
327.238
327.278
327.317
327.355
327.392
327.428
327.463
327.497
327.53
327.562
327.594
327.625
327.655
327.684
327.713
327.741
327.769
327.796
327.823
327.85
327.876
327.902
327.927
327.952
327.976
328
328.023
328.046
328.069
328.091
328.113
328.135
328.156
328.177
328.197
328.218
328.238
328.257
328.277
328.296
328.315
328.334
328.352
328.37
328.389
328.407
328.425
328.443
328.461
328.478
328.496
328.515
328.533
328.554
328.576
328.603
328.646
328.753
329.098
322.794
323.257
323.698
324.071
324.392
324.671
324.916
325.132
325.325
325.497
325.653
325.794
325.923
326.041
326.15
326.25
326.343
326.429
326.51
326.586
326.657
326.724
326.787
326.847
326.905
326.959
327.011
327.061
327.109
327.154
327.198
327.24
327.281
327.32
327.359
327.396
327.432
327.467
327.501
327.534
327.566
327.598
327.629
327.659
327.689
327.718
327.746
327.774
327.802
327.829
327.856
327.882
327.907
327.933
327.958
327.982
328.006
328.03
328.053
328.076
328.098
328.12
328.142
328.163
328.184
328.204
328.225
328.245
328.265
328.284
328.303
328.322
328.341
328.36
328.378
328.396
328.414
328.432
328.45
328.468
328.486
328.503
328.522
328.54
328.561
328.583
328.609
328.65
328.755
329.098
322.794
323.256
323.698
324.071
324.392
324.671
324.916
325.132
325.325
325.498
325.654
325.795
325.924
326.043
326.151
326.252
326.345
326.432
326.513
326.589
326.66
326.728
326.792
326.852
326.91
326.964
327.017
327.067
327.114
327.16
327.204
327.247
327.288
327.328
327.366
327.404
327.44
327.475
327.51
327.543
327.576
327.608
327.639
327.67
327.7
327.729
327.758
327.786
327.814
327.841
327.868
327.894
327.92
327.946
327.971
327.995
328.019
328.043
328.067
328.09
328.112
328.134
328.156
328.177
328.198
328.219
328.239
328.26
328.279
328.299
328.318
328.337
328.356
328.374
328.392
328.41
328.428
328.446
328.464
328.481
328.499
328.517
328.535
328.553
328.573
328.595
328.62
328.659
328.76
329.097
322.794
323.258
323.7
324.075
324.397
324.677
324.923
325.14
325.334
325.508
325.665
325.808
325.938
326.058
326.168
326.269
326.364
326.452
326.534
326.611
326.684
326.752
326.817
326.879
326.937
326.993
327.046
327.097
327.146
327.193
327.238
327.282
327.324
327.365
327.405
327.443
327.48
327.517
327.552
327.587
327.621
327.654
327.686
327.717
327.748
327.779
327.808
327.838
327.866
327.895
327.922
327.949
327.976
328.002
328.028
328.054
328.079
328.103
328.127
328.151
328.174
328.197
328.22
328.242
328.264
328.285
328.306
328.327
328.347
328.368
328.387
328.407
328.426
328.445
328.463
328.482
328.5
328.518
328.536
328.554
328.572
328.59
328.608
328.627
328.647
328.669
328.694
328.731
328.825
329.146
322.802
323.274
323.724
324.106
324.436
324.723
324.976
325.2
325.401
325.581
325.744
325.893
326.029
326.154
326.269
326.376
326.476
326.569
326.656
326.738
326.816
326.889
326.958
327.024
327.087
327.147
327.205
327.26
327.313
327.364
327.413
327.461
327.507
327.552
327.596
327.638
327.679
327.719
327.758
327.797
327.834
327.871
327.906
327.942
327.976
328.01
328.043
328.076
328.108
328.139
328.17
328.2
328.23
328.26
328.289
328.317
328.345
328.373
328.4
328.427
328.453
328.479
328.504
328.529
328.553
328.578
328.602
328.625
328.648
328.671
328.693
328.715
328.737
328.758
328.78
328.801
328.821
328.842
328.862
328.882
328.902
328.922
328.942
328.963
328.984
329.007
329.033
329.07
329.152
329.428
)
;

boundaryField
{
    inlet
    {
        type            zeroGradient;
    }
    outlet
    {
        type            zeroGradient;
    }
    side
    {
        type            zeroGradient;
    }
    asphalt_to_soil1
    {
        type            compressible::turbulentTemperatureRadCoupledMixed;
        refValue        nonuniform List<scalar> 
990
(
320.489
320.867
321.254
321.588
321.877
322.128
322.348
322.542
322.715
322.871
323.01
323.137
323.253
323.359
323.456
323.546
323.63
323.707
323.779
323.846
323.909
323.968
324.023
324.076
324.126
324.174
324.22
324.264
324.306
324.347
324.386
324.42
324.439
324.469
324.5
324.532
324.563
324.593
324.623
324.652
324.68
324.708
324.735
324.761
324.788
324.813
324.838
324.863
324.887
324.911
324.934
324.956
324.979
325.001
325.023
325.045
325.068
325.094
325.134
325.159
325.181
325.201
325.22
325.239
325.258
325.276
325.294
325.311
325.328
325.345
325.362
325.379
325.395
325.412
325.428
325.443
325.459
325.474
325.49
325.505
325.521
325.537
325.554
325.571
325.59
325.612
325.64
325.685
325.789
326.057
320.489
320.867
321.254
321.588
321.877
322.128
322.348
322.542
322.715
322.87
323.01
323.137
323.253
323.359
323.456
323.546
323.63
323.707
323.779
323.846
323.908
323.967
324.023
324.076
324.126
324.174
324.22
324.265
324.308
324.349
324.389
324.426
324.46
324.493
324.526
324.558
324.589
324.62
324.65
324.679
324.707
324.735
324.762
324.789
324.815
324.84
324.866
324.89
324.914
324.938
324.962
324.984
325.007
325.029
325.051
325.073
325.095
325.117
325.14
325.162
325.182
325.202
325.222
325.241
325.26
325.278
325.295
325.313
325.33
325.348
325.364
325.381
325.398
325.414
325.43
325.446
325.462
325.477
325.492
325.508
325.523
325.539
325.555
325.573
325.592
325.613
325.641
325.686
325.79
326.059
320.488
320.867
321.253
321.588
321.876
322.128
322.348
322.542
322.715
322.87
323.01
323.137
323.253
323.359
323.456
323.546
323.629
323.707
323.778
323.845
323.908
323.967
324.023
324.077
324.127
324.175
324.222
324.266
324.309
324.351
324.391
324.428
324.464
324.498
324.532
324.564
324.596
324.627
324.657
324.686
324.714
324.742
324.769
324.796
324.822
324.848
324.873
324.897
324.921
324.945
324.969
324.992
325.015
325.037
325.059
325.081
325.102
325.123
325.144
325.164
325.184
325.204
325.224
325.243
325.262
325.28
325.298
325.316
325.333
325.35
325.367
325.384
325.4
325.417
325.433
325.449
325.465
325.481
325.496
325.511
325.527
325.542
325.559
325.576
325.594
325.616
325.643
325.688
325.792
326.061
320.488
320.867
321.253
321.588
321.876
322.127
322.347
322.542
322.715
322.87
323.01
323.137
323.252
323.358
323.456
323.546
323.629
323.706
323.778
323.845
323.908
323.968
324.024
324.077
324.128
324.176
324.223
324.268
324.311
324.352
324.392
324.429
324.465
324.5
324.534
324.566
324.598
324.629
324.659
324.689
324.717
324.745
324.773
324.799
324.825
324.851
324.876
324.9
324.925
324.949
324.973
324.996
325.019
325.041
325.063
325.085
325.106
325.127
325.147
325.167
325.187
325.207
325.227
325.246
325.264
325.282
325.3
325.318
325.336
325.353
325.37
325.387
325.403
325.42
325.436
325.452
325.468
325.484
325.5
325.515
325.531
325.546
325.562
325.579
325.598
325.619
325.646
325.691
325.795
326.063
320.488
320.866
321.253
321.587
321.876
322.127
322.347
322.542
322.715
322.87
323.01
323.137
323.252
323.358
323.456
323.546
323.629
323.706
323.778
323.845
323.909
323.968
324.024
324.078
324.129
324.178
324.224
324.269
324.312
324.353
324.393
324.43
324.466
324.501
324.535
324.568
324.6
324.631
324.661
324.69
324.719
324.747
324.775
324.801
324.827
324.853
324.878
324.903
324.927
324.951
324.975
324.999
325.022
325.044
325.066
325.088
325.109
325.13
325.15
325.17
325.19
325.21
325.229
325.248
325.267
325.285
325.303
325.321
325.339
325.356
325.373
325.39
325.407
325.423
325.439
325.456
325.472
325.488
325.504
325.519
325.535
325.55
325.566
325.583
325.602
325.623
325.649
325.694
325.798
326.066
320.488
320.866
321.253
321.587
321.876
322.127
322.347
322.541
322.714
322.87
323.009
323.136
323.252
323.358
323.455
323.545
323.629
323.706
323.778
323.846
323.909
323.969
324.025
324.079
324.13
324.179
324.226
324.27
324.313
324.354
324.393
324.431
324.467
324.502
324.536
324.569
324.601
324.632
324.663
324.692
324.721
324.749
324.777
324.804
324.83
324.855
324.881
324.905
324.93
324.954
324.978
325.001
325.025
325.047
325.069
325.091
325.112
325.133
325.154
325.174
325.194
325.213
325.233
325.252
325.27
325.289
325.307
325.325
325.342
325.36
325.377
325.394
325.411
325.427
325.444
325.46
325.476
325.492
325.508
325.524
325.54
325.556
325.572
325.589
325.607
325.628
325.654
325.698
325.802
326.07
320.488
320.866
321.253
321.587
321.876
322.127
322.347
322.541
322.714
322.869
323.009
323.136
323.252
323.358
323.455
323.545
323.629
323.706
323.778
323.846
323.91
323.97
324.026
324.08
324.131
324.18
324.227
324.272
324.314
324.355
324.395
324.432
324.469
324.504
324.538
324.571
324.603
324.634
324.665
324.694
324.723
324.752
324.779
324.806
324.833
324.858
324.884
324.909
324.933
324.958
324.982
325.005
325.028
325.051
325.073
325.095
325.116
325.137
325.158
325.178
325.198
325.218
325.237
325.256
325.275
325.293
325.312
325.33
325.347
325.365
325.382
325.399
325.416
325.432
325.449
325.465
325.482
325.498
325.514
325.53
325.546
325.562
325.578
325.595
325.614
325.634
325.66
325.703
325.806
326.074
320.487
320.866
321.252
321.587
321.875
322.127
322.347
322.541
322.714
322.87
323.009
323.136
323.252
323.358
323.456
323.546
323.629
323.707
323.779
323.847
323.911
323.971
324.028
324.082
324.134
324.183
324.229
324.274
324.317
324.358
324.397
324.435
324.472
324.507
324.541
324.575
324.607
324.638
324.669
324.699
324.728
324.756
324.784
324.811
324.838
324.864
324.89
324.915
324.939
324.964
324.988
325.011
325.034
325.057
325.079
325.101
325.123
325.144
325.165
325.185
325.205
325.225
325.245
325.264
325.282
325.301
325.319
325.337
325.355
325.373
325.39
325.407
325.424
325.44
325.457
325.473
325.489
325.506
325.522
325.538
325.554
325.57
325.586
325.603
325.621
325.642
325.667
325.709
325.81
326.076
320.487
320.866
321.252
321.587
321.876
322.127
322.347
322.542
322.716
322.871
323.011
323.139
323.255
323.361
323.459
323.549
323.633
323.711
323.784
323.852
323.916
323.977
324.034
324.089
324.14
324.19
324.237
324.281
324.324
324.366
324.405
324.444
324.481
324.516
324.551
324.585
324.617
324.649
324.68
324.71
324.74
324.768
324.797
324.824
324.851
324.877
324.903
324.929
324.954
324.978
325.002
325.026
325.049
325.072
325.095
325.117
325.139
325.16
325.181
325.202
325.222
325.242
325.262
325.281
325.3
325.319
325.337
325.355
325.373
325.39
325.408
325.425
325.442
325.458
325.475
325.491
325.507
325.523
325.539
325.555
325.571
325.587
325.603
325.62
325.638
325.658
325.683
325.722
325.82
326.08
320.488
320.868
321.256
321.591
321.881
322.134
322.356
322.552
322.726
322.883
323.024
323.153
323.27
323.378
323.477
323.568
323.653
323.732
323.807
323.876
323.942
324.003
324.062
324.117
324.17
324.22
324.268
324.314
324.358
324.4
324.441
324.481
324.519
324.555
324.591
324.626
324.659
324.692
324.724
324.755
324.786
324.816
324.845
324.873
324.901
324.928
324.955
324.982
325.008
325.033
325.058
325.082
325.107
325.13
325.154
325.177
325.199
325.221
325.243
325.265
325.286
325.306
325.327
325.347
325.366
325.386
325.405
325.423
325.442
325.46
325.478
325.496
325.513
325.53
325.547
325.564
325.58
325.597
325.613
325.629
325.645
325.662
325.678
325.696
325.714
325.734
325.758
325.796
325.886
326.135
320.494
320.88
321.274
321.615
321.911
322.169
322.396
322.597
322.777
322.939
323.085
323.218
323.34
323.451
323.555
323.65
323.739
323.823
323.9
323.974
324.043
324.108
324.17
324.229
324.285
324.339
324.39
324.439
324.486
324.532
324.576
324.618
324.66
324.699
324.738
324.776
324.812
324.848
324.883
324.917
324.95
324.983
325.015
325.046
325.077
325.107
325.136
325.165
325.194
325.222
325.249
325.276
325.303
325.329
325.354
325.38
325.405
325.429
325.453
325.477
325.5
325.523
325.546
325.568
325.59
325.611
325.633
325.653
325.674
325.694
325.714
325.734
325.753
325.772
325.791
325.809
325.828
325.846
325.864
325.882
325.9
325.917
325.936
325.954
325.974
325.994
326.019
326.056
326.137
326.353
)
;
        refGradient     uniform 0;
        valueFraction   nonuniform List<scalar> 
990
(
0.495766
0.495766
0.495766
0.495766
0.495766
0.495766
0.495766
0.495766
0.495766
0.495766
0.495766
0.495766
0.495766
0.495766
0.495766
0.495766
0.495766
0.495766
0.495766
0.495766
0.495766
0.495766
0.495766
0.495766
0.495766
0.495766
0.495766
0.495766
0.495766
0.495766
0.495766
0.495766
0.495766
0.495766
0.495766
0.495766
0.495766
0.495766
0.495766
0.495766
0.495766
0.495766
0.495766
0.495766
0.495766
0.495766
0.495766
0.495766
0.495766
0.495766
0.495766
0.495766
0.495766
0.495766
0.495766
0.495766
0.495766
0.495766
0.495766
0.495766
0.495766
0.495766
0.495766
0.495766
0.495766
0.495766
0.495766
0.495766
0.495766
0.495766
0.495766
0.495766
0.495766
0.495766
0.495766
0.495766
0.495766
0.495766
0.495766
0.495766
0.495766
0.495766
0.495766
0.495766
0.495766
0.495766
0.495766
0.495766
0.495766
0.495766
0.495766
0.495766
0.495766
0.495766
0.495766
0.495766
0.495766
0.495766
0.495766
0.495766
0.495766
0.495766
0.495766
0.495766
0.495766
0.495766
0.495766
0.495766
0.495766
0.495766
0.495766
0.495766
0.495766
0.495766
0.495766
0.495766
0.495766
0.495766
0.495766
0.495766
0.495766
0.495766
0.495766
0.495766
0.495766
0.495766
0.495766
0.495766
0.495766
0.495766
0.495766
0.495766
0.495766
0.495766
0.495766
0.495766
0.495766
0.495766
0.495766
0.495766
0.495766
0.495766
0.495766
0.495766
0.495766
0.495766
0.495766
0.495766
0.495766
0.495766
0.495766
0.495766
0.495766
0.495766
0.495766
0.495766
0.495766
0.495766
0.495766
0.495766
0.495766
0.495766
0.495766
0.495766
0.495766
0.495766
0.495766
0.495766
0.495766
0.495766
0.495766
0.495766
0.495766
0.495766
0.495766
0.495766
0.495766
0.495766
0.495766
0.495766
0.495766
0.495766
0.495766
0.495766
0.495766
0.495766
0.495766
0.495766
0.495766
0.495766
0.495766
0.495766
0.495766
0.495766
0.495766
0.495766
0.495766
0.495766
0.495766
0.495766
0.495766
0.495766
0.495766
0.495766
0.495766
0.495766
0.495766
0.495766
0.495766
0.495766
0.495766
0.495766
0.495766
0.495766
0.495766
0.495766
0.495766
0.495766
0.495766
0.495766
0.495766
0.495766
0.495766
0.495766
0.495766
0.495766
0.495766
0.495766
0.495766
0.495766
0.495766
0.495766
0.495766
0.495766
0.495766
0.495766
0.495766
0.495766
0.495766
0.495766
0.495766
0.495766
0.495766
0.495766
0.495766
0.495766
0.495766
0.495766
0.495766
0.495766
0.495766
0.495766
0.495766
0.495766
0.495766
0.495766
0.495766
0.495766
0.495766
0.495766
0.495766
0.495766
0.495766
0.495766
0.495766
0.495766
0.495766
0.495766
0.495766
0.495766
0.495766
0.495766
0.495766
0.495766
0.495766
0.495766
0.495766
0.495766
0.495766
0.495766
0.495766
0.495766
0.495766
0.495766
0.495766
0.495766
0.495766
0.495766
0.495766
0.495766
0.495766
0.495766
0.495766
0.495766
0.495766
0.495766
0.495766
0.495766
0.495766
0.495766
0.495766
0.495766
0.495766
0.495766
0.495766
0.495766
0.495766
0.495766
0.495766
0.495766
0.495766
0.495766
0.495766
0.495766
0.495766
0.495766
0.495766
0.495766
0.495766
0.495766
0.495766
0.495766
0.495766
0.495766
0.495766
0.495766
0.495766
0.495766
0.495766
0.495766
0.495766
0.495766
0.495766
0.495766
0.495766
0.495766
0.495766
0.495766
0.495766
0.495766
0.495766
0.495766
0.495766
0.495766
0.495766
0.495766
0.495766
0.495766
0.495766
0.495766
0.495766
0.495766
0.495766
0.495766
0.495766
0.495766
0.495766
0.495766
0.495766
0.495766
0.495766
0.495766
0.495766
0.495766
0.495766
0.495766
0.495766
0.495766
0.495766
0.495766
0.495766
0.495766
0.495766
0.495766
0.495766
0.495766
0.495766
0.495766
0.495766
0.495766
0.495766
0.495766
0.495766
0.495766
0.495766
0.495766
0.495766
0.495766
0.495766
0.495766
0.495766
0.495766
0.495766
0.495766
0.495766
0.495766
0.495766
0.495766
0.495766
0.495766
0.495766
0.495766
0.495766
0.495766
0.495766
0.495766
0.495766
0.495766
0.495766
0.495766
0.495766
0.495766
0.495766
0.495766
0.495766
0.495766
0.495766
0.495766
0.495766
0.495766
0.495766
0.495766
0.495766
0.495766
0.495766
0.495766
0.495766
0.495766
0.495766
0.495766
0.495766
0.495766
0.495766
0.495766
0.495766
0.495766
0.495766
0.495766
0.495766
0.495766
0.495766
0.495766
0.495766
0.495766
0.495766
0.495766
0.495766
0.495766
0.495766
0.495766
0.495766
0.495766
0.495766
0.495766
0.495766
0.495766
0.495766
0.495766
0.495766
0.495766
0.495766
0.495766
0.495766
0.495766
0.495766
0.495766
0.495766
0.495766
0.495766
0.495766
0.495766
0.495766
0.495766
0.495766
0.495766
0.495766
0.495766
0.495766
0.495766
0.495766
0.495766
0.495766
0.495766
0.495766
0.495766
0.495766
0.495766
0.495766
0.495766
0.495766
0.495766
0.495766
0.495766
0.495766
0.495766
0.495766
0.495766
0.495766
0.495766
0.495766
0.495766
0.495766
0.495766
0.495766
0.495766
0.495766
0.495766
0.495766
0.495766
0.495766
0.495766
0.495766
0.495766
0.495766
0.495766
0.495766
0.495766
0.495766
0.495766
0.495766
0.495766
0.495766
0.495766
0.495766
0.495766
0.495766
0.495766
0.495766
0.495766
0.495766
0.495766
0.495766
0.495766
0.495766
0.495766
0.495766
0.495766
0.495766
0.495766
0.495766
0.495766
0.495766
0.495766
0.495766
0.495766
0.495766
0.495766
0.495766
0.495766
0.495766
0.495766
0.495766
0.495766
0.495766
0.495766
0.495766
0.495766
0.495766
0.495766
0.495766
0.495766
0.495766
0.495766
0.495766
0.495766
0.495766
0.495766
0.495766
0.495766
0.495766
0.495766
0.495766
0.495766
0.495766
0.495766
0.495766
0.495766
0.495766
0.495766
0.495766
0.495766
0.495766
0.495766
0.495766
0.495766
0.495766