/*--------------------------------*- C++ -*----------------------------------*\
| =========                 |                                                 |
| \\      /  F ield         | OpenFOAM: The Open Source CFD Toolbox           |
|  \\    /   O peration     | Version:  v2012                                 |
|   \\  /    A nd           | Website:  www.openfoam.com                      |
|    \\/     M anipulation  |                                                 |
\*---------------------------------------------------------------------------*/
FoamFile
{
    version     2.0;
    format      ascii;
    class       volScalarField;
    location    "400/soil1";
    object      T;
}
// * * * * * * * * * * * * * * * * * * * * * * * * * * * * * * * * * * * * * //

dimensions      [0 0 0 1 0 0 0];


internalField   nonuniform List<scalar> 
57600
(
303.135
303.182
303.241
303.298
303.347
303.391
303.429
303.463
303.493
303.519
303.544
303.565
303.586
303.604
303.621
303.636
303.651
303.664
303.677
303.689
303.7
303.711
303.72
303.73
303.739
303.748
303.756
303.764
303.771
303.778
303.785
303.792
303.799
303.805
303.811
303.817
303.823
303.828
303.834
303.839
303.845
303.85
303.855
303.86
303.865
303.869
303.874
303.879
303.883
303.888
303.892
303.897
303.901
303.905
303.91
303.914
303.918
303.922
303.926
303.93
303.934
303.938
303.942
303.945
303.949
303.953
303.957
303.96
303.964
303.967
303.971
303.975
303.978
303.982
303.985
303.989
303.992
303.996
304
304.004
304.008
304.012
304.016
304.02
304.025
304.03
304.036
304.046
304.064
304.087
303.115
303.161
303.22
303.275
303.324
303.367
303.404
303.437
303.467
303.493
303.516
303.538
303.557
303.575
303.592
303.607
303.621
303.634
303.646
303.658
303.668
303.679
303.688
303.697
303.706
303.714
303.722
303.729
303.737
303.744
303.75
303.757
303.763
303.769
303.775
303.78
303.786
303.791
303.796
303.802
303.806
303.811
303.816
303.821
303.825
303.83
303.834
303.839
303.843
303.847
303.851
303.856
303.86
303.864
303.868
303.872
303.875
303.879
303.883
303.887
303.891
303.894
303.898
303.901
303.905
303.908
303.912
303.915
303.919
303.922
303.925
303.929
303.932
303.935
303.938
303.942
303.945
303.949
303.953
303.956
303.96
303.964
303.968
303.972
303.976
303.981
303.987
303.998
304.016
304.04
303.088
303.133
303.191
303.245
303.294
303.336
303.372
303.405
303.433
303.459
303.482
303.503
303.522
303.54
303.556
303.571
303.584
303.597
303.609
303.62
303.63
303.64
303.65
303.658
303.667
303.675
303.682
303.69
303.697
303.703
303.71
303.716
303.722
303.727
303.733
303.738
303.744
303.749
303.754
303.759
303.763
303.768
303.772
303.777
303.781
303.785
303.79
303.794
303.798
303.802
303.806
303.81
303.814
303.817
303.821
303.825
303.829
303.832
303.836
303.839
303.843
303.846
303.85
303.853
303.856
303.859
303.863
303.866
303.869
303.872
303.875
303.878
303.881
303.885
303.888
303.891
303.894
303.897
303.901
303.904
303.908
303.912
303.915
303.919
303.923
303.928
303.934
303.945
303.963
303.988
303.059
303.104
303.16
303.214
303.262
303.303
303.339
303.371
303.399
303.425
303.447
303.468
303.487
303.504
303.52
303.534
303.548
303.56
303.572
303.583
303.593
303.603
303.612
303.62
303.628
303.636
303.644
303.651
303.658
303.664
303.67
303.676
303.682
303.688
303.693
303.698
303.703
303.708
303.713
303.718
303.722
303.727
303.731
303.735
303.74
303.744
303.748
303.752
303.756
303.759
303.763
303.767
303.771
303.774
303.778
303.781
303.785
303.788
303.792
303.795
303.798
303.802
303.805
303.808
303.811
303.814
303.818
303.821
303.824
303.827
303.83
303.833
303.835
303.838
303.841
303.844
303.847
303.851
303.854
303.857
303.861
303.864
303.868
303.872
303.876
303.88
303.887
303.897
303.916
303.94
303.03
303.074
303.13
303.183
303.23
303.27
303.306
303.337
303.365
303.39
303.413
303.433
303.451
303.468
303.484
303.498
303.512
303.524
303.535
303.546
303.556
303.566
303.575
303.583
303.591
303.599
303.606
303.613
303.62
303.626
303.632
303.638
303.644
303.649
303.654
303.66
303.664
303.669
303.674
303.678
303.683
303.687
303.691
303.695
303.7
303.703
303.707
303.711
303.715
303.719
303.722
303.726
303.729
303.733
303.736
303.74
303.743
303.746
303.75
303.753
303.756
303.759
303.762
303.765
303.768
303.771
303.774
303.777
303.78
303.783
303.785
303.788
303.791
303.794
303.797
303.799
303.802
303.805
303.809
303.812
303.815
303.819
303.822
303.826
303.829
303.834
303.84
303.85
303.869
303.893
303.001
303.044
303.099
303.152
303.198
303.238
303.273
303.304
303.332
303.356
303.378
303.398
303.416
303.433
303.448
303.463
303.476
303.488
303.499
303.51
303.52
303.529
303.538
303.547
303.555
303.562
303.569
303.576
303.583
303.589
303.595
303.601
303.606
303.612
303.617
303.622
303.626
303.631
303.636
303.64
303.644
303.648
303.652
303.656
303.66
303.664
303.667
303.671
303.675
303.678
303.682
303.685
303.688
303.691
303.695
303.698
303.701
303.704
303.707
303.71
303.713
303.716
303.718
303.721
303.724
303.727
303.729
303.732
303.734
303.737
303.739
303.742
303.744
303.747
303.749
303.752
303.754
303.757
303.76
303.763
303.766
303.769
303.772
303.776
303.779
303.783
303.789
303.798
303.815
303.838
302.972
303.015
303.069
303.121
303.167
303.206
303.241
303.272
303.299
303.322
303.343
303.362
303.38
303.396
303.411
303.426
303.439
303.451
303.462
303.473
303.483
303.493
303.501
303.51
303.518
303.525
303.532
303.539
303.546
303.552
303.558
303.563
303.569
303.574
303.579
303.584
303.588
303.592
303.597
303.601
303.605
303.609
303.612
303.616
303.62
303.623
303.626
303.63
303.633
303.636
303.639
303.642
303.645
303.648
303.65
303.653
303.656
303.658
303.661
303.664
303.666
303.668
303.671
303.673
303.675
303.677
303.68
303.682
303.684
303.686
303.688
303.69
303.691
303.693
303.695
303.697
303.699
303.701
303.703
303.706
303.709
303.711
303.714
303.717
303.72
303.724
303.729
303.737
303.752
303.771
302.943
302.986
303.04
303.091
303.136
303.175
303.209
303.239
303.265
303.286
303.304
303.321
303.337
303.353
303.368
303.383
303.396
303.409
303.421
303.432
303.443
303.453
303.462
303.47
303.478
303.486
303.493
303.5
303.506
303.512
303.518
303.524
303.529
303.534
303.538
303.543
303.547
303.551
303.555
303.559
303.562
303.566
303.569
303.572
303.575
303.578
303.581
303.584
303.587
303.589
303.592
303.594
303.597
303.599
303.601
303.603
303.605
303.607
303.609
303.611
303.613
303.615
303.616
303.618
303.619
303.621
303.622
303.623
303.625
303.626
303.627
303.628
303.629
303.63
303.631
303.632
303.634
303.635
303.637
303.639
303.642
303.645
303.649
303.652
303.655
303.658
303.663
303.67
303.682
303.698
302.916
302.957
303.01
303.061
303.105
303.144
303.178
303.206
303.229
303.244
303.25
303.258
303.271
303.286
303.302
303.318
303.334
303.349
303.363
303.376
303.388
303.4
303.41
303.42
303.428
303.437
303.444
303.451
303.457
303.463
303.469
303.474
303.479
303.483
303.488
303.492
303.496
303.499
303.503
303.506
303.509
303.513
303.516
303.518
303.521
303.523
303.526
303.528
303.53
303.533
303.535
303.537
303.539
303.54
303.542
303.544
303.545
303.547
303.548
303.549
303.55
303.551
303.552
303.553
303.554
303.555
303.555
303.556
303.556
303.557
303.557
303.557
303.558
303.558
303.558
303.558
303.559
303.559
303.561
303.565
303.572
303.579
303.586
303.591
303.596
303.6
303.605
303.612
303.623
303.637
302.888
302.929
302.982
303.031
303.075
303.113
303.146
303.173
303.19
303.186
303.152
303.135
303.139
303.155
303.176
303.198
303.22
303.24
303.26
303.278
303.295
303.31
303.323
303.335
303.346
303.355
303.363
303.37
303.377
303.383
303.388
303.393
303.397
303.402
303.406
303.41
303.413
303.416
303.419
303.422
303.425
303.428
303.432
303.434
303.436
303.439
303.441
303.444
303.446
303.448
303.45
303.452
303.454
303.456
303.457
303.459
303.46
303.461
303.462
303.463
303.464
303.464
303.465
303.465
303.465
303.465
303.465
303.465
303.465
303.464
303.464
303.463
303.462
303.461
303.46
303.459
303.458
303.458
303.46
303.469
303.49
303.512
303.53
303.543
303.553
303.561
303.569
303.578
303.59
303.604
302.861
302.901
302.953
303.002
303.046
303.083
303.115
303.139
303.145
303.105
302.984
302.922
302.915
302.935
302.967
303.001
303.034
303.066
303.094
303.12
303.143
303.164
303.181
303.196
303.208
303.219
303.227
303.234
303.24
303.245
303.249
303.253
303.256
303.259
303.262
303.266
303.269
303.271
303.273
303.276
303.279
303.283
303.286
303.289
303.292
303.295
303.298
303.301
303.304
303.307
303.309
303.312
303.315
303.317
303.319
303.321
303.323
303.325
303.326
303.328
303.329
303.329
303.33
303.33
303.33
303.33
303.33
303.329
303.328
303.327
303.326
303.324
303.322
303.32
303.318
303.316
303.313
303.312
303.315
303.333
303.385
303.438
303.479
303.508
303.529
303.544
303.557
303.57
303.586
303.603
302.834
302.874
302.925
302.974
303.016
303.053
303.084
303.106
303.107
303.049
302.893
302.811
302.799
302.821
302.857
302.896
302.935
302.971
303.004
303.034
303.06
303.082
303.102
303.118
303.131
303.142
303.15
303.157
303.162
303.166
303.169
303.172
303.175
303.177
303.18
303.183
303.186
303.188
303.19
303.193
303.197
303.202
303.206
303.209
303.213
303.217
303.221
303.226
303.23
303.235
303.24
303.244
303.249
303.253
303.257
303.262
303.266
303.269
303.273
303.277
303.28
303.283
303.286
303.289
303.291
303.294
303.296
303.297
303.298
303.299
303.3
303.3
303.3
303.3
303.299
303.298
303.297
303.297
303.302
303.323
303.381
303.439
303.485
303.517
303.54
303.557
303.571
303.586
303.607
303.629
302.808
302.847
302.898
302.945
302.988
303.024
303.054
303.075
303.074
303.011
302.847
302.76
302.745
302.767
302.804
302.845
302.885
302.922
302.956
302.987
303.014
303.037
303.056
303.073
303.086
303.097
303.105
303.111
303.116
303.119
303.122
303.124
303.125
303.127
303.129
303.132
303.135
303.136
303.138
303.141
303.144
303.149
303.154
303.157
303.16
303.164
303.169
303.173
303.178
303.183
303.188
303.193
303.197
303.202
303.207
303.211
303.216
303.22
303.224
303.229
303.233
303.237
303.241
303.245
303.249
303.253
303.257
303.26
303.264
303.268
303.271
303.274
303.278
303.281
303.284
303.286
303.289
303.293
303.302
303.327
303.384
303.441
303.485
303.517
303.539
303.556
303.572
303.589
303.614
303.641
302.782
302.821
302.87
302.918
302.959
302.995
303.025
303.046
303.043
302.98
302.816
302.728
302.713
302.734
302.771
302.812
302.852
302.889
302.923
302.954
302.98
303.004
303.023
303.039
303.052
303.063
303.071
303.077
303.081
303.084
303.086
303.088
303.089
303.09
303.092
303.095
303.097
303.099
303.1
303.102
303.105
303.11
303.114
303.117
303.12
303.124
303.128
303.133
303.138
303.142
303.147
303.151
303.156
303.16
303.164
303.168
303.172
303.176
303.179
303.183
303.187
303.19
303.193
303.197
303.2
303.203
303.206
303.209
303.212
303.215
303.218
303.221
303.224
303.226
303.229
303.232
303.235
303.239
303.248
303.272
303.327
303.382
303.425
303.455
303.477
303.495
303.511
303.53
303.556
303.584
302.756
302.794
302.843
302.89
302.931
302.967
302.996
303.016
303.014
302.951
302.789
302.701
302.686
302.708
302.744
302.784
302.824
302.861
302.895
302.925
302.951
302.974
302.993
303.009
303.022
303.032
303.04
303.046
303.051
303.054
303.055
303.056
303.057
303.058
303.06
303.063
303.065
303.066
303.067
303.069
303.072
303.077
303.082
303.085
303.087
303.091
303.095
303.1
303.105
303.11
303.115
303.119
303.123
303.127
303.131
303.136
303.139
303.143
303.147
303.15
303.154
303.157
303.16
303.163
303.166
303.169
303.172
303.175
303.178
303.18
303.183
303.185
303.188
303.19
303.192
303.194
303.196
303.199
303.207
303.229
303.283
303.335
303.375
303.403
303.423
303.439
303.454
303.473
303.497
303.523
302.731
302.768
302.817
302.863
302.903
302.939
302.968
302.988
302.985
302.923
302.763
302.677
302.662
302.683
302.719
302.759
302.798
302.834
302.868
302.897
302.924
302.946
302.965
302.981
302.993
303.003
303.011
303.017
303.022
303.024
303.026
303.027
303.027
303.028
303.03
303.033
303.035
303.036
303.036
303.038
303.042
303.047
303.052
303.055
303.057
303.061
303.066
303.072
303.077
303.082
303.087
303.091
303.096
303.1
303.105
303.109
303.113
303.117
303.121
303.125
303.129
303.133
303.136
303.14
303.144
303.147
303.151
303.154
303.157
303.161
303.164
303.167
303.171
303.174
303.177
303.18
303.183
303.188
303.196
303.22
303.272
303.324
303.363
303.39
303.41
303.426
303.441
303.459
303.484
303.511
302.706
302.743
302.791
302.836
302.876
302.911
302.94
302.959
302.957
302.897
302.739
302.654
302.64
302.661
302.696
302.735
302.773
302.809
302.842
302.871
302.897
302.919
302.937
302.952
302.965
302.974
302.982
302.988
302.993
302.996
302.997
302.998
302.998
302.999
303
303.003
303.005
303.006
303.006
303.008
303.011
303.016
303.022
303.025
303.028
303.033
303.038
303.044
303.05
303.056
303.061
303.065
303.07
303.074
303.079
303.084
303.088
303.093
303.097
303.101
303.105
303.109
303.113
303.117
303.121
303.125
303.129
303.133
303.137
303.141
303.145
303.149
303.153
303.157
303.161
303.165
303.169
303.175
303.185
303.21
303.264
303.316
303.355
303.384
303.404
303.42
303.436
303.455
303.481
303.509
302.681
302.718
302.765
302.81
302.849
302.883
302.912
302.932
302.93
302.872
302.718
302.637
302.623
302.644
302.678
302.716
302.754
302.789
302.82
302.848
302.873
302.894
302.911
302.926
302.937
302.946
302.953
302.959
302.963
302.966
302.968
302.968
302.968
302.968
302.969
302.971
302.973
302.974
302.973
302.975
302.978
302.984
302.989
302.993
302.996
303.002
303.008
303.015
303.022
303.027
303.032
303.037
303.041
303.046
303.051
303.055
303.059
303.063
303.067
303.071
303.074
303.078
303.081
303.085
303.088
303.091
303.095
303.098
303.101
303.105
303.108
303.111
303.114
303.118
303.121
303.124
303.127
303.132
303.141
303.165
303.218
303.271
303.312
303.34
303.361
303.377
303.392
303.41
303.434
303.46
302.657
302.693
302.739
302.784
302.823
302.857
302.885
302.905
302.905
302.853
302.711
302.636
302.625
302.645
302.678
302.714
302.749
302.781
302.81
302.836
302.858
302.877
302.892
302.904
302.914
302.921
302.927
302.932
302.936
302.939
302.941
302.941
302.94
302.94
302.94
302.941
302.943
302.943
302.943
302.944
302.947
302.952
302.958
302.962
302.966
302.972
302.98
302.988
302.995
303.001
303.006
303.01
303.015
303.019
303.024
303.028
303.031
303.034
303.037
303.039
303.041
303.043
303.045
303.047
303.048
303.05
303.052
303.053
303.055
303.056
303.058
303.059
303.061
303.062
303.063
303.064
303.065
303.067
303.074
303.095
303.148
303.2
303.241
303.27
303.291
303.307
303.321
303.337
303.357
303.379
302.633
302.669
302.714
302.758
302.797
302.83
302.858
302.88
302.885
302.849
302.741
302.687
302.681
302.7
302.728
302.758
302.787
302.814
302.837
302.858
302.875
302.89
302.902
302.911
302.918
302.924
302.928
302.933
302.936
302.94
302.942
302.943
302.943
302.943
302.943
302.945
302.947
302.946
302.946
302.947
302.95
302.954
302.96
302.964
302.968
302.975
302.983
302.991
302.998
303.003
303.008
303.012
303.017
303.021
303.025
303.028
303.031
303.033
303.034
303.036
303.036
303.037
303.037
303.037
303.038
303.038
303.038
303.038
303.038
303.038
303.038
303.038
303.038
303.038
303.037
303.037
303.037
303.037
303.042
303.059
303.104
303.149
303.184
303.21
303.228
303.242
303.254
303.266
303.283
303.3
302.609
302.645
302.69
302.733
302.771
302.804
302.832
302.856
302.87
302.867
302.838
302.825
302.831
302.846
302.864
302.883
302.902
302.919
302.934
302.948
302.96
302.97
302.98
302.987
302.994
303
303.005
303.011
303.016
303.022
303.027
303.03
303.032
303.033
303.035
303.038
303.041
303.042
303.042
303.043
303.045
303.05
303.054
303.057
303.059
303.064
303.07
303.075
303.079
303.082
303.084
303.087
303.09
303.093
303.096
303.099
303.101
303.103
303.105
303.106
303.107
303.108
303.109
303.109
303.11
303.11
303.11
303.111
303.111
303.111
303.111
303.111
303.111
303.111
303.111
303.111
303.111
303.112
303.114
303.122
303.14
303.159
303.174
303.186
303.195
303.202
303.209
303.217
303.229
303.242
302.586
302.621
302.665
302.708
302.745
302.778
302.806
302.831
302.85
302.863
302.868
302.876
302.887
302.901
302.915
302.929
302.943
302.955
302.966
302.977
302.986
302.995
303.003
303.01
303.017
303.023
303.029
303.034
303.041
303.047
303.054
303.059
303.062
303.065
303.067
303.07
303.074
303.075
303.075
303.077
303.079
303.082
303.086
303.088
303.089
303.093
303.098
303.101
303.103
303.104
303.105
303.107
303.11
303.113
303.116
303.119
303.121
303.123
303.125
303.127
303.128
303.13
303.131
303.132
303.133
303.134
303.134
303.135
303.136
303.136
303.137
303.137
303.137
303.138
303.138
303.138
303.139
303.139
303.141
303.144
303.15
303.156
303.162
303.166
303.17
303.174
303.178
303.185
303.195
303.208
302.563
302.597
302.641
302.683
302.72
302.752
302.781
302.805
302.827
302.845
302.859
302.873
302.887
302.901
302.914
302.926
302.938
302.948
302.958
302.967
302.976
302.984
302.992
302.999
303.006
303.012
303.017
303.023
303.029
303.036
303.043
303.05
303.054
303.057
303.06
303.063
303.067
303.068
303.068
303.069
303.07
303.072
303.076
303.076
303.077
303.081
303.084
303.087
303.088
303.088
303.089
303.091
303.094
303.098
303.101
303.104
303.106
303.109
303.111
303.113
303.115
303.117
303.118
303.12
303.121
303.122
303.123
303.124
303.125
303.126
303.127
303.128
303.128
303.129
303.13
303.13
303.131
303.132
303.134
303.136
303.138
303.141
303.144
303.146
303.149
303.152
303.156
303.162
303.173
303.187
302.54
302.573
302.617
302.658
302.695
302.727
302.755
302.779
302.801
302.82
302.837
302.853
302.867
302.881
302.893
302.905
302.916
302.926
302.936
302.945
302.953
302.961
302.968
302.976
302.982
302.989
302.994
303
303.006
303.013
303.02
303.027
303.032
303.036
303.038
303.042
303.046
303.046
303.045
303.044
303.043
303.044
303.045
303.044
303.044
303.046
303.049
303.05
303.05
303.05
303.051
303.053
303.056
303.059
303.062
303.064
303.067
303.069
303.071
303.073
303.075
303.077
303.079
303.08
303.081
303.083
303.084
303.085
303.086
303.087
303.089
303.09
303.091
303.092
303.093
303.095
303.096
303.098
303.1
303.102
303.104
303.107
303.109
303.112
303.115
303.119
303.123
303.13
303.142
303.158
302.517
302.55
302.593
302.634
302.67
302.701
302.729
302.753
302.775
302.794
302.812
302.828
302.842
302.855
302.868
302.879
302.89
302.9
302.909
302.918
302.927
302.934
302.942
302.949
302.956
302.962
302.968
302.975
302.981
302.987
302.994
303.001
303.007
303.01
303.013
303.017
303.02
303.019
303.015
303.01
303.004
302.999
302.996
302.992
302.989
302.99
302.99
302.99
302.989
302.988
302.989
302.99
302.992
302.994
302.996
302.998
303
303.002
303.004
303.006
303.007
303.009
303.011
303.012
303.014
303.015
303.017
303.018
303.02
303.022
303.024
303.026
303.028
303.03
303.032
303.035
303.037
303.04
303.043
303.046
303.049
303.053
303.057
303.06
303.064
303.069
303.074
303.083
303.095
303.111
302.495
302.527
302.569
302.609
302.645
302.676
302.703
302.727
302.749
302.768
302.786
302.801
302.816
302.829
302.841
302.853
302.863
302.873
302.883
302.891
302.899
302.907
302.915
302.922
302.929
302.935
302.942
302.949
302.955
302.962
302.969
302.975
302.981
302.985
302.988
302.991
302.993
302.989
302.978
302.962
302.944
302.928
302.917
302.907
302.901
302.898
302.897
302.895
302.894
302.893
302.893
302.895
302.896
302.898
302.9
302.903
302.906
302.909
302.912
302.914
302.917
302.92
302.923
302.926
302.929
302.932
302.935
302.938
302.942
302.945
302.948
302.952
302.955
302.958
302.962
302.966
302.97
302.973
302.978
302.982
302.986
302.99
302.995
302.999
303.004
303.01
303.016
303.024
303.037
303.052
302.473
302.505
302.546
302.586
302.621
302.652
302.679
302.703
302.724
302.743
302.76
302.776
302.79
302.803
302.815
302.827
302.837
302.847
302.856
302.865
302.873
302.881
302.888
302.895
302.902
302.909
302.916
302.923
302.93
302.937
302.945
302.952
302.958
302.962
302.965
302.966
302.964
302.95
302.917
302.875
302.835
302.805
302.789
302.777
302.77
302.769
302.769
302.771
302.773
302.775
302.779
302.783
302.788
302.793
302.799
302.805
302.81
302.816
302.822
302.827
302.833
302.838
302.843
302.848
302.853
302.857
302.862
302.867
302.871
302.876
302.881
302.885
302.89
302.894
302.898
302.903
302.907
302.912
302.917
302.921
302.926
302.931
302.935
302.94
302.945
302.951
302.957
302.965
302.977
302.991
302.453
302.484
302.525
302.564
302.599
302.629
302.656
302.679
302.7
302.719
302.736
302.752
302.766
302.779
302.791
302.802
302.813
302.822
302.832
302.84
302.849
302.856
302.864
302.871
302.877
302.884
302.892
302.899
302.906
302.914
302.922
302.929
302.936
302.941
302.944
302.943
302.933
302.896
302.824
302.741
302.675
302.636
302.623
302.622
302.626
302.634
302.645
302.655
302.666
302.676
302.686
302.696
302.705
302.714
302.724
302.733
302.741
302.75
302.757
302.764
302.771
302.778
302.784
302.79
302.796
302.802
302.808
302.813
302.818
302.824
302.829
302.834
302.838
302.843
302.848
302.852
302.857
302.861
302.866
302.87
302.875
302.879
302.883
302.888
302.892
302.897
302.903
302.91
302.921
302.933
302.434
302.466
302.506
302.545
302.579
302.609
302.635
302.659
302.679
302.698
302.715
302.73
302.744
302.757
302.769
302.78
302.791
302.8
302.81
302.818
302.827
302.834
302.842
302.849
302.856
302.862
302.869
302.877
302.885
302.893
302.901
302.909
302.917
302.923
302.926
302.921
302.891
302.79
302.581
302.43
302.353
302.355
302.435
302.486
302.515
302.539
302.561
302.58
302.598
302.615
302.63
302.644
302.657
302.669
302.68
302.691
302.701
302.709
302.718
302.725
302.733
302.74
302.747
302.753
302.759
302.765
302.771
302.777
302.782
302.787
302.792
302.797
302.802
302.806
302.81
302.815
302.819
302.823
302.826
302.83
302.834
302.838
302.841
302.845
302.848
302.852
302.857
302.864
302.873
302.884
302.419
302.45
302.49
302.529
302.563
302.592
302.618
302.641
302.662
302.68
302.697
302.712
302.726
302.739
302.751
302.762
302.773
302.782
302.792
302.8
302.809
302.817
302.824
302.831
302.838
302.845
302.851
302.859
302.866
302.874
302.883
302.891
302.9
302.907
302.91
302.899
302.841
302.647
302.232
302.006
301.938
302.017
302.27
302.4
302.456
302.49
302.516
302.539
302.56
302.58
302.597
302.613
302.628
302.642
302.654
302.666
302.676
302.686
302.695
302.703
302.711
302.718
302.725
302.732
302.738
302.744
302.75
302.756
302.761
302.766
302.771
302.776
302.78
302.785
302.789
302.792
302.796
302.799
302.802
302.805
302.808
302.81
302.813
302.816
302.818
302.821
302.825
302.83
302.838
302.848
302.408
302.438
302.478
302.516
302.55
302.58
302.605
302.628
302.649
302.667
302.684
302.699
302.713
302.726
302.738
302.749
302.759
302.769
302.778
302.787
302.796
302.804
302.811
302.819
302.826
302.832
302.839
302.846
302.853
302.861
302.869
302.878
302.886
302.893
302.896
302.879
302.797
302.52
301.925
301.64
301.586
301.741
302.16
302.363
302.439
302.476
302.5
302.522
302.541
302.56
302.577
302.594
302.609
302.624
302.638
302.65
302.662
302.673
302.683
302.693
302.701
302.709
302.717
302.724
302.731
302.737
302.743
302.75
302.755
302.761
302.766
302.771
302.776
302.78
302.784
302.788
302.791
302.794
302.796
302.799
302.801
302.802
302.804
302.805
302.807
302.808
302.811
302.815
302.822
302.831
302.4
302.431
302.47
302.508
302.542
302.571
302.597
302.62
302.64
302.659
302.675
302.691
302.705
302.718
302.73
302.741
302.751
302.761
302.77
302.779
302.788
302.796
302.804
302.812
302.819
302.826
302.832
302.839
302.846
302.853
302.861
302.868
302.873
302.879
302.879
302.857
302.759
302.438
301.748
301.434
301.394
301.605
302.135
302.386
302.471
302.502
302.518
302.531
302.544
302.557
302.571
302.585
302.599
302.614
302.628
302.641
302.653
302.666
302.68
302.692
302.702
302.711
302.719
302.727
302.735
302.742
302.75
302.757
302.764
302.771
302.778
302.784
302.79
302.795
302.8
302.804
302.808
302.811
302.813
302.815
302.816
302.817
302.818
302.818
302.818
302.818
302.819
302.821
302.827
302.835
302.396
302.427
302.466
302.504
302.537
302.567
302.593
302.615
302.636
302.654
302.671
302.686
302.701
302.714
302.726
302.737
302.748
302.758
302.767
302.776
302.785
302.794
302.802
302.81
302.817
302.825
302.831
302.838
302.844
302.85
302.856
302.859
302.856
302.856
302.851
302.822
302.716
302.381
301.671
301.353
301.33
301.585
302.198
302.481
302.564
302.582
302.582
302.58
302.581
302.584
302.589
302.597
302.606
302.617
302.628
302.639
302.652
302.667
302.687
302.701
302.712
302.722
302.731
302.74
302.749
302.758
302.767
302.777
302.786
302.795
302.803
302.812
302.82
302.827
302.834
302.839
302.844
302.848
302.851
302.853
302.854
302.853
302.852
302.851
302.849
302.847
302.846
302.847
302.852
302.86
302.395
302.425
302.465
302.503
302.536
302.565
302.591
302.614
302.634
302.653
302.669
302.685
302.699
302.712
302.725
302.736
302.747
302.757
302.767
302.777
302.786
302.795
302.803
302.812
302.82
302.827
302.834
302.839
302.844
302.848
302.851
302.849
302.837
302.828
302.812
302.771
302.655
302.319
301.618
301.308
301.298
301.583
302.252
302.567
302.665
302.683
302.677
302.666
302.656
302.649
302.644
302.644
302.645
302.649
302.655
302.662
302.671
302.684
302.705
302.72
302.731
302.741
302.751
302.761
302.772
302.783
302.794
302.806
302.817
302.829
302.84
302.851
302.861
302.871
302.879
302.885
302.89
302.894
302.896
302.896
302.895
302.893
302.89
302.886
302.883
302.88
302.877
302.877
302.882
302.89
302.396
302.426
302.465
302.503
302.537
302.566
302.591
302.614
302.635
302.653
302.67
302.685
302.699
302.712
302.725
302.736
302.747
302.758
302.768
302.778
302.787
302.797
302.806
302.815
302.824
302.831
302.836
302.839
302.84
302.84
302.837
302.827
302.805
302.782
302.745
302.671
302.511
302.168
301.496
301.203
301.201
301.493
302.176
302.53
302.687
302.736
302.738
302.726
302.712
302.701
302.693
302.689
302.686
302.686
302.688
302.691
302.698
302.71
302.73
302.745
302.756
302.767
302.778
302.79
302.802
302.815
302.829
302.842
302.855
302.868
302.88
302.891
302.9
302.907
302.911
302.914
302.915
302.915
302.913
302.911
302.908
302.905
302.901
302.898
302.895
302.892
302.891
302.892
302.897
302.905
302.397
302.427
302.466
302.504
302.538
302.567
302.593
302.615
302.636
302.654
302.671
302.686
302.7
302.713
302.725
302.737
302.748
302.759
302.769
302.779
302.789
302.798
302.808
302.818
302.826
302.832
302.833
302.83
302.823
302.813
302.801
302.783
302.751
302.71
302.634
302.46
302.104
301.714
301.152
300.915
300.917
301.17
301.774
302.207
302.593
302.751
302.78
302.768
302.748
302.732
302.721
302.716
302.714
302.713
302.715
302.718
302.725
302.738
302.759
302.775
302.788
302.8
302.813
302.826
302.839
302.852
302.865
302.877
302.888
302.896
302.903
302.906
302.908
302.909
302.908
302.907
302.905
302.902
302.9
302.898
302.896
302.894
302.892
302.89
302.889
302.888
302.888
302.891
302.897
302.906
302.398
302.428
302.467
302.505
302.539
302.568
302.594
302.616
302.637
302.655
302.672
302.687
302.701
302.714
302.727
302.738
302.749
302.76
302.77
302.78
302.79
302.8
302.81
302.819
302.825
302.823
302.809
302.789
302.766
302.746
302.731
302.71
302.676
302.624
302.49
302.092
301.19
300.648
300.298
300.158
300.162
300.314
300.698
301.297
302.289
302.696
302.788
302.785
302.763
302.745
302.735
302.731
302.732
302.735
302.74
302.747
302.756
302.771
302.794
302.811
302.824
302.836
302.847
302.858
302.867
302.874
302.879
302.883
302.885
302.886
302.886
302.885
302.884
302.882
302.88
302.879
302.877
302.876
302.875
302.875
302.874
302.874
302.874
302.874
302.875
302.875
302.877
302.881
302.888
302.897
302.398
302.428
302.468
302.506
302.539
302.568
302.594
302.617
302.637
302.656
302.672
302.688
302.702
302.715
302.727
302.739
302.75
302.761
302.771
302.782
302.792
302.802
302.811
302.818
302.817
302.798
302.755
302.703
302.659
302.635
302.624
302.617
302.598
302.557
302.407
301.899
300.738
300.107
299.835
299.741
299.744
299.847
300.145
300.835
302.103
302.649
302.786
302.795
302.777
302.76
302.75
302.747
302.75
302.756
302.765
302.773
302.783
302.797
302.818
302.831
302.838
302.843
302.847
302.85
302.852
302.853
302.853
302.853
302.853
302.852
302.851
302.85
302.849
302.849
302.848
302.848
302.848
302.849
302.85
302.851
302.852
302.853
302.855
302.856
302.858
302.86
302.863
302.867
302.874
302.883
302.398
302.428
302.467
302.505
302.539
302.568
302.594
302.617
302.637
302.656
302.672
302.688
302.702
302.715
302.727
302.739
302.75
302.761
302.772
302.782
302.792
302.802
302.811
302.812
302.791
302.71
302.537
302.416
302.362
302.379
302.471
302.522
302.536
302.516
302.373
301.833
300.584
299.917
299.661
299.581
299.583
299.671
299.949
300.672
302.027
302.622
302.78
302.797
302.78
302.763
302.751
302.747
302.748
302.752
302.759
302.766
302.774
302.785
302.802
302.811
302.814
302.816
302.817
302.817
302.817
302.817
302.817
302.817
302.817
302.817
302.818
302.819
302.819
302.82
302.822
302.823
302.825
302.827
302.829
302.831
302.834
302.836
302.839
302.841
302.843
302.846
302.85
302.855
302.862
302.87
302.397
302.427
302.467
302.505
302.538
302.568
302.593
302.616
302.636
302.655
302.672
302.687
302.701
302.714
302.727
302.738
302.75
302.761
302.771
302.782
302.792
302.801
302.808
302.801
302.75
302.571
302.183
301.98
301.93
302.028
302.309
302.45
302.498
302.494
302.359
301.814
300.54
299.861
299.607
299.53
299.532
299.616
299.89
300.624
302.002
302.613
302.777
302.794
302.776
302.756
302.741
302.733
302.731
302.732
302.736
302.741
302.747
302.757
302.773
302.78
302.783
302.785
302.785
302.786
302.787
302.788
302.789
302.79
302.791
302.793
302.795
302.797
302.799
302.801
302.804
302.806
302.809
302.812
302.815
302.818
302.821
302.824
302.828
302.831
302.834
302.837
302.841
302.846
302.853
302.862
302.397
302.427
302.466
302.504
302.538
302.567
302.593
302.615
302.636
302.654
302.671
302.686
302.7
302.713
302.726
302.738
302.749
302.76
302.77
302.781
302.791
302.8
302.804
302.79
302.71
302.439
301.855
301.581
301.541
301.72
302.181
302.405
302.478
302.481
302.347
301.803
300.53
299.851
299.599
299.524
299.526
299.608
299.881
300.618
302.003
302.62
302.785
302.802
302.781
302.757
302.739
302.727
302.721
302.72
302.721
302.725
302.73
302.739
302.755
302.763
302.766
302.768
302.769
302.77
302.771
302.773
302.774
302.776
302.778
302.781
302.783
302.786
302.788
302.791
302.794
302.797
302.801
302.804
302.808
302.811
302.815
302.819
302.822
302.826
302.829
302.833
302.837
302.843
302.851
302.859
302.396
302.426
302.466
302.504
302.537