/*--------------------------------*- C++ -*----------------------------------*\
| =========                 |                                                 |
| \\      /  F ield         | OpenFOAM: The Open Source CFD Toolbox           |
|  \\    /   O peration     | Version:  v2012                                 |
|   \\  /    A nd           | Website:  www.openfoam.com                      |
|    \\/     M anipulation  |                                                 |
\*---------------------------------------------------------------------------*/
FoamFile
{
    version     2.0;
    format      ascii;
    class       volScalarField;
    location    "200/soil2";
    object      T;
}
// * * * * * * * * * * * * * * * * * * * * * * * * * * * * * * * * * * * * * //

dimensions      [0 0 0 1 0 0 0];


internalField   nonuniform List<scalar> 
10496
(
326.862
327.479
328.019
328.43
328.729
328.945
329.102
329.221
329.321
329.424
329.542
329.675
329.816
329.958
330.094
330.222
330.34
330.45
330.553
330.65
330.741
330.828
330.91
330.988
331.062
331.132
331.198
331.262
331.322
331.381
331.437
331.493
331.548
331.601
331.653
331.703
331.753
331.801
331.848
331.894
331.939
331.984
332.029
332.074
332.118
332.161
332.204
332.247
332.289
332.332
332.375
332.42
332.467
332.517
332.57
332.626
332.686
332.748
332.811
332.873
332.933
332.99
333.042
333.091
333.134
333.173
333.207
333.238
333.266
333.292
333.317
333.341
333.365
333.389
333.415
333.446
333.49
333.557
333.655
333.788
333.95
334.132
334.319
334.501
334.664
334.792
334.878
334.964
335.171
335.648
326.612
327.213
327.737
328.133
328.418
328.622
328.768
328.876
328.966
329.06
329.169
329.294
329.428
329.562
329.691
329.812
329.924
330.027
330.124
330.215
330.3
330.381
330.457
330.529
330.598
330.662
330.723
330.781
330.836
330.89
330.943
330.995
331.046
331.095
331.142
331.187
331.231
331.275
331.317
331.359
331.4
331.44
331.481
331.521
331.561
331.6
331.638
331.677
331.715
331.754
331.792
331.832
331.873
331.917
331.964
332.014
332.067
332.123
332.181
332.239
332.295
332.348
332.397
332.441
332.481
332.517
332.548
332.576
332.601
332.624
332.646
332.667
332.688
332.71
332.733
332.761
332.803
332.867
332.963
333.094
333.254
333.434
333.621
333.801
333.963
334.089
334.173
334.259
334.477
334.992
326.348
326.939
327.454
327.842
328.12
328.317
328.457
328.56
328.646
328.735
328.84
328.961
329.092
329.223
329.348
329.466
329.575
329.676
329.77
329.858
329.941
330.019
330.093
330.163
330.229
330.291
330.35
330.405
330.458
330.509
330.56
330.61
330.66
330.707
330.753
330.796
330.838
330.879
330.92
330.959
330.998
331.037
331.075
331.113
331.151
331.188
331.225
331.261
331.297
331.334
331.37
331.408
331.446
331.487
331.53
331.577
331.627
331.68
331.734
331.789
331.843
331.894
331.941
331.984
332.021
332.055
332.084
332.109
332.132
332.153
332.172
332.192
332.21
332.229
332.25
332.276
332.316
332.377
332.471
332.599
332.758
332.936
333.12
333.299
333.459
333.583
333.665
333.751
333.971
334.482
326.085
326.668
327.175
327.556
327.828
328.02
328.156
328.254
328.336
328.423
328.525
328.643
328.771
328.9
329.023
329.139
329.246
329.345
329.437
329.523
329.605
329.682
329.754
329.823
329.887
329.948
330.005
330.059
330.11
330.16
330.21
330.259
330.308
330.355
330.4
330.441
330.482
330.522
330.562
330.6
330.638
330.675
330.712
330.749
330.786
330.822
330.858
330.893
330.928
330.964
330.999
331.035
331.072
331.11
331.151
331.195
331.242
331.293
331.345
331.399
331.451
331.501
331.547
331.588
331.625
331.657
331.685
331.709
331.731
331.751
331.769
331.787
331.805
331.823
331.842
331.867
331.905
331.965
332.057
332.184
332.342
332.518
332.701
332.879
333.037
333.16
333.241
333.325
333.541
334.041
325.825
326.4
326.899
327.274
327.54
327.726
327.858
327.953
328.031
328.114
328.214
328.329
328.455
328.582
328.703
328.817
328.922
329.02
329.11
329.195
329.275
329.351
329.422
329.49
329.553
329.613
329.669
329.722
329.772
329.821
329.869
329.917
329.965
330.011
330.055
330.097
330.136
330.175
330.214
330.251
330.288
330.324
330.36
330.396
330.432
330.467
330.501
330.536
330.57
330.605
330.639
330.674
330.709
330.746
330.785
330.826
330.871
330.919
330.969
331.02
331.071
331.12
331.164
331.205
331.24
331.271
331.298
331.322
331.342
331.361
331.379
331.396
331.413
331.429
331.448
331.471
331.508
331.567
331.657
331.783
331.939
332.115
332.296
332.472
332.63
332.751
332.831
332.914
333.125
333.612
325.569
326.135
326.627
326.995
327.255
327.437
327.565
327.655
327.731
327.811
327.907
328.02
328.144
328.268
328.388
328.5
328.604
328.7
328.789
328.873
328.952
329.026
329.096
329.162
329.225
329.284
329.339
329.392
329.442
329.491
329.538
329.584
329.629
329.674
329.717
329.758
329.797
329.835
329.872
329.908
329.944
329.98
330.014
330.049
330.084
330.118
330.151
330.184
330.218
330.251
330.284
330.318
330.352
330.387
330.423
330.462
330.504
330.549
330.596
330.645
330.694
330.741
330.784
330.823
330.857
330.887
330.913
330.935
330.955
330.973
330.989
331.005
331.02
331.035
331.051
331.073
331.107
331.164
331.253
331.377
331.532
331.706
331.887
332.062
332.218
332.339
332.418
332.5
332.706
333.179
325.317
325.874
326.359
326.721
326.975
327.153
327.276
327.363
327.435
327.512
327.605
327.715
327.836
327.958
328.076
328.187
328.289
328.384
328.472
328.555
328.632
328.706
328.775
328.84
328.901
328.959
329.014
329.068
329.119
329.168
329.215
329.259
329.301
329.343
329.385
329.425
329.463
329.499
329.534
329.569
329.604
329.638
329.672
329.704
329.737
329.769
329.8
329.832
329.864
329.895
329.927
329.959
329.991
330.023
330.057
330.092
330.13
330.171
330.214
330.259
330.305
330.35
330.391
330.429
330.461
330.489
330.512
330.531
330.547
330.561
330.573
330.584
330.595
330.606
330.618
330.636
330.668
330.722
330.808
330.931
331.084
331.257
331.437
331.612
331.767
331.888
331.968
332.05
332.251
332.706
325.067
325.616
326.094
326.45
326.699
326.872
326.991
327.074
327.142
327.214
327.301
327.406
327.523
327.643
327.76
327.869
327.971
328.065
328.153
328.236
328.313
328.386
328.455
328.519
328.58
328.637
328.692
328.746
328.799
328.85
328.897
328.94
328.979
329.017
329.055
329.094
329.131
329.164
329.196
329.228
329.26
329.293
329.324
329.352
329.381
329.41
329.438
329.466
329.494
329.522
329.55
329.578
329.605
329.633
329.661
329.691
329.722
329.756
329.793
329.832
329.871
329.91
329.945
329.977
330.003
330.025
330.042
330.056
330.066
330.075
330.083
330.09
330.096
330.103
330.112
330.127
330.156
330.208
330.292
330.412
330.565
330.737
330.917
331.09
331.244
331.363
331.442
331.524
331.72
332.148
324.822
325.362
325.833
326.182
326.426
326.595
326.71
326.789
326.852
326.912
326.971
327.058
327.165
327.282
327.398
327.509
327.614
327.713
327.805
327.892
327.974
328.051
328.123
328.191
328.253
328.311
328.367
328.423
328.478
328.532
328.58
328.622
328.658
328.689
328.722
328.757
328.79
328.818
328.844
328.872
328.9
328.93
328.959
328.98
329.002
329.027
329.05
329.073
329.096
329.118
329.141
329.164
329.186
329.208
329.231
329.254
329.279
329.306
329.336
329.368
329.402
329.434
329.465
329.491
329.513
329.53
329.543
329.552
329.558
329.562
329.566
329.568
329.571
329.574
329.579
329.591
329.616
329.664
329.746
329.865
330.023
330.2
330.382
330.557
330.711
330.829
330.906
330.987
331.178
331.567
324.58
325.112
325.575
325.919
326.157
326.321
326.432
326.506
326.558
326.576
326.408
326.374
326.428
326.531
326.657
326.792
326.929
327.062
327.19
327.311
327.424
327.53
327.627
327.715
327.794
327.865
327.93
327.993
328.055
328.116
328.171
328.217
328.254
328.286
328.318
328.353
328.387
328.412
328.436
328.463
328.491
328.523
328.554
328.572
328.591
328.614
328.636
328.658
328.679
328.699
328.72
328.74
328.761
328.781
328.8
328.82
328.841
328.864
328.889
328.916
328.945
328.974
329.001
329.024
329.043
329.058
329.068
329.074
329.078
329.08
329.081
329.081
329.082
329.083
329.087
329.096
329.119
329.165
329.246
329.373
329.587
329.813
330.03
330.228
330.397
330.524
330.608
330.696
330.901
331.31
324.341
324.864
325.321
325.658
325.892
326.051
326.158
326.226
326.257
326.102
323.571
323.054
323.122
323.382
323.702
324.027
324.337
324.622
324.879
325.107
325.306
325.478
325.623
325.742
325.839
325.916
325.977
326.028
326.076
326.12
326.159
326.189
326.208
326.219
326.23
326.249
326.27
326.283
326.296
326.316
326.339
326.369
326.398
326.414
326.432
326.457
326.482
326.506
326.53
326.554
326.577
326.601
326.624
326.647
326.668
326.689
326.709
326.731
326.754
326.778
326.804
326.83
326.855
326.878
326.897
326.912
326.924
326.933
326.94
326.945
326.948
326.951
326.953
326.955
326.957
326.964
326.981
327.017
327.083
327.228
328.156
328.904
329.474
329.905
330.228
330.457
330.607
330.743
330.999
331.495
324.105
324.62
325.07
325.402
325.63
325.785
325.887
325.951
325.971
325.783
323.135
322.575
322.636
322.904
323.236
323.576
323.9
324.199
324.469
324.709
324.919
325.1
325.252
325.377
325.477
325.554
325.614
325.662
325.705
325.745
325.781
325.81
325.827
325.834
325.84
325.856
325.877
325.89
325.906
325.935
325.97
326.016
326.065
326.096
326.129
326.175
326.222
326.269
326.316
326.365
326.416
326.467
326.517
326.568
326.617
326.665
326.713
326.762
326.811
326.861
326.911
326.962
327.01
327.056
327.097
327.133
327.165
327.192
327.216
327.237
327.255
327.273
327.289
327.304
327.319
327.338
327.368
327.418
327.5
327.668
328.496
329.17
329.686
330.083
330.384
330.599
330.743
330.88
331.156
331.718
323.872
324.38
324.823
325.148
325.371
325.522
325.62
325.68
325.696
325.502
322.879
322.318
322.375
322.638
322.966
323.302
323.623
323.92
324.189
324.428
324.637
324.816
324.966
325.089
325.187
325.262
325.318
325.361
325.397
325.43
325.461
325.486
325.5
325.504
325.505
325.516
325.532
325.536
325.542
325.567
325.597
325.641
325.689
325.711
325.737
325.779
325.821
325.865
325.911
325.959
326.008
326.059
326.109
326.16
326.211
326.262
326.313
326.365
326.418
326.473
326.53
326.587
326.644
326.699
326.751
326.798
326.841
326.879
326.915
326.946
326.975
327.002
327.026
327.049
327.072
327.098
327.134
327.19
327.277
327.448
328.226
328.842
329.305
329.657
329.925
330.119
330.249
330.378
330.643
331.173
323.643
324.142
324.578
324.898
325.116
325.262
325.357
325.413
325.427
325.232
322.646
322.092
322.146
322.405
322.727
323.058
323.374
323.667
323.932
324.168
324.374
324.551
324.699
324.82
324.916
324.991
325.046
325.088
325.12
325.149
325.175
325.197
325.211
325.216
325.217
325.229
325.244
325.24
325.24
325.262
325.29
325.333
325.383
325.4
325.419
325.458
325.497
325.538
325.581
325.625
325.67
325.714
325.758
325.801
325.844
325.885
325.926
325.967
326.007
326.049
326.091
326.133
326.175
326.214
326.25
326.281
326.306
326.327
326.345
326.359
326.37
326.38
326.388
326.394
326.4
326.41
326.429
326.466
326.53
326.659
327.404
327.991
328.434
328.775
329.039
329.234
329.37
329.509
329.776
330.266
323.416
323.907
324.337
324.65
324.864
325.005
325.096
325.149
325.16
324.967
322.42
321.874
321.927
322.181
322.498
322.824
323.135
323.422
323.683
323.915
324.118
324.292
324.438
324.557
324.652
324.726
324.782
324.825
324.856
324.881
324.902
324.92
324.932
324.937
324.941
324.955
324.972
324.964
324.958
324.978
325.004
325.049
325.102
325.116
325.13
325.169
325.208
325.251
325.295
325.34
325.384
325.426
325.468
325.508
325.549
325.589
325.627
325.664
325.7
325.737
325.773
325.808
325.842
325.873
325.9
325.922
325.939
325.952
325.96
325.965
325.967
325.968
325.968
325.966
325.965
325.968
325.981
326.013
326.072
326.196
326.939
327.523
327.964
328.303
328.566
328.76
328.896
329.033
329.3
329.785
323.193
323.675
324.098
324.406
324.614
324.752
324.839
324.889
324.898
324.706
322.197
321.659
321.711
321.961
322.274
322.594
322.9
323.183
323.439
323.668
323.867
324.038
324.181
324.297
324.39
324.464
324.522
324.566
324.599
324.623
324.639
324.651
324.659
324.663
324.669
324.687
324.707
324.695
324.682
324.7
324.726
324.774
324.833
324.845
324.857
324.897
324.939
324.985
325.033
325.08
325.123
325.164
325.204
325.245
325.286
325.327
325.365
325.402
325.438
325.473
325.507
325.542
325.575
325.607
325.634
325.657
325.674
325.686
325.693
325.698
325.7
325.7
325.698
325.696
325.694
325.696
325.709
325.741
325.8
325.922
326.652
327.228
327.664
328.001
328.263
328.456
328.592
328.728
328.992
329.468
322.972
323.446
323.863
324.165
324.368
324.501
324.584
324.631
324.638
324.448
321.978
321.448
321.499
321.746
322.053
322.369
322.67
322.949
323.201
323.426
323.621
323.789
323.928
324.041
324.131
324.204
324.262
324.309
324.346
324.371
324.385
324.391
324.393
324.394
324.4
324.42
324.443
324.427
324.404
324.42
324.447
324.498
324.567
324.58
324.593
324.637
324.685
324.738
324.79
324.839
324.881
324.921
324.961
325.004
325.048
325.091
325.133
325.171
325.208
325.244
325.279
325.313
325.347
325.379
325.408
325.432
325.452
325.467
325.478
325.485
325.49
325.493
325.495
325.495
325.495
325.499
325.513
325.546
325.606
325.729
326.443
327.008
327.437
327.771
328.032
328.225
328.361
328.494
328.748
329.217
322.754
323.22
323.63
323.926
324.125
324.253
324.333
324.377
324.382
324.195
321.765
321.246
321.296
321.539
321.841
322.152
322.449
322.723
322.97
323.189
323.38
323.542
323.676
323.785
323.87
323.939
323.995
324.044
324.083
324.111
324.126
324.128
324.123
324.117
324.119
324.138
324.161
324.14
324.107
324.12
324.146
324.202
324.282
324.302
324.319
324.372
324.43
324.492
324.55
324.599
324.641
324.68
324.722
324.768
324.815
324.862
324.906
324.948
324.988
325.026
325.064
325.101
325.137
325.171
325.203
325.231
325.255
325.274
325.288
325.3
325.308
325.315
325.319
325.323
325.327
325.336
325.355
325.394
325.465
325.611
326.324
326.892
327.325
327.66
327.918
328.104
328.228
328.346
328.587
329.054
322.539
322.997
323.401
323.691
323.885
324.009
324.085
324.126
324.13
323.95
321.572
321.068
321.12
321.359
321.655
321.959
322.249
322.515
322.754
322.963
323.141
323.29
323.411
323.506
323.579
323.634
323.68
323.721
323.757
323.785
323.799
323.797
323.783
323.767
323.758
323.769
323.787
323.763
323.726
323.735
323.762
323.82
323.909
323.941
323.974
324.045
324.123
324.201
324.27
324.325
324.37
324.412
324.459
324.509
324.56
324.609
324.655
324.699
324.742
324.783
324.824
324.863
324.901
324.938
324.973
325.003
325.029
325.05
325.067
325.08
325.089
325.097
325.102
325.106
325.111
325.118
325.137
325.175
325.244
325.393
326.127
326.714
327.158
327.499
327.761
327.949
328.074
328.19
328.424
328.887
322.327
322.777
323.174
323.459
323.648
323.768
323.84
323.879
323.887
323.739
321.53
321.079
321.137
321.363
321.639
321.917
322.177
322.409
322.61
322.778
322.914
323.02
323.1
323.158
323.198
323.227
323.251
323.277
323.306
323.333
323.35
323.349
323.334
323.312
323.294
323.299
323.318
323.303
323.28
323.288
323.312
323.362
323.441
323.483
323.534
323.634
323.745
323.857
323.955
324.037
324.109
324.178
324.245
324.309
324.365
324.413
324.454
324.489
324.52
324.546
324.568
324.588
324.606
324.623
324.637
324.65
324.66
324.667
324.671
324.673
324.672
324.67
324.667
324.663
324.659
324.659
324.67
324.699
324.759
324.894
325.671
326.296
326.774
327.14
327.419
327.617
327.743
327.855
328.077
328.513
322.118
322.559
322.95
323.23
323.413
323.529
323.598
323.636
323.657
323.655
323.53
323.531
323.606
323.711
323.825
323.936
324.043
324.141
324.232
324.316
324.391
324.46
324.521
324.576
324.623
324.666
324.709
324.758
324.818
324.883
324.942
324.981
324.994
324.99
324.987
325.018
325.08
325.117
325.155
325.179
325.191
325.194
325.195
325.177
325.167
325.22
325.279
325.327
325.352
325.362
325.371
325.388
325.417
325.452
325.489
325.524
325.557
325.591
325.623
325.652
325.681
325.709
325.736
325.762
325.788
325.811
325.83
325.845
325.855
325.862
325.867
325.871
325.874
325.876
325.881
325.89
325.913
325.959
326.039
326.165
326.368
326.584
326.794
326.988
327.156
327.281
327.361
327.442
327.639
328.04
321.91
322.344
322.728
323.002
323.181
323.293
323.358
323.394
323.419
323.447
323.483
323.55
323.638
323.736
323.833
323.926
324.014
324.095
324.17
324.24
324.304
324.365
324.421
324.473
324.52
324.561
324.602
324.648
324.706
324.774
324.843
324.895
324.92
324.922
324.927
324.979
325.088
325.18
325.299
325.344
325.343
325.295
325.203
325.14
325.09
325.128
325.178
325.212
325.22
325.215
325.216
325.233
325.265
325.301
325.336
325.369
325.4
325.43
325.459
325.487
325.514
325.539
325.563
325.587
325.609
325.629
325.646
325.66
325.67
325.678
325.684
325.689
325.693
325.698
325.704
325.717
325.743
325.793
325.876
325.997
326.156
326.336
326.521
326.699
326.856
326.974
327.048
327.122
327.308
327.694
321.704
322.129
322.507
322.775
322.95
323.057
323.119
323.152
323.176
323.209
323.261
323.336
323.426
323.521
323.615
323.705
323.788
323.865
323.937
324.004
324.066
324.125
324.181
324.234
324.282
324.325
324.364
324.405
324.456
324.521
324.591
324.65
324.684
324.696
324.722
324.819
324.998
325.155
325.363
325.438
325.424
325.318
325.12
324.992
324.879
324.888
324.929
324.955
324.957
324.952
324.959
324.985
325.023
325.064
325.101
325.136
325.17
325.203
325.235
325.266
325.296
325.324
325.35
325.376
325.4
325.422
325.442
325.457
325.47
325.479
325.486
325.492
325.497
325.501
325.507
325.519
325.544
325.593
325.675
325.793
325.944
326.116
326.294
326.466
326.616
326.728
326.794
326.859
327.032
327.407
321.498
321.915
322.287
322.55
322.719
322.822
322.881
322.911
322.932
322.964
323.017
323.092
323.181
323.276
323.368
323.455
323.537
323.613
323.683
323.747
323.808
323.866
323.922
323.976
324.027
324.073
324.114
324.152
324.196
324.253
324.32
324.379
324.417
324.442
324.502
324.666
324.934
325.151
325.449
325.565
325.533
325.361
325.049
324.842
324.638
324.597
324.618
324.637
324.636
324.634
324.649
324.682
324.723
324.763
324.799
324.834
324.87
324.905
324.939
324.972
325.003
325.033
325.06
325.086
325.111
325.134
325.154
325.17
325.183
325.192
325.198
325.203
325.206
325.209
325.212
325.22
325.24
325.282
325.356
325.464
325.604
325.762
325.926
326.083
326.217
326.312
326.361
326.407
326.559
326.905
321.293
321.702
322.068
322.325
322.489
322.588
322.643
322.67
322.688
322.718
322.77
322.843
322.931
323.023
323.114
323.201
323.281
323.356
323.425
323.488
323.547
323.603
323.658
323.714
323.768
323.819
323.863
323.902
323.944
323.995
324.055
324.11
324.147
324.18
324.279
324.518
324.88
325.142
325.517
325.689
325.619
325.344
324.919
324.629
324.318
324.209
324.201
324.211
324.208
324.208
324.224
324.255
324.29
324.321
324.352
324.382
324.415
324.448
324.48
324.51
324.538
324.565
324.589
324.612
324.632
324.65
324.665
324.676
324.683
324.686
324.685
324.68
324.672
324.663
324.653
324.649
324.655
324.684
324.744
324.839
324.964
325.11
325.262
325.407
325.532
325.619
325.66
325.699
325.837
326.148
321.089
321.49
321.849
322.101
322.26
322.355
322.406
322.43
322.446
322.473
322.522
322.594
322.68
322.771
322.86
322.946
323.026
323.1
323.168
323.23
323.287
323.342
323.396
323.451
323.506
323.56
323.609
323.654
323.698
323.749
323.806
323.856
323.887
323.923
324.048
324.347
324.786
325.078
325.651
325.873
325.705
325.229
324.52
324.131
323.706
323.522
323.473
323.459
323.444
323.435
323.442
323.46
323.48
323.503
323.53
323.562
323.598
323.636
323.673
323.708
323.742
323.773
323.802
323.827
323.85
323.869
323.885
323.895
323.899
323.896
323.89
323.881
323.871
323.859
323.849
323.843
323.849
323.877
323.936
324.03
324.155
324.301
324.454
324.603
324.732
324.824
324.873
324.919
325.06
325.351
320.888
321.28
321.634
321.879
322.034
322.125
322.173
322.193
322.206
322.231
322.278
322.348
322.432
322.521
322.61
322.694
322.773
322.847
322.915
322.977
323.034
323.087
323.14
323.191
323.244
323.297
323.346
323.398
323.449
323.506
323.569
323.618
323.649
323.683
323.813
324.137
324.624
324.903
325.283
325.398
324.974
324.191
323.462
322.997
322.506
322.296
322.24
322.234
322.237
322.253
322.287
322.331
322.38
322.435
322.495
322.56
322.624
322.686
322.743
322.796
322.844
322.887
322.924
322.956
322.983
323.006
323.023
323.034
323.041
323.042
323.039
323.033
323.026
323.019
323.014
323.015
323.029
323.067
323.136
323.242
323.38
323.539
323.707
323.871
324.015
324.123
324.187
324.246
324.393
324.672
320.695
321.079
321.427
321.667
321.818
321.904
321.948
321.966
321.976
321.998
322.043
322.111
322.194
322.282
322.369
322.453
322.532
322.606
322.674
322.736
322.793
322.846
322.896
322.943
322.989
323.036
323.08
323.136
323.195
323.262
323.337
323.394
323.433
323.474
323.598
323.916
324.432
324.71
325.827
325.47
324.629
323.586
321.886
321.457
321.072
320.993
321.043
321.135
321.227
321.316
321.404
321.489
321.573
321.657
321.74
321.819
321.889
321.95
322.004
322.051
322.091
322.124
322.152
322.176
322.196
322.213
322.228
322.241
322.251
322.258
322.265
322.27
322.276
322.283
322.292
322.308
322.338
322.39
322.474
322.594
322.745
322.918
323.099
323.275
323.432
323.552
323.628
323.697
323.849
324.122
320.52
320.897
321.238
321.474
321.62
321.703
321.744
321.758
321.766
321.786
321.829
321.895
321.976
322.063
322.15
322.233
322.312
322.386
322.456
322.519
322.576
322.628
322.676
322.718
322.758
322.801
322.843
322.897
322.96
323.031
323.111
323.178
323.241
323.311
323.446
323.746
324.256
324.29
322.894
321.934
321.117
320.428
320.435
320.328
320.147
320.239
320.397
320.57
320.725
320.856
320.965
321.059
321.142
321.219
321.287
321.34
321.38
321.411
321.436
321.459
321.48
321.501
321.521
321.539
321.557
321.575
321.592
321.609
321.626
321.642
321.658
321.675
321.691
321.709
321.73
321.758
321.799
321.863
321.958
322.088
322.249
322.432
322.622
322.807
322.973
323.101
323.185
323.261
323.417
323.686
320.372
320.743
321.08
321.312
321.454
321.534
321.572
321.584
321.59
321.608
321.649
321.714
321.794
321.88
321.965
322.048
322.127
322.202
322.272
322.337
322.395
322.447
322.494
322.536
322.577
322.629
322.688
322.741
322.799
322.856
322.915
322.988
323.083
323.212
323.395
323.676
324.14
323.798
317.535
316.504
315.929
315.718
319.77
319.978
319.861
319.981
320.117
320.28
320.441
320.579
320.692
320.787
320.869
320.933
320.981
321.011
321.029
321.039
321.047
321.055
321.064
321.075
321.087
321.101
321.116
321.132
321.149
321.168
321.187
321.206
321.226
321.248
321.27
321.295
321.323
321.358
321.406
321.477
321.579
321.715
321.882
322.07
322.266
322.457
322.628
322.762
322.851
322.931
323.088
323.354
320.262
320.628
320.962
321.191
321.331
321.409
321.445
321.456
321.46
321.477
321.518
321.581
321.66
321.746
321.831
321.913
321.992
322.066
322.137
322.204
322.263
322.316
322.364
322.415
322.476
322.561
322.671
322.731
322.778
322.8
322.798
322.861
322.988
323.203
323.471
323.738
324.121
323.429
313.024
311.977
311.65
311.886
319.457
319.966
319.89
319.98
320.03
320.136
320.275
320.411
320.531
320.636
320.725
320.797
320.847
320.876
320.886
320.886
320.882
320.877
320.872
320.869
320.869
320.871
320.876
320.883
320.894
320.908
320.923
320.942
320.962
320.984
321.008
321.034
321.064
321.102
321.153
321.226
321.33
321.469
321.639
321.829
322.028
322.221
322.395
322.531
322.623
322.705
322.863
323.127
320.194
320.557
320.889
321.116
321.254
321.331
321.367
321.377
321.382
321.399
321.44
321.504
321.584
321.67
321.755
321.837
321.916
321.99
322.061
322.128
322.188
322.242
322.3
322.378
322.485
322.625
322.816
322.897
322.934
322.905
322.806
322.836
322.974
323.278
323.644
323.901
324.213
323.334
311.029
309.923
309.741
310.296
319.7
320.393
320.309
320.31
320.212
320.209
320.292
320.406
320.52
320.629
320.732
320.822
320.889
320.931
320.948
320.949
320.947
320.928
320.904
320.88
320.858
320.839
320.825
320.816
320.813
320.815
320.822
320.833
320.848
320.866
320.887
320.912
320.94
320.977
321.027
321.1
321.205
321.343
321.513
321.704
321.902
322.096
322.269
322.406
322.498
322.581
322.739
323.002
320.165
320.527
320.857
321.083
321.221
321.297
321.332
321.343
321.347
321.365
321.407
321.473
321.554
321.642
321.73
321.813
321.893
321.969
322.041
322.108
322.168
322.227
322.307
322.437
322.622
322.828
323.108
323.22
323.244
323.158
322.947
322.91
321.209
321.184
321.137
321.084
321.031
320.983
320.942
320.91
320.887
320.873
320.866
320.866
320.871
320.881
320.895
320.913
320.936
320.968
321.014
321.084
321.185
321.321
321.489
321.678
321.875
322.068
322.24
322.376
322.467
322.549
322.707
322.969
320.166
320.527
320.857
321.083
321.22
321.295
321.33
321.339
321.343
321.361
321.403
321.469
321.552
321.641
321.73
321.816
321.898
321.977
322.051
322.119
322.179
322.248
322.368
322.577
322.865
323.137
323.505
323.659
323.664
323.508
323.175
323.045
321.525
321.496
321.442
321.376
321.306
321.237
321.176
321.125
321.085
321.054
321.033
321.019
321.012
321.01
321.014
321.022
321.036
321.059
321.099
321.162
321.258
321.39
321.554
321.739
321.933
322.122
322.292
322.425
322.514
322.594
322.751
323.014
320.183
320.545
320.875
321.101
321.238
321.313
321.346
321.355
321.358
321.374
321.414
321.479
321.561
321.649
321.738
321.824
321.907
321.987
322.062
322.129
322.189
322.27
322.437
322.737
323.138
323.465
323.91
324.129
324.1
323.837
323.378
323.124
321.682
321.674
321.641
321.597
321.548
321.497
321.447
321.403
321.364
321.331
321.302
321.278
321.257
321.241
321.229
321.224
321.226
321.238
321.267
321.322
321.41
321.534
321.692
321.871
322.06
322.244
322.409
322.537
322.622
322.699
322.853
323.117
320.204
320.566
320.898
321.124
321.261
321.337
321.371
321.379
321.382
321.397
321.437
321.5
321.58
321.667
321.753
321.838
321.919
321.997
322.071
322.135
322.191
322.279
322.48
322.851
323.343
323.715
324.372
324.673
324.574
324.12
323.367
322.971
321.555
321.572
321.569
321.562
321.552
321.539
321.524
321.51
321.497
321.486
321.475
321.465
321.455
321.447
321.44
321.436
321.437
321.446
321.471
321.52
321.602
321.72
321.87
322.042
322.224
322.401
322.559
322.682
322.761
322.832
322.983
323.248
320.219
320.582
320.914
321.141
321.279
321.355
321.39
321.4
321.403
321.42
321.46
321.524
321.604
321.691
321.777
321.861
321.941
322.018
322.091
322.153
322.207
322.294
322.503
322.898
323.432
323.813
324.352
324.646
324.38
323.654
322.866
322.384
321.476
321.506
321.518
321.528
321.54
321.543
321.544
321.544
321.543
321.542
321.54
321.537
321.533
321.528
321.525
321.522
321.524
321.534
321.56
321.61
321.693
321.812
321.963
322.136
322.317
322.494
322.652
322.773
322.851
322.921
323.072
323.335
320.225
320.588
320.92
321.147
321.286
321.363
321.398
321.409
321.413
321.43
321.471
321.536
321.617
321.705
321.793
321.878
321.959
322.037
322.111
322.176
322.233
322.315
322.503
322.869
323.396
323.816
325.339
325.392
324.809
323.811
321.917
321.472
321.371
321.405
321.425
321.449
321.478
321.496
321.512
321.524
321.534
321.543
321.55
321.556
321.559
321.56
321.56
321.56
321.563
321.573
321.598
321.647
321.728
321.846
321.997
322.17
322.351
322.528
322.686
322.807
322.884
322.954
323.103
323.362
320.223
320.586
320.918
321.145
321.283
321.36
321.395
321.405
321.41
321.427
321.469
321.534
321.616
321.704
321.792
321.878
321.959
322.038
322.114
322.184
322.247
322.323
322.47
322.762
323.204
323.408
322.775
322.208
321.548
320.859
320.667
320.587
321.315
321.348
321.371
321.397
321.432
321.458
321.484
321.505
321.522
321.539
321.553
321.565
321.575
321.582
321.587
321.592
321.598
321.611
321.638
321.688
321.77
321.889
322.04
322.212
322.393
322.569
322.726
322.845
322.921
322.987
323.134
323.385
320.218
320.58
320.912
321.138
321.276
321.352
321.387
321.397
321.401
321.418
321.459
321.525
321.606
321.694
321.783
321.869
321.951
322.03
322.107
322.181
322.251
322.322
322.425
322.611
322.888
322.661
317.068
316.291
315.823
315.637
319.806
320.121
321.416
321.443
321.457
321.466
321.476
321.496
321.519
321.54
321.558
321.574
321.589
321.603
321.614
321.623
321.631
321.637
321.645
321.66
321.689
321.741
321.826
321.946
322.098
322.271
322.453
322.628
322.784
322.902
322.975
323.04
323.183
323.427
320.211
320.574
320.905
321.131
321.269
321.345
321.38
321.389
321.392
321.409
321.45
321.515
321.596
321.684
321.773
321.858
321.94
322.019
322.096
322.172
322.247
322.32
322.394
322.482
322.548
321.807
311.689
310.751
310.521
310.877
319.05
319.773
321.732
321.755
321.749
321.716
321.657
321.645
321.643
321.651
321.661
321.67
321.678
321.687
321.697
321.705
321.713
321.721
321.73
321.746
321.776
321.829
321.913
322.034
322.186
322.359
322.539
322.714
322.868
322.984
323.055
323.116
323.256
323.497
320.207
320.57
320.901
321.127
321.265
321.341
321.376
321.385
321.388
321.405
321.445
321.51
321.59
321.678
321.766
321.851
321.932
322.01
322.085
322.16
322.236
322.311
322.378
322.415
322.308
321.144
308.579
307.469
307.412
308.227
318.675
319.692
322.269
322.3
322.268
322.171
322.003
321.927
321.868
321.846
321.839
321.837
321.836
321.838
321.841
321.845
321.849
321.853
321.859
321.873
321.9
321.951
322.033
322.151
322.301
322.472
322.65
322.822
322.972
323.085
323.151
323.207
323.343
323.582
320.207
320.57
320.901
321.127
321.265
321.342
321.377
321.387
321.39
321.407
321.448
321.512
321.593
321.68
321.768
321.852
321.931
322.007
322.081
322.154
322.226
322.298
322.364
322.389
322.218
320.886
307.484
306.152
306.16
307.311
319.202
320.247
322.92
322.987
322.941
322.784
322.499
322.338
322.193
322.12
322.087
322.067
322.051
322.037
322.026
322.018
322.012
322.007
322.006
322.013
322.035
322.081
322.159
322.273
322.418
322.585
322.758
322.925
323.07
323.176
323.236
323.285
323.416
323.654
320.21
320.573
320.904
321.131
321.269
321.346
321.381
321.391
321.395
321.412
321.454
321.518
321.599
321.687
321.774
321.858
321.937
322.012
322.085
322.156
322.226
322.293
322.35
322.367
322.2
320.895
307.517
306.125
306.079
307.294
319.98
321.034
323.539
323.666
323.614
323.401
323.015
322.778
322.534
322.403
322.344
322.31
322.279
322.248
322.219
322.194
322.173
322.155
322.142
322.138
322.15
322.186
322.256
322.362
322.499
322.657
322.822
322.981
323.118
323.215
323.265
323.306
323.428
323.665
320.216
320.579
320.911
321.137
321.276
321.353
321.388
321.398
321.403
321.42
321.461
321.525
321.606
321.693
321.78
321.863
321.942
322.016
322.088
322.158
322.226
322.29
322.341
322.349
322.17
320.871
307.524
306.122
306.057
307.303
320.456
321.629
324.051
324.238
324.142
323.819
323.328
323.003
322.653
322.474
322.411
322.391
322.37
322.341
322.31
322.278
322.248
322.22
322.196