/*--------------------------------*- C++ -*----------------------------------*\
| =========                 |                                                 |
| \\      /  F ield         | OpenFOAM: The Open Source CFD Toolbox           |
|  \\    /   O peration     | Version:  v2012                                 |
|   \\  /    A nd           | Website:  www.openfoam.com                      |
|    \\/     M anipulation  |                                                 |
\*---------------------------------------------------------------------------*/
FoamFile
{
    version     2.0;
    format      ascii;
    class       volScalarField;
    location    "350/soil2";
    object      T;
}
// * * * * * * * * * * * * * * * * * * * * * * * * * * * * * * * * * * * * * //

dimensions      [0 0 0 1 0 0 0];


internalField   nonuniform List<scalar> 
10496
(
328.332
329.001
329.618
330.148
330.603
330.997
331.341
331.647
331.92
332.168
332.392
332.596
332.782
332.952
333.109
333.254
333.388
333.514
333.631
333.742
333.846
333.944
334.037
334.126
334.21
334.29
334.367
334.441
334.512
334.58
334.646
334.709
334.771
334.83
334.888
334.944
334.999
335.052
335.104
335.155
335.205
335.254
335.301
335.349
335.395
335.441
335.486
335.53
335.573
335.616
335.658
335.7
335.741
335.782
335.822
335.861
335.9
335.938
335.975
336.012
336.048
336.085
336.121
336.157
336.193
336.229
336.265
336.301
336.337
336.373
336.408
336.443
336.477
336.511
336.545
336.58
336.614
336.649
336.683
336.718
336.756
336.799
336.845
336.893
336.939
336.986
337.038
337.103
337.233
337.629
328.075
328.727
329.327
329.842
330.283
330.664
330.996
331.29
331.553
331.79
332.005
332.199
332.376
332.538
332.687
332.824
332.951
333.069
333.179
333.283
333.38
333.472
333.559
333.641
333.719
333.793
333.864
333.932
333.997
334.06
334.12
334.178
334.234
334.288
334.34
334.391
334.44
334.489
334.536
334.582
334.626
334.669
334.712
334.755
334.797
334.837
334.877
334.917
334.956
334.994
335.032
335.069
335.106
335.142
335.177
335.212
335.247
335.281
335.314
335.347
335.379
335.411
335.444
335.476
335.508
335.54
335.572
335.604
335.637
335.668
335.7
335.731
335.761
335.791
335.822
335.853
335.884
335.915
335.946
335.978
336.013
336.053
336.095
336.139
336.182
336.225
336.273
336.338
336.481
336.921
327.807
328.449
329.039
329.546
329.98
330.355
330.681
330.97
331.228
331.461
331.671
331.862
332.035
332.194
332.339
332.473
332.597
332.712
332.819
332.92
333.015
333.104
333.188
333.268
333.344
333.416
333.484
333.55
333.613
333.673
333.731
333.787
333.841
333.892
333.942
333.991
334.038
334.084
334.129
334.173
334.215
334.256
334.297
334.338
334.377
334.416
334.454
334.491
334.528
334.564
334.6
334.635
334.67
334.704
334.737
334.77
334.803
334.835
334.866
334.897
334.927
334.958
334.988
335.018
335.048
335.078
335.108
335.138
335.168
335.198
335.227
335.256
335.284
335.312
335.34
335.369
335.398
335.427
335.456
335.486
335.519
335.556
335.596
335.637
335.678
335.719
335.765
335.83
335.977
336.417
327.539
328.172
328.755
329.255
329.683
330.052
330.374
330.659
330.914
331.143
331.351
331.539
331.71
331.866
332.009
332.141
332.263
332.376
332.482
332.581
332.675
332.762
332.845
332.923
332.998
333.069
333.136
333.2
333.262
333.321
333.378
333.432
333.485
333.535
333.584
333.631
333.676
333.722
333.766
333.808
333.85
333.889
333.929
333.968
334.007
334.044
334.081
334.117
334.153
334.188
334.223
334.257
334.29
334.324
334.356
334.388
334.42
334.451
334.481
334.511
334.541
334.57
334.599
334.628
334.657
334.687
334.716
334.745
334.774
334.803
334.831
334.859
334.886
334.914
334.941
334.969
334.997
335.026
335.054
335.084
335.116
335.153
335.193
335.234
335.274
335.315
335.362
335.428
335.576
336.012
327.274
327.898
328.473
328.967
329.39
329.754
330.072
330.353
330.604
330.831
331.036
331.221
331.39
331.544
331.685
331.815
331.936
332.047
332.152
332.25
332.341
332.428
332.51
332.587
332.66
332.73
332.796
332.859
332.92
332.978
333.034
333.087
333.139
333.188
333.236
333.282
333.326
333.371
333.414
333.455
333.495
333.534
333.572
333.61
333.648
333.684
333.72
333.755
333.79
333.824
333.858
333.891
333.923
333.955
333.987
334.018
334.048
334.078
334.108
334.137
334.166
334.194
334.222
334.251
334.279
334.307
334.335
334.364
334.392
334.42
334.447
334.474
334.501
334.527
334.554
334.581
334.609
334.637
334.665
334.695
334.727
334.764
334.804
334.845
334.885
334.927
334.974
335.04
335.186
335.618
327.012
327.628
328.196
328.683
329.101
329.461
329.774
330.052
330.3
330.523
330.725
330.908
331.075
331.226
331.366
331.494
331.613
331.724
331.827
331.923
332.014
332.099
332.18
332.256
332.328
332.397
332.463
332.525
332.585
332.642
332.697
332.749
332.799
332.848
332.895
332.94
332.983
333.026
333.068
333.108
333.147
333.185
333.221
333.258
333.295
333.329
333.364
333.397
333.431
333.463
333.495
333.527
333.558
333.588
333.618
333.648
333.677
333.705
333.733
333.761
333.788
333.815
333.841
333.868
333.894
333.921
333.947
333.974
334
334.026
334.052
334.077
334.101
334.126
334.151
334.176
334.202
334.228
334.254
334.282
334.312
334.347
334.385
334.423
334.461
334.5
334.545
334.606
334.741
335.152
326.754
327.362
327.923
328.404
328.816
329.171
329.481
329.755
329.999
330.22
330.418
330.598
330.762
330.912
331.049
331.176
331.294
331.403
331.505
331.601
331.691
331.775
331.855
331.93
332.002
332.07
332.134
332.196
332.255
332.311
332.364
332.416
332.465
332.512
332.558
332.602
332.644
332.684
332.724
332.762
332.799
332.835
332.871
332.904
332.938
332.97
333.002
333.033
333.063
333.092
333.121
333.149
333.177
333.204
333.23
333.257
333.282
333.307
333.331
333.355
333.378
333.401
333.424
333.447
333.469
333.492
333.514
333.536
333.558
333.58
333.601
333.621
333.641
333.661
333.68
333.7
333.721
333.741
333.761
333.783
333.808
333.836
333.867
333.899
333.93
333.962
334
334.05
334.162
334.522
326.5
327.099
327.653
328.128
328.535
328.885
329.191
329.461
329.702
329.917
330.108
330.282
330.442
330.589
330.725
330.852
330.969
331.078
331.18
331.276
331.366
331.451
331.53
331.606
331.677
331.744
331.808
331.869
331.926
331.982
332.034
332.084
332.131
332.176
332.22
332.262
332.301
332.337
332.371
332.406
332.439
332.473
332.504
332.532
332.559
332.587
332.614
332.64
332.665
332.689
332.712
332.735
332.757
332.778
332.799
332.819
332.838
332.856
332.873
332.89
332.906
332.921
332.936
332.95
332.965
332.979
332.992
333.006
333.019
333.031
333.043
333.054
333.065
333.075
333.085
333.096
333.107
333.119
333.13
333.144
333.162
333.183
333.207
333.231
333.255
333.282
333.313
333.356
333.445
333.729
326.249
326.84
327.387
327.855
328.257
328.604
328.905
329.171
329.406
329.608
329.766
329.917
330.066
330.209
330.345
330.474
330.596
330.71
330.818
330.92
331.016
331.106
331.19
331.269
331.343
331.412
331.476
331.537
331.593
331.647
331.697
331.743
331.787
331.828
331.868
331.907
331.943
331.971
331.998
332.027
332.056
332.086
332.114
332.134
332.154
332.176
332.196
332.216
332.235
332.252
332.269
332.285
332.3
332.315
332.329
332.343
332.355
332.367
332.378
332.388
332.398
332.407
332.415
332.424
332.431
332.439
332.447
332.454
332.461
332.468
332.474
332.48
332.485
332.49
332.495
332.501
332.507
332.514
332.521
332.534
332.558
332.586
332.613
332.639
332.664
332.69
332.723
332.763
332.836
333.056
326.002
326.585
327.124
327.587
327.984
328.326
328.623
328.884
329.105
329.256
329.148
329.157
329.244
329.372
329.521
329.679
329.839
329.996
330.147
330.29
330.424
330.548
330.663
330.768
330.863
330.949
331.026
331.097
331.161
331.22
331.276
331.327
331.374
331.416
331.457
331.498
331.535
331.562
331.586
331.615
331.645
331.678
331.708
331.726
331.744
331.766
331.786
331.805
331.822
331.838
331.854
331.868
331.881
331.894
331.905
331.915
331.924
331.931
331.938
331.943
331.947
331.951
331.953
331.955
331.956
331.957
331.957
331.957
331.956
331.954
331.952
331.949
331.945
331.941
331.937
331.933
331.93
331.927
331.927
331.943
332.038
332.128
332.201
332.256
332.299
332.338
332.38
332.43
332.509
332.722
325.758
326.333
326.865
327.322
327.714
328.051
328.345
328.599
328.795
328.743
325.945
325.391
325.489
325.801
326.176
326.556
326.917
327.251
327.551
327.819
328.054
328.256
328.429
328.573
328.692
328.788
328.866
328.927
328.977
329.017
329.051
329.082
329.108
329.131
329.156
329.184
329.209
329.222
329.234
329.256
329.279
329.31
329.34
329.354
329.37
329.394
329.417
329.438
329.458
329.477
329.494
329.51
329.524
329.536
329.545
329.552
329.556
329.558
329.557
329.554
329.548
329.54
329.529
329.515
329.499
329.481
329.46
329.437
329.412
329.385
329.356
329.325
329.292
329.257
329.222
329.186
329.149
329.11
329.069
329.08
330.058
330.807
331.33
331.687
331.928
332.095
332.221
332.332
332.467
332.743
325.518
326.084
326.61
327.061
327.447
327.781
328.07
328.319
328.503
328.409
325.468
324.861
324.951
325.271
325.662
326.061
326.441
326.793
327.11
327.393
327.641
327.854
328.035
328.186
328.309
328.407
328.484
328.543
328.588
328.623
328.65
328.674
328.695
328.716
328.741
328.774
328.807
328.824
328.843
328.877
328.917
328.968
329.021
329.054
329.09
329.139
329.189
329.239
329.29
329.342
329.395
329.449
329.502
329.555
329.607
329.657
329.707
329.755
329.802
329.846
329.888
329.928
329.964
329.997
330.027
330.052
330.072
330.088
330.099
330.105
330.105
330.099
330.088
330.071
330.049
330.022
329.99
329.955
329.919
329.946
330.755
331.379
331.816
332.115
332.316
332.455
332.563
332.673
332.844
333.205
325.281
325.839
326.358
326.803
327.185
327.514
327.799
328.044
328.224
328.122
325.201
324.592
324.676
324.993
325.38
325.777
326.155
326.505
326.821
327.103
327.349
327.562
327.741
327.889
328.008
328.103
328.175
328.228
328.266
328.292
328.311
328.326
328.339
328.351
328.368
328.397
328.425
328.432
328.439
328.465
328.497
328.543
328.593
328.615
328.639
328.681
328.723
328.765
328.81
328.855
328.901
328.948
328.994
329.04
329.086
329.133
329.18
329.227
329.275
329.323
329.373
329.423
329.475
329.528
329.582
329.637
329.694
329.752
329.811
329.872
329.933
329.995
330.056
330.118
330.178
330.238
330.295
330.35
330.406
330.522
331.289
331.865
332.264
332.537
332.725
332.859
332.97
333.1
333.323
333.793
325.048
325.597
326.109
326.549
326.926
327.25
327.532
327.774
327.95
327.848
324.964
324.36
324.442
324.754
325.137
325.528
325.902
326.248
326.562
326.84
327.084
327.294
327.471
327.616
327.734
327.827
327.898
327.949
327.985
328.009
328.024
328.035
328.043
328.052
328.067
328.096
328.124
328.125
328.125
328.148
328.177
328.223
328.274
328.289
328.306
328.344
328.382
328.421
328.462
328.503
328.544
328.583
328.62
328.655
328.689
328.721
328.752
328.782
328.811
328.84
328.867
328.894
328.92
328.946
328.971
328.997
329.022
329.048
329.074
329.1
329.128
329.156
329.185
329.216
329.249
329.284
329.321
329.359
329.402
329.489
330.244
330.803
331.191
331.469
331.666
331.82
331.964
332.134
332.4
332.897
324.818
325.359
325.864
326.298
326.67
326.991
327.269
327.507
327.682
327.58
324.735
324.139
324.22
324.527
324.905
325.291
325.66
326.002
326.311
326.587
326.828
327.035
327.209
327.352
327.468
327.559
327.63
327.682
327.719
327.741
327.754
327.762
327.767
327.773
327.787
327.818
327.849
327.847
327.841
327.863
327.891
327.939
327.995
328.008
328.021
328.06
328.1
328.141
328.185
328.228
328.27
328.309
328.346
328.382
328.418
328.453
328.488
328.521
328.552
328.581
328.609
328.635
328.66
328.685
328.708
328.73
328.751
328.771
328.789
328.806
328.822
328.836
328.848
328.858
328.867
328.873
328.878
328.881
328.883
328.925
329.659
330.183
330.529
330.758
330.916
331.037
331.152
331.293
331.516
331.932
324.59
325.123
325.622
326.051
326.418
326.734
327.009
327.244
327.417
327.317
324.511
323.922
324.002
324.306
324.678
325.06
325.424
325.761
326.066
326.338
326.576
326.78
326.952
327.093
327.206
327.296
327.367
327.42
327.459
327.482
327.495
327.499
327.501
327.505
327.519
327.55
327.585
327.581
327.573
327.594
327.623
327.674
327.736
327.747
327.759
327.802
327.846
327.894
327.943
327.99
328.034
328.073
328.112
328.151
328.191
328.23
328.268
328.306
328.342
328.377
328.412
328.445
328.478
328.511
328.542
328.574
328.605
328.636
328.666
328.695
328.724
328.752
328.779
328.805
328.831
328.855
328.879
328.902
328.922
328.978
329.676
330.177
330.509
330.732
330.889
331.011
331.129
331.273
331.502
331.924
324.367
324.891
325.384
325.806
326.169
326.481
326.752
326.985
327.155
327.057
324.289
323.71
323.79
324.089
324.457
324.833
325.193
325.526
325.827
326.095
326.329
326.53
326.699
326.837
326.948
327.036
327.105
327.16
327.201
327.228
327.241
327.244
327.243
327.244
327.255
327.288
327.326
327.322
327.31
327.332
327.362
327.415
327.483
327.496
327.508
327.556
327.608
327.664
327.72
327.771
327.815
327.856
327.897
327.94
327.984
328.028
328.072
328.114
328.155
328.196
328.237
328.278
328.318
328.359
328.4
328.442
328.484
328.526
328.569
328.613
328.657
328.701
328.745
328.789
328.834
328.88
328.926
328.975
329.029
329.142
329.865
330.39
330.742
330.979
331.146
331.277
331.402
331.553
331.794
332.288
324.146
324.663
325.149
325.566
325.923
326.232
326.499
326.729
326.898
326.803
324.077
323.508
323.588
323.884
324.247
324.617
324.971
325.299
325.594
325.857
326.086
326.282
326.446
326.579
326.685
326.769
326.835
326.888
326.931
326.96
326.975
326.977
326.972
326.967
326.973
327.003
327.041
327.034
327.017
327.036
327.065
327.119
327.191
327.206
327.22
327.275
327.337
327.402
327.463
327.514
327.557
327.596
327.636
327.679
327.723
327.767
327.809
327.849
327.889
327.928
327.966
328.005
328.043
328.082
328.121
328.16
328.2
328.241
328.282
328.323
328.365
328.407
328.449
328.491
328.533
328.575
328.618
328.66
328.709
328.817
329.543
330.078
330.443
330.691
330.866
331
331.12
331.261
331.491
331.962
323.929
324.437
324.917
325.329
325.682
325.986
326.25
326.477
326.647
326.562
323.889
323.339
323.422
323.714
324.07
324.433
324.778
325.095
325.379
325.629
325.844
326.025
326.173
326.29
326.38
326.447
326.498
326.54
326.575
326.6
326.612
326.608
326.594
326.577
326.57
326.59
326.62
326.606
326.581
326.595
326.621
326.674
326.752
326.774
326.797
326.866
326.944
327.024
327.093
327.148
327.191
327.23
327.27
327.313
327.353
327.39
327.423
327.452
327.479
327.503
327.526
327.548
327.568
327.589
327.609
327.629
327.649
327.669
327.689
327.708
327.727
327.745
327.761
327.777
327.791
327.804
327.816
327.826
327.838
327.907
328.653
329.215
329.605
329.873
330.061
330.2
330.314
330.436
330.622
330.994
323.715
324.216
324.689
325.095
325.443
325.744
326.005
326.231
326.407
326.361
323.887
323.401
323.492
323.77
324.1
324.431
324.737
325.011
325.247
325.445
325.607
325.735
325.834
325.906
325.957
325.991
326.015
326.036
326.058
326.079
326.09
326.087
326.07
326.047
326.032
326.044
326.071
326.054
326.024
326.035
326.058
326.11
326.192
326.222
326.257
326.345
326.444
326.543
326.629
326.696
326.752
326.805
326.858
326.909
326.952
326.986
327.01
327.026
327.033
327.035
327.032
327.028
327.022
327.016
327.009
327.003
326.998
326.992
326.987
326.981
326.976
326.969
326.962
326.954
326.945
326.934
326.922
326.909
326.894
326.921
327.735
328.349
328.775
329.069
329.274
329.422
329.538
329.648
329.797
330.089
323.504
323.997
324.465
324.865
325.209
325.505
325.763
325.989
326.182
326.315
326.259
326.313
326.428
326.563
326.7
326.834
326.96
327.078
327.187
327.287
327.378
327.461
327.536
327.603
327.662
327.715
327.766
327.82
327.88
327.945
328.003
328.045
328.067
328.074
328.084
328.123
328.181
328.182
328.157
328.175
328.196
328.238
328.307
328.301
328.292
328.343
328.4
328.447
328.473
328.48
328.484
328.497
328.52
328.549
328.576
328.599
328.618
328.634
328.648
328.66
328.67
328.679
328.686
328.692
328.698
328.702
328.706
328.71
328.714
328.717
328.719
328.721
328.723
328.724
328.725
328.727
328.729
328.732
328.738
328.757
328.839
328.917
328.98
329.031
329.072
329.109
329.148
329.197
329.28
329.493
323.296
323.78
324.242
324.637
324.976
325.268
325.523
325.749
325.948
326.119
326.257
326.391
326.523
326.649
326.768
326.88
326.983
327.08
327.171
327.255
327.334
327.407
327.476
327.539
327.598
327.65
327.701
327.754
327.815
327.884
327.953
328.008
328.042
328.056
328.068
328.108
328.172
328.177
328.151
328.169
328.184
328.219
328.288
328.278
328.266
328.315
328.366
328.4
328.409
328.404
328.402
328.414
328.438
328.467
328.493
328.516
328.536
328.554
328.571
328.587
328.601
328.614
328.625
328.636
328.645
328.653
328.661
328.668
328.674
328.68
328.685
328.689
328.693
328.696
328.699
328.703
328.707
328.712
328.718
328.727
328.747
328.769
328.792
328.814
328.835
328.856
328.883
328.919
328.988
329.194
323.089
323.565
324.021
324.411
324.745
325.033
325.285
325.508
325.707
325.886
326.045
326.19
326.325
326.449
326.564
326.671
326.771
326.864
326.95
327.032
327.109
327.181
327.248
327.312
327.372
327.426
327.476
327.526
327.583
327.65
327.723
327.786
327.83
327.851
327.865
327.905
327.971
327.978
327.949
327.964
327.971
327.995
328.064
328.054
328.043
328.094
328.141
328.168
328.171
328.166
328.172
328.195
328.229
328.265
328.297
328.324
328.35
328.374
328.397
328.419
328.439
328.457
328.474
328.489
328.503
328.516
328.528
328.539
328.55
328.56
328.568
328.576
328.584
328.59
328.597
328.604
328.612
328.62
328.628
328.639
328.653
328.671
328.691
328.711
328.731
328.753
328.779
328.815
328.894
329.147
322.882
323.351
323.8
324.185
324.515
324.799
325.047
325.268
325.465
325.644
325.805
325.951
326.085
326.209
326.322
326.428
326.525
326.617
326.703
326.783
326.859
326.93
326.997
327.061
327.122
327.179
327.23
327.279
327.332
327.395
327.465
327.532
327.583
327.612
327.628
327.667
327.733
327.742
327.714
327.721
327.713
327.719
327.774
327.759
327.744
327.791
327.828
327.843
327.838
327.834
327.845
327.872
327.908
327.941
327.971
327.997
328.022
328.046
328.069
328.09
328.109
328.126
328.142
328.157
328.17
328.182
328.193
328.204
328.215
328.225
328.235
328.245
328.255
328.265
328.276
328.288
328.301
328.315
328.331
328.349
328.369
328.394
328.421
328.45
328.478
328.508
328.543
328.588
328.682
328.963
322.677
323.137
323.581
323.96
324.285
324.566
324.811
325.028
325.223
325.4
325.56
325.705
325.838
325.96
326.073
326.177
326.274
326.364
326.449
326.529
326.605
326.675
326.742
326.806
326.868
326.928
326.984
327.036
327.088
327.146
327.213
327.28
327.335
327.368
327.387
327.424
327.488
327.494
327.443
327.431
327.393
327.361
327.4
327.365
327.332
327.36
327.376
327.371
327.354
327.344
327.351
327.369
327.389
327.405
327.418
327.43
327.441
327.451
327.46
327.468
327.474
327.48
327.486
327.492
327.499
327.507
327.517
327.528
327.54
327.555
327.57
327.588
327.606
327.627
327.649
327.673
327.699
327.727
327.756
327.788
327.823
327.861
327.902
327.944
327.986
328.029
328.077
328.136
328.247
328.532
322.474
322.926
323.364
323.738
324.059
324.336
324.577
324.792
324.984
325.159
325.317
325.461
325.592
325.713
325.825
325.928
326.024
326.114
326.198
326.278
326.353
326.423
326.489
326.553
326.616
326.679
326.74
326.799
326.855
326.913
326.976
327.042
327.098
327.133
327.151
327.184
327.243
327.247
327.243
327.172
327.045
326.911
326.785
326.681
326.594
326.574
326.548
326.507
326.462
326.43
326.415
326.408
326.403
326.398
326.397
326.402
326.411
326.424
326.439
326.456
326.476
326.497
326.52
326.546
326.573
326.602
326.632
326.664
326.698
326.733
326.769
326.805
326.843
326.881
326.92
326.96
327.002
327.044
327.087
327.131
327.178
327.228
327.279
327.33
327.38
327.431
327.485
327.552
327.664
327.924
322.277
322.721
323.153
323.522
323.838
324.111
324.35
324.561
324.752
324.924
325.08
325.223
325.353
325.472
325.583
325.685
325.78
325.87
325.954
326.033
326.108
326.178
326.244
326.307
326.369
326.433
326.499
326.565
326.629
326.692
326.756
326.823
326.882
326.919
326.935
326.961
327.013
326.979
326.572
326.267
325.888
325.551
325.543
325.358
325.218
325.174
325.142
325.112
325.093
325.093
325.111
325.138
325.17
325.21
325.258
325.312
325.369
325.426
325.482
325.538
325.592
325.646
325.699
325.752
325.804
325.856
325.907
325.958
326.008
326.058
326.108
326.157
326.205
326.252
326.3
326.347
326.395
326.442
326.49
326.537
326.587
326.638
326.689
326.74
326.79
326.838
326.89
326.952
327.053
327.274
322.091
322.528
322.954
323.318
323.63
323.9
324.135
324.344
324.532
324.702
324.857
324.998
325.126
325.245
325.354
325.456
325.551
325.64
325.723
325.803
325.878
325.949
326.015
326.077
326.137
326.199
326.266
326.336
326.408
326.479
326.548
326.618
326.684
326.73
326.751
326.773
326.814
326.744
326.869
326.024
325.217
324.652
323.771
323.623
323.595
323.678
323.773
323.867
323.964
324.066
324.168
324.266
324.363
324.46
324.558
324.653
324.744
324.827
324.905
324.979
325.049
325.116
325.181
325.243
325.303
325.361
325.418
325.473
325.527
325.579
325.629
325.678
325.725
325.771
325.815
325.859
325.902
325.945
325.987
326.029
326.071
326.115
326.159
326.203
326.245
326.286
326.331
326.386
326.473
326.661
321.923
322.354
322.775
323.135
323.444
323.71
323.942
324.149
324.335
324.503
324.656
324.795
324.923
325.041
325.149
325.25
325.345
325.433
325.517
325.597
325.672
325.744
325.811
325.873
325.932
325.99
326.053
326.122
326.197
326.274
326.349
326.426
326.502
326.567
326.608
326.633
326.64
326.265
323.815
322.396
321.597
321.336
322.137
322.352
322.547
322.809
323.048
323.261
323.453
323.625
323.776
323.909
324.031
324.147
324.257
324.358
324.447
324.528
324.603
324.673
324.74
324.805
324.867
324.927
324.984
325.039
325.092
325.143
325.191
325.237
325.28
325.321
325.36
325.397
325.432
325.466
325.5
325.532
325.564
325.597
325.63
325.665
325.7
325.734
325.767
325.8
325.836
325.882
325.957
326.12
321.785
322.209
322.627
322.983
323.289
323.552
323.783
323.987
324.171
324.338
324.489
324.628
324.754
324.871
324.979
325.08
325.174
325.262
325.346
325.426
325.502
325.575
325.644
325.708
325.767
325.823
325.881
325.945
326.016
326.094
326.173
326.253
326.339
326.427
326.498
326.534
326.496
325.694
318.501
317.066
316.498
316.645
321.375
321.931
322.183
322.468
322.723
322.959
323.177
323.37
323.54
323.692
323.832
323.96
324.074
324.177
324.267
324.348
324.424
324.494
324.562
324.626
324.687
324.745
324.801
324.853
324.902
324.948
324.991
325.031
325.068
325.101
325.132
325.161
325.187
325.211
325.235
325.257
325.279
325.301
325.324
325.349
325.374
325.399
325.422
325.446
325.475
325.511
325.574
325.717
321.681
322.101
322.516
322.87
323.173
323.435
323.664
323.868
324.051
324.217
324.368
324.506
324.632
324.748
324.856
324.956
325.05
325.138
325.222
325.302
325.379
325.453
325.524
325.591
325.653
325.71
325.765
325.824
325.89
325.964
326.045
326.126
326.217
326.322
326.421
326.465
326.396
325.254
314.13
312.762
312.424
312.917
320.981
321.808
322.07
322.33
322.555
322.773
322.979
323.169
323.344
323.507
323.659
323.802
323.931
324.047
324.151
324.245
324.333
324.414
324.49
324.562
324.629
324.692
324.751
324.806
324.857
324.905
324.949
324.989
325.025
325.056
325.083
325.106
325.126
325.142
325.156
325.167
325.177
325.187
325.198
325.21
325.222
325.235
325.247
325.26
325.278
325.304
325.355
325.485
321.615
322.033
322.446
322.798
323.101
323.362
323.591
323.794
323.977
324.144
324.296
324.434
324.561
324.678
324.786
324.886
324.98
325.069
325.152
325.233
325.31
325.385
325.457
325.528
325.596
325.657
325.71
325.768
325.83
325.901
325.983
326.062
326.145
326.254
326.361
326.388
326.295
325.024
312.301
310.975
310.765
311.461
321.095
322.04
322.26
322.45
322.598
322.753
322.912
323.069
323.225
323.382
323.539
323.692
323.836
323.969
324.091
324.206
324.322
324.422
324.514
324.599
324.679
324.754
324.826
324.894
324.958
325.019
325.076
325.129
325.176
325.216
325.249
325.275
325.295
325.308
325.314
325.315
325.311
325.305
325.297
325.291
325.285
325.279
325.274
325.27
325.272
325.284
325.323
325.443
321.585
322.001
322.413
322.764
323.066
323.327
323.555
323.759
323.943
324.11
324.263
324.403
324.532
324.651
324.761
324.864
324.96
325.05
325.136
325.217
325.295
325.372
325.447
325.524
325.598
325.663
325.715
325.771
325.828
325.895
325.976
326.039
324.408
324.526
324.629
324.727
324.822
324.913
325.001
325.086
325.169
325.252
325.335
325.416
325.495
325.568
325.631
325.682
325.718
325.736
325.738
325.726
325.704
325.677
325.649
325.623
325.601
325.579
325.556
325.534
325.516
325.506
325.527
325.64
321.581
321.997
322.408
322.759
323.06
323.32
323.548
323.751
323.934
324.102
324.255
324.396
324.526
324.646
324.759
324.865
324.964
325.058
325.147
325.232
325.314
325.395
325.476
325.561
325.645
325.717
325.772
325.824
325.868
325.918
325.979
326.016
324.625
324.731
324.825
324.92
325.018
325.118
325.223
325.339
325.468
325.61
325.758
325.904
326.036
326.144
326.222
326.267
326.282
326.272
326.244
326.204
326.156
326.104
326.052
326.002
325.954
325.909
325.868
325.83
325.802
325.788
325.812
325.943
321.591
322.008
322.419
322.77
323.071
323.33
323.557
323.759
323.942
324.108
324.26
324.399
324.528
324.649
324.761
324.868
324.968
325.064
325.157
325.246
325.333
325.419
325.508
325.602
325.697
325.778
325.82
325.862
325.883
325.895
325.924
325.896
324.85
324.947
325.045
325.147
325.262
325.405
325.58
325.781
325.988
326.179
326.332
326.434
326.487
326.501
326.488
326.459
326.421
326.379
326.336
326.293
326.251
326.211
326.174
326.14
326.109
326.079
326.05
326.023
326.003
325.995
326.028
326.171
321.605
322.022
322.434
322.785
323.087
323.347
323.574
323.776
323.958
324.123
324.274
324.412
324.54
324.658
324.77
324.875
324.975
325.071
325.163
325.253
325.342
325.432
325.525
325.623
325.724
325.815
325.923
325.939
325.903
325.831
325.688
325.549
325.141
325.261
325.384
325.567
325.804
326.047
326.242
326.367
326.426
326.438
326.423
326.395
326.362
326.327
326.293
326.262
326.234
326.209
326.188
326.168
326.152
326.137
326.125
326.115
326.106
326.096
326.084
326.073
326.066
326.07
326.112
326.251
321.614
322.032
322.444
322.796
323.098
323.359
323.587
323.79
323.973
324.139
324.29
324.429
324.556
324.675
324.786
324.891
324.991
325.086
325.179
325.269
325.359
325.45
325.545
325.644
325.744
325.812
325.573
325.455
325.259
325.037
325.038
324.817
325.657
325.925
326.133
326.239
326.269
326.256
326.223
326.182
326.142
326.105
326.074
326.048
326.029
326.013
326.002
325.993
325.987
325.983
325.982
325.983
325.985
325.989
325.994
326.001
326.008
326.014
326.018
326.02
326.026
326.041
326.087
326.217
321.617
322.034
322.447
322.799
323.101
323.362
323.591
323.794
323.978
324.145
324.297
324.436
324.565
324.685
324.797
324.903
325.003
325.1
325.195
325.287
325.38
325.474
325.57
325.669
325.763
325.822
326.297
325.855
325.33
324.893
323.977
323.803
325.95
325.967
325.942
325.9
325.857
325.82
325.789
325.763
325.742
325.726
325.716
325.712
325.712
325.715
325.721
325.729
325.739
325.751
325.764
325.778
325.793
325.808
325.825
325.842
325.859
325.874
325.886
325.898
325.913
325.935
325.985
326.107
321.613
322.031
322.443
322.795
323.097
323.358
323.586
323.79
323.973
324.14
324.292
324.432
324.561
324.681
324.794
324.9
325.002
325.1
325.196
325.29
325.385
325.482
325.581
325.676
325.728
325.503
323.648
322.589
321.968
321.809
322.675
322.918
325.506
325.504
325.48
325.454
325.432
325.417
325.408
325.405
325.409
325.418
325.432
325.448
325.466
325.486
325.507
325.528
325.551
325.573
325.597
325.621
325.644
325.667
325.691
325.715
325.738
325.758
325.775
325.79
325.808
325.831
325.877
325.99
321.607
322.024
322.436
322.788
323.089
323.35
323.578
323.781
323.964
324.131
324.283
324.423
324.552
324.672
324.784
324.891
324.993
325.092
325.188
325.284
325.38
325.477
325.574
325.656
325.638
324.961
318.193
316.964
316.514
316.781
321.933
322.586
325.113
325.133
325.139
325.144
325.15
325.161
325.175
325.192
325.214
325.238
325.264
325.292
325.32
325.349
325.379
325.408
325.438
325.468
325.498
325.527
325.557
325.586
325.615
325.643
325.67
325.694
325.714
325.732
325.751
325.773
325.816
325.926
321.6
322.017
322.429
322.78
323.082
323.342
323.57
323.773
323.955
324.122
324.273
324.413
324.541
324.661
324.774
324.88
324.982
325.081
325.177
325.273
325.369
325.465
325.559
325.626
325.541
324.465
313.487
312.183
311.92
312.561
321.412
322.398
324.956
324.995
325.017
325.037
325.058
325.079
325.101
325.125
325.152
325.18
325.209
325.24
325.271
325.303
325.335
325.367
325.4
325.434
325.467
325.501
325.535
325.568
325.601
325.634
325.665
325.692
325.716
325.737
325.758
325.781
325.824
325.937
321.595
322.012
322.424
322.775
323.077
323.337
323.565
323.767
323.95
324.116
324.267
324.406
324.534
324.654
324.765
324.871
324.972
325.07
325.165
325.259
325.354
325.448
325.537
325.592
325.465
324.191
311.35
310.004
309.847
310.708
321.311
322.44
325.021
325.067
325.092
325.112
325.132
325.147
325.163
325.181
325.202
325.224
325.248
325.273
325.3
325.329
325.358
325.389
325.421
325.455
325.49
325.527
325.563
325.6
325.637
325.673
325.709
325.742
325.771
325.798
325.824
325.854
325.904
326.03
321.593
322.01
322.422
322.773
323.075
323.335
323.563
323.765
323.948
324.114
324.266
324.404
324.532
324.651
324.763
324.867
324.967
325.063
325.156
325.248
325.339
325.43
325.512
325.554
325.409
324.121
310.9
309.507
309.401
310.435
322.113
323.131
325.244
325.289
325.305
325.31
325.317
325.313
325.31
325.31
325.314
325.32
325.331
325.345
325.363
325.384
325.407
325.432
325.461
325.493
325.527
325.564
325.602
325.641
325.683
325.725
325.768
325.808
325.845
325.879
325.914
325.953
326.018
326.17
321.593
322.01
322.422
322.774
323.075
323.335
323.563
323.765
323.948
324.114
324.266
324.405
324.533
324.651
324.762
324.866
324.965
325.059
325.151
325.241
325.329
325.415
325.49
325.522
325.365
324.082
310.829
309.427
309.343
310.505
323.044
324.066
325.532
325.57
325.563
325.536
325.506
325.469
325.435
325.408
325.388
325.374
325.368
325.367
325.373
325.385
325.401
325.423
325.448
325.478
325.512
325.549
325.589
325.632
325.678
325.726
325.776
325.824
325.869
325.912
325.956
326.005
326.083
326.258
321.595
322.012
322.424
322.776
323.077
323.337
323.564
323.766
323.949
324.115
324.266
324.405
324.533
324.651
324.761
324.864
324.962
325.055
325.146
325.234
325.319
325.401
325.469
325.495
325.336
324.072
310.892
309.518
309.452
310.667
323.652
324.783
325.76
325.768
325.708
325.617
325.541
325.453
325.377
325.317
325.272
325.241
325.224