/*--------------------------------*- C++ -*----------------------------------*\
| =========                 |                                                 |
| \\      /  F ield         | OpenFOAM: The Open Source CFD Toolbox           |
|  \\    /   O peration     | Version:  v2012                                 |
|   \\  /    A nd           | Website:  www.openfoam.com                      |
|    \\/     M anipulation  |                                                 |
\*---------------------------------------------------------------------------*/
FoamFile
{
    version     2.0;
    format      ascii;
    class       volScalarField;
    location    "400/soil2";
    object      T;
}
// * * * * * * * * * * * * * * * * * * * * * * * * * * * * * * * * * * * * * //

dimensions      [0 0 0 1 0 0 0];


internalField   nonuniform List<scalar> 
10496
(
328.365
329.035
329.652
330.184
330.643
331.042
331.392
331.702
331.976
332.222
332.443
332.645
332.83
333
333.156
333.301
333.435
333.561
333.679
333.789
333.893
333.992
334.085
334.173
334.258
334.338
334.415
334.489
334.56
334.628
334.694
334.758
334.819
334.879
334.937
334.993
335.048
335.101
335.154
335.205
335.254
335.303
335.351
335.398
335.445
335.49
335.535
335.579
335.623
335.666
335.708
335.75
335.791
335.832
335.872
335.911
335.95
335.989
336.027
336.065
336.102
336.139
336.176
336.212
336.248
336.284
336.319
336.354
336.389
336.423
336.457
336.49
336.523
336.556
336.588
336.62
336.649
336.677
336.705
336.734
336.767
336.806
336.848
336.89
336.932
336.974
337.021
337.085
337.22
337.623
328.109
328.761
329.362
329.878
330.323
330.71
331.048
331.346
331.61
331.845
332.057
332.25
332.426
332.587
332.736
332.873
333
333.118
333.229
333.332
333.43
333.521
333.608
333.69
333.769
333.843
333.914
333.982
334.047
334.11
334.17
334.228
334.284
334.338
334.391
334.441
334.491
334.539
334.587
334.632
334.677
334.72
334.763
334.806
334.848
334.888
334.928
334.968
335.006
335.045
335.082
335.119
335.156
335.192
335.228
335.263
335.298
335.332
335.366
335.4
335.433
335.466
335.499
335.531
335.563
335.594
335.626
335.657
335.687
335.717
335.747
335.777
335.806
335.836
335.864
335.892
335.918
335.943
335.967
335.993
336.022
336.057
336.095
336.134
336.172
336.21
336.254
336.317
336.465
336.913
327.841
328.483
329.075
329.583
330.021
330.401
330.733
331.026
331.285
331.517
331.725
331.914
332.086
332.244
332.389
332.523
332.647
332.762
332.87
332.971
333.065
333.155
333.239
333.319
333.394
333.466
333.535
333.601
333.664
333.724
333.782
333.838
333.892
333.944
333.994
334.042
334.089
334.136
334.181
334.225
334.267
334.308
334.349
334.389
334.429
334.468
334.505
334.543
334.579
334.616
334.651
334.686
334.721
334.755
334.789
334.822
334.855
334.887
334.919
334.951
334.982
335.013
335.043
335.073
335.103
335.133
335.162
335.191
335.22
335.248
335.276
335.303
335.33
335.358
335.384
335.41
335.434
335.456
335.479
335.502
335.53
335.563
335.598
335.635
335.671
335.708
335.75
335.813
335.965
336.413
327.573
328.207
328.791
329.292
329.724
330.099
330.427
330.716
330.972
331.2
331.405
331.592
331.761
331.917
332.06
332.192
332.314
332.428
332.534
332.633
332.726
332.814
332.896
332.975
333.049
333.12
333.188
333.252
333.314
333.373
333.429
333.484
333.537
333.588
333.636
333.683
333.729
333.775
333.819
333.861
333.902
333.942
333.981
334.021
334.06
334.097
334.134
334.17
334.205
334.24
334.275
334.309
334.343
334.376
334.408
334.441
334.472
334.504
334.535
334.565
334.596
334.625
334.655
334.684
334.713
334.742
334.77
334.798
334.826
334.853
334.88
334.907
334.934
334.96
334.986
335.011
335.034
335.057
335.078
335.102
335.129
335.161
335.197
335.233
335.269
335.307
335.349
335.414
335.568
336.013
327.308
327.934
328.51
329.005
329.431
329.801
330.125
330.41
330.663
330.888
331.091
331.274
331.442
331.596
331.737
331.867
331.987
332.099
332.204
332.302
332.394
332.48
332.562
332.639
332.712
332.782
332.849
332.912
332.973
333.031
333.087
333.14
333.192
333.242
333.289
333.335
333.38
333.424
333.468
333.509
333.549
333.588
333.626
333.664
333.702
333.738
333.774
333.809
333.843
333.877
333.911
333.944
333.976
334.008
334.04
334.071
334.102
334.132
334.162
334.192
334.221
334.25
334.279
334.307
334.335
334.363
334.39
334.417
334.444
334.47
334.496
334.522
334.548
334.573
334.598
334.622
334.645
334.667
334.688
334.711
334.738
334.77
334.805
334.841
334.878
334.915
334.958
335.022
335.173
335.612
327.047
327.664
328.232
328.722
329.142
329.508
329.828
330.109
330.359
330.581
330.781
330.962
331.128
331.279
331.418
331.547
331.666
331.776
331.88
331.976
332.067
332.153
332.233
332.309
332.382
332.451
332.516
332.579
332.639
332.696
332.75
332.803
332.854
332.902
332.949
332.994
333.038
333.081
333.123
333.163
333.202
333.24
333.276
333.313
333.349
333.384
333.418
333.452
333.485
333.517
333.549
333.581
333.612
333.642
333.672
333.701
333.731
333.759
333.787
333.815
333.843
333.87
333.896
333.923
333.949
333.974
334
334.025
334.049
334.073
334.097
334.121
334.144
334.167
334.19
334.211
334.232
334.251
334.27
334.29
334.314
334.343
334.375
334.408
334.44
334.474
334.513
334.571
334.709
335.122
326.789
327.398
327.959
328.442
328.858
329.219
329.535
329.813
330.059
330.278
330.474
330.652
330.815
330.965
331.103
331.23
331.347
331.457
331.559
331.655
331.745
331.83
331.909
331.985
332.056
332.124
332.189
332.25
332.309
332.366
332.419
332.471
332.52
332.568
332.613
332.657
332.7
332.74
332.779
332.818
332.855
332.891
332.926
332.96
332.993
333.025
333.056
333.087
333.117
333.146
333.174
333.202
333.23
333.256
333.283
333.308
333.334
333.358
333.383
333.406
333.43
333.452
333.475
333.497
333.518
333.539
333.56
333.58
333.6
333.619
333.637
333.656
333.673
333.691
333.707
333.723
333.737
333.749
333.761
333.775
333.792
333.813
333.837
333.862
333.886
333.913
333.944
333.991
334.104
334.461
326.535
327.135
327.69
328.166
328.577
328.933
329.245
329.52
329.762
329.976
330.164
330.337
330.496
330.643
330.779
330.905
331.023
331.132
331.235
331.331
331.421
331.506
331.585
331.661
331.732
331.799
331.863
331.924
331.982
332.037
332.09
332.14
332.187
332.232
332.276
332.318
332.357
332.393
332.427
332.461
332.495
332.528
332.559
332.587
332.614
332.641
332.668
332.693
332.718
332.741
332.764
332.786
332.808
332.828
332.848
332.867
332.886
332.903
332.92
332.936
332.952
332.967
332.981
332.994
333.007
333.019
333.031
333.042
333.052
333.062
333.071
333.079
333.087
333.095
333.102
333.108
333.112
333.115
333.118
333.123
333.133
333.147
333.164
333.181
333.199
333.219
333.244
333.282
333.369
333.644
326.285
326.876
327.424
327.894
328.3
328.652
328.96
329.23
329.466
329.666
329.822
329.972
330.119
330.262
330.398
330.527
330.649
330.764
330.873
330.975
331.071
331.161
331.246
331.325
331.399
331.468
331.532
331.593
331.649
331.703
331.753
331.8
331.843
331.884
331.924
331.963
331.999
332.027
332.054
332.082
332.111
332.141
332.168
332.187
332.207
332.229
332.249
332.268
332.286
332.302
332.318
332.334
332.348
332.362
332.376
332.388
332.4
332.411
332.421
332.43
332.439
332.448
332.455
332.462
332.469
332.475
332.48
332.485
332.49
332.494
332.497
332.5
332.503
332.505
332.507
332.508
332.508
332.507
332.507
332.512
332.529
332.55
332.571
332.591
332.611
332.633
332.66
332.697
332.77
332.983
326.038
326.621
327.161
327.626
328.026
328.374
328.678
328.943
329.165
329.314
329.203
329.211
329.296
329.424
329.574
329.733
329.893
330.051
330.202
330.345
330.479
330.604
330.719
330.824
330.919
331.005
331.083
331.153
331.218
331.277
331.332
331.384
331.431
331.473
331.514
331.555
331.593
331.619
331.643
331.672
331.702
331.735
331.765
331.782
331.8
331.822
331.842
331.86
331.877
331.893
331.907
331.921
331.934
331.946
331.956
331.966
331.973
331.98
331.986
331.991
331.994
331.997
331.998
331.999
331.998
331.997
331.995
331.992
331.988
331.984
331.978
331.972
331.966
331.959
331.951
331.943
331.933
331.923
331.916
331.925
332.013
332.098
332.164
332.214
332.253
332.288
332.326
332.374
332.455
332.664
325.794
326.369
326.903
327.361
327.757
328.1
328.4
328.658
328.855
328.8
326.005
325.45
325.549
325.861
326.237
326.618
326.98
327.315
327.616
327.885
328.12
328.323
328.496
328.641
328.761
328.858
328.936
328.998
329.048
329.089
329.124
329.155
329.182
329.206
329.23
329.259
329.285
329.297
329.31
329.332
329.356
329.387
329.417
329.432
329.448
329.472
329.494
329.516
329.536
329.554
329.571
329.587
329.6
329.611
329.62
329.626
329.629
329.63
329.628
329.623
329.615
329.605
329.592
329.575
329.557
329.535
329.51
329.484
329.454
329.422
329.388
329.352
329.314
329.274
329.233
329.191
329.146
329.1
329.055
329.062
330.038
330.783
331.303
331.656
331.895
332.06
332.184
332.296
332.436
332.712
325.554
326.121
326.647
327.1
327.491
327.83
328.125
328.378
328.563
328.466
325.526
324.917
325.007
325.329
325.721
326.121
326.503
326.855
327.174
327.457
327.706
327.92
328.102
328.253
328.377
328.476
328.554
328.613
328.659
328.694
328.722
328.747
328.768
328.79
328.815
328.85
328.883
328.901
328.92
328.955
328.995
329.048
329.102
329.135
329.172
329.222
329.272
329.324
329.376
329.429
329.483
329.538
329.592
329.646
329.699
329.751
329.802
329.851
329.899
329.945
329.988
330.028
330.064
330.097
330.126
330.15
330.169
330.183
330.191
330.193
330.189
330.178
330.162
330.14
330.111
330.077
330.037
329.993
329.949
329.968
330.765
331.379
331.807
332.1
332.297
332.433
332.539
332.652
332.832
333.197
325.317
325.876
326.396
326.843
327.228
327.563
327.855
328.104
328.284
328.178
325.259
324.647
324.732
325.05
325.439
325.836
326.216
326.567
326.884
327.167
327.414
327.627
327.807
327.956
328.076
328.171
328.244
328.298
328.336
328.363
328.383
328.398
328.411
328.424
328.442
328.471
328.5
328.507
328.515
328.541
328.574
328.621
328.671
328.692
328.717
328.759
328.801
328.844
328.889
328.935
328.982
329.029
329.075
329.121
329.167
329.213
329.26
329.307
329.354
329.401
329.449
329.498
329.547
329.597
329.648
329.7
329.752
329.805
329.859
329.914
329.968
330.023
330.078
330.133
330.186
330.237
330.286
330.332
330.38
330.488
331.247
331.814
332.206
332.475
332.662
332.798
332.912
333.049
333.287
333.77
325.084
325.634
326.147
326.589
326.969
327.3
327.588
327.834
328.011
327.905
325.021
324.415
324.498
324.811
325.195
325.588
325.963
326.31
326.625
326.905
327.149
327.36
327.537
327.684
327.802
327.895
327.967
328.019
328.056
328.08
328.095
328.106
328.115
328.125
328.14
328.17
328.199
328.201
328.2
328.223
328.253
328.299
328.351
328.366
328.383
328.422
328.46
328.499
328.54
328.582
328.622
328.662
328.698
328.732
328.765
328.797
328.827
328.857
328.885
328.912
328.938
328.962
328.986
329.009
329.03
329.051
329.071
329.091
329.11
329.128
329.147
329.165
329.184
329.203
329.223
329.243
329.264
329.285
329.309
329.376
330.131
330.685
331.066
331.336
331.539
331.702
331.846
332.011
332.264
332.725
324.854
325.396
325.902
326.338
326.714
327.041
327.325
327.568
327.742
327.637
324.793
324.195
324.276
324.584
324.963
325.351
325.721
326.064
326.375
326.651
326.893
327.101
327.276
327.42
327.536
327.629
327.7
327.753
327.79
327.813
327.826
327.834
327.839
327.846
327.861
327.893
327.924
327.922
327.917
327.939
327.968
328.017
328.074
328.086
328.099
328.139
328.179
328.221
328.265
328.309
328.351
328.39
328.428
328.464
328.501
328.537
328.571
328.605
328.636
328.665
328.693
328.719
328.744
328.768
328.79
328.812
328.832
328.85
328.867
328.882
328.896
328.908
328.917
328.925
328.929
328.931
328.93
328.925
328.918
328.952
329.679
330.197
330.535
330.757
330.908
331.021
331.126
331.256
331.468
331.859
324.627
325.16
325.661
326.091
326.462
326.784
327.065
327.305
327.477
327.374
324.568
323.978
324.059
324.363
324.737
325.119
325.485
325.824
326.13
326.403
326.642
326.847
327.019
327.161
327.275
327.366
327.437
327.491
327.53
327.554
327.567
327.572
327.575
327.579
327.593
327.626
327.662
327.658
327.649
327.671
327.701
327.753
327.816
327.828
327.84
327.883
327.928
327.977
328.027
328.075
328.12
328.16
328.2
328.24
328.281
328.321
328.361
328.4
328.437
328.474
328.51
328.545
328.58
328.614
328.648
328.682
328.716
328.749
328.782
328.814
328.847
328.879
328.911
328.942
328.973
329.002
329.031
329.059
329.091
329.173
329.876
330.385
330.727
330.957
331.116
331.234
331.343
331.479
331.702
332.142
324.403
324.929
325.423
325.847
326.213
326.531
326.809
327.045
327.216
327.115
324.347
323.766
323.846
324.146
324.516
324.893
325.254
325.589
325.891
326.16
326.395
326.597
326.766
326.905
327.017
327.105
327.176
327.231
327.273
327.3
327.314
327.318
327.317
327.318
327.331
327.365
327.404
327.4
327.388
327.41
327.441
327.495
327.565
327.578
327.59
327.639
327.692
327.75
327.807
327.859
327.905
327.947
327.989
328.033
328.078
328.124
328.169
328.213
328.256
328.299
328.341
328.383
328.425
328.468
328.51
328.553
328.597
328.641
328.686
328.731
328.777
328.824
328.871
328.919
328.968
329.016
329.065
329.115
329.172
329.288
330.008
330.536
330.893
331.136
331.308
331.444
331.571
331.728
331.987
332.509
324.182
324.7
325.188
325.607
325.968
326.282
326.556
326.79
326.959
326.862
324.135
323.565
323.645
323.942
324.306
324.678
325.033
325.362
325.659
325.923
326.153
326.35
326.514
326.648
326.755
326.839
326.906
326.96
327.003
327.033
327.049
327.051
327.046
327.041
327.048
327.08
327.119
327.112
327.094
327.114
327.143
327.198
327.272
327.287
327.3
327.356
327.418
327.484
327.546
327.599
327.642
327.681
327.722
327.765
327.81
327.854
327.896
327.936
327.974
328.012
328.049
328.085
328.121
328.156
328.191
328.225
328.259
328.293
328.326
328.359
328.392
328.424
328.455
328.485
328.513
328.54
328.565
328.588
328.616
328.7
329.417
329.945
330.299
330.537
330.702
330.826
330.935
331.066
331.288
331.728
323.965
324.475
324.956
325.37
325.727
326.037
326.307
326.539
326.709
326.621
323.948
323.397
323.48
323.773
324.131
324.495
324.841
325.159
325.445
325.695
325.911
326.093
326.242
326.359
326.449
326.517
326.569
326.611
326.647
326.672
326.684
326.681
326.666
326.649
326.643
326.664
326.696
326.681
326.655
326.669
326.695
326.749
326.827
326.848
326.87
326.939
327.017
327.097
327.166
327.221
327.263
327.302
327.341
327.382
327.422
327.457
327.488
327.514
327.537
327.556
327.573
327.588
327.602
327.614
327.625
327.635
327.644
327.653
327.66
327.666
327.671
327.675
327.678
327.679
327.678
327.675
327.67
327.662
327.656
327.694
328.434
328.99
329.374
329.639
329.826
329.965
330.08
330.201
330.386
330.735
323.752
324.253
324.728
325.137
325.489
325.795
326.062
326.293
326.469
326.421
323.949
323.462
323.553
323.832
324.164
324.495
324.803
325.077
325.314
325.513
325.675
325.804
325.903
325.976
326.027
326.061
326.086
326.108
326.13
326.151
326.162
326.159
326.142
326.119
326.104
326.117
326.145
326.128
326.097
326.107
326.13
326.182
326.264
326.292
326.325
326.413
326.511
326.609
326.693
326.759
326.813
326.864
326.915
326.964
327.005
327.037
327.056
327.065
327.065
327.06
327.05
327.038
327.024
327.01
326.995
326.981
326.966
326.951
326.936
326.921
326.905
326.889
326.873
326.856
326.837
326.818
326.796
326.772
326.746
326.764
327.585
328.206
328.638
328.935
329.143
329.292
329.406
329.512
329.65
329.92
323.541
324.035
324.504
324.907
325.254
325.556
325.82
326.051
326.246
326.377
326.318
326.371
326.486
326.621
326.759
326.893
327.02
327.138
327.248
327.348
327.439
327.523
327.598
327.666
327.725
327.779
327.83
327.884
327.944
328.009
328.068
328.11
328.131
328.138
328.148
328.188
328.247
328.248
328.224
328.241
328.262
328.304
328.373
328.368
328.359
328.411
328.468
328.516
328.541
328.548
328.551
328.563
328.584
328.612
328.638
328.661
328.679
328.694
328.707
328.718
328.727
328.734
328.74
328.745
328.748
328.751
328.753
328.754
328.755
328.755
328.754
328.754
328.752
328.75
328.748
328.744
328.74
328.735
328.732
328.743
328.819
328.891
328.95
328.995
329.031
329.061
329.093
329.135
329.211
329.415
323.333
323.818
324.281
324.679
325.021
325.32
325.581
325.811
326.012
326.183
326.319
326.453
326.584
326.711
326.83
326.942
327.046
327.143
327.233
327.318
327.397
327.471
327.54
327.605
327.663
327.716
327.767
327.82
327.881
327.951
328.02
328.075
328.109
328.123
328.134
328.174
328.235
328.24
328.217
328.233
328.249
328.284
328.352
328.346
328.336
328.387
328.439
328.474
328.483
328.478
328.475
328.486
328.509
328.538
328.564
328.587
328.607
328.626
328.643
328.658
328.672
328.685
328.696
328.706
328.715
328.723
328.729
328.735
328.74
328.744
328.747
328.749
328.751
328.753
328.753
328.753
328.751
328.749
328.747
328.749
328.761
328.776
328.793
328.808
328.823
328.839
328.858
328.888
328.954
329.162
323.125
323.603
324.06
324.452
324.79
325.085
325.343
325.57
325.772
325.95
326.108
326.253
326.387
326.512
326.628
326.735
326.835
326.928
327.015
327.096
327.173
327.245
327.314
327.379
327.439
327.493
327.543
327.594
327.651
327.719
327.791
327.856
327.9
327.92
327.932
327.968
328.028
328.034
328.008
328.02
328.03
328.057
328.124
328.122
328.115
328.168
328.217
328.245
328.248
328.244
328.249
328.271
328.304
328.339
328.371
328.4
328.426
328.451
328.474
328.496
328.517
328.535
328.552
328.568
328.582
328.594
328.606
328.616
328.625
328.634
328.641
328.647
328.653
328.658
328.662
328.665
328.668
328.669
328.67
328.673
328.68
328.69
328.703
328.716
328.73
328.746
328.766
328.796
328.873
329.128
322.919
323.389
323.84
324.227
324.56
324.851
325.106
325.33
325.53
325.708
325.869
326.015
326.149
326.272
326.386
326.492
326.59
326.682
326.768
326.848
326.924
326.995
327.063
327.128
327.19
327.247
327.299
327.348
327.402
327.464
327.535
327.603
327.655
327.682
327.695
327.727
327.782
327.786
327.761
327.767
327.767
327.779
327.833
327.828
327.818
327.865
327.904
327.919
327.915
327.911
327.921
327.947
327.981
328.015
328.044
328.071
328.097
328.121
328.145
328.166
328.185
328.202
328.218
328.232
328.244
328.254
328.264
328.272
328.28
328.287
328.293
328.299
328.305
328.311
328.317
328.322
328.328
328.334
328.34
328.348
328.36
328.376
328.395
328.417
328.439
328.464
328.493
328.534
328.628
328.907
322.714
323.176
323.621
324.002
324.331
324.618
324.869
325.091
325.288
325.465
325.624
325.769
325.902
326.025
326.137
326.242
326.339
326.43
326.515
326.595
326.67
326.741
326.808
326.873
326.937
326.997
327.054
327.106
327.158
327.217
327.284
327.352
327.407
327.439
327.454
327.481
327.531
327.531
327.481
327.468
327.442
327.421
327.46
327.435
327.405
327.432
327.449
327.445
327.428
327.417
327.422
327.439
327.458
327.474
327.486
327.498
327.51
327.52
327.53
327.537
327.543
327.548
327.553
327.557
327.561
327.566
327.571
327.577
327.584
327.592
327.601
327.612
327.624
327.637
327.652
327.668
327.684
327.702
327.72
327.742
327.766
327.795
327.828
327.862
327.899
327.937
327.98
328.037
328.148
328.426
322.511
322.965
323.404
323.78
324.105
324.388
324.636
324.855
325.05
325.224
325.382
325.525
325.657
325.778
325.89
325.993
326.09
326.18
326.265
326.344
326.419
326.489
326.556
326.621
326.684
326.748
326.81
326.87
326.926
326.984
327.048
327.115
327.172
327.206
327.219
327.242
327.287
327.282
327.276
327.204
327.09
326.969
326.845
326.75
326.665
326.643
326.617
326.576
326.531
326.498
326.482
326.474
326.468
326.464
326.464
326.47
326.481
326.495
326.511
326.528
326.547
326.567
326.588
326.611
326.634
326.659
326.684
326.711
326.738
326.766
326.795
326.824
326.855
326.886
326.917
326.95
326.982
327.014
327.047
327.082
327.119
327.159
327.203
327.248
327.293
327.341
327.392
327.459
327.574
327.829
322.314
322.76
323.193
323.564
323.885
324.164
324.408
324.625
324.817
324.99
325.145
325.287
325.418
325.537
325.648
325.751
325.847
325.936
326.021
326.1
326.175
326.245
326.312
326.375
326.438
326.503
326.57
326.637
326.702
326.765
326.83
326.897
326.957
326.994
327.006
327.023
327.062
327.015
326.606
326.3
325.928
325.604
325.602
325.425
325.288
325.243
325.213
325.185
325.167
325.168
325.184
325.211
325.244
325.285
325.334
325.389
325.448
325.506
325.564
325.619
325.673
325.726
325.777
325.827
325.876
325.924
325.97
326.016
326.062
326.106
326.15
326.194
326.237
326.28
326.322
326.364
326.405
326.445
326.486
326.526
326.569
326.614
326.662
326.709
326.758
326.807
326.86
326.927
327.037
327.264
322.128
322.566
322.994
323.361
323.677
323.952
324.194
324.408
324.598
324.768
324.922
325.063
325.192
325.31
325.42
325.522
325.618
325.707
325.791
325.871
325.946
326.016
326.083
326.145
326.207
326.27
326.338
326.409
326.482
326.554
326.624
326.694
326.76
326.806
326.825
326.839
326.868
326.782
326.904
326.057
325.255
324.7
323.83
323.691
323.666
323.752
323.85
323.947
324.046
324.149
324.25
324.349
324.445
324.543
324.642
324.739
324.83
324.915
324.994
325.068
325.137
325.203
325.265
325.324
325.382
325.437
325.491
325.543
325.594
325.644
325.693
325.74
325.787
325.833
325.878
325.922
325.964
326.006
326.046
326.087
326.129
326.172
326.217
326.262
326.307
326.352
326.403
326.466
326.565
326.765
321.961
322.393
322.816
323.178
323.49
323.762
324.001
324.213
324.401
324.569
324.722
324.861
324.989
325.106
325.216
325.317
325.412
325.501
325.585
325.665
325.741
325.812
325.88
325.943
326.003
326.063
326.127
326.197
326.273
326.35
326.427
326.503
326.578
326.642
326.68
326.701
326.699
326.304
323.855
322.433
321.636
321.384
322.197
322.42
322.619
322.885
323.128
323.344
323.538
323.711
323.862
323.995
324.118
324.234
324.345
324.447
324.537
324.618
324.693
324.763
324.83
324.893
324.955
325.014
325.071
325.126
325.18
325.232
325.283
325.332
325.379
325.426
325.471
325.514
325.557
325.598
325.637
325.674
325.711
325.747
325.783
325.821
325.859
325.897
325.934
325.972
326.016
326.072
326.161
326.342
321.822
322.248
322.667
323.026
323.335
323.605
323.842
324.051
324.237
324.404
324.556
324.693
324.82
324.937
325.046
325.147
325.241
325.331
325.415
325.495
325.571
325.644
325.713
325.778
325.838
325.896
325.956
326.021
326.093
326.17
326.25
326.33
326.414
326.498
326.564
326.596
326.553
325.733
318.542
317.104
316.538
316.692
321.432
321.996
322.252
322.544
322.804
323.044
323.263
323.457
323.627
323.78
323.92
324.047
324.162
324.264
324.355
324.437
324.513
324.583
324.651
324.715
324.776
324.835
324.892
324.946
324.998
325.049
325.098
325.145
325.191
325.236
325.279
325.321
325.361
325.399
325.436
325.47
325.502
325.533
325.564
325.595
325.626
325.656
325.685
325.715
325.751
325.797
325.874
326.036
321.719
322.14
322.556
322.913
323.22
323.488
323.724
323.932
324.117
324.284
324.434
324.572
324.698
324.814
324.922
325.023
325.117
325.206
325.291
325.371
325.448
325.522
325.593
325.66
325.723
325.782
325.839
325.898
325.965
326.039
326.119
326.201
326.29
326.387
326.477
326.518
326.446
325.29
314.17
312.8
312.462
312.962
321.036
321.872
322.139
322.407
322.638
322.86
323.068
323.258
323.432
323.594
323.744
323.885
324.013
324.128
324.231
324.325
324.413
324.493
324.568
324.637
324.703
324.764
324.822
324.878
324.931
324.983
325.033
325.083
325.131
325.179
325.225
325.269
325.311
325.351
325.388
325.422
325.454
325.483
325.511
325.538
325.563
325.587
325.609
325.631
325.658
325.695
325.762
325.912
321.653
322.072
322.486
322.841
323.147
323.415
323.65
323.858
324.044
324.211
324.362
324.5
324.627
324.744
324.853
324.954
325.048
325.137
325.222
325.302
325.379
325.454
325.526
325.595
325.661
325.722
325.779
325.836
325.9
325.972
326.053
326.135
326.215
326.314
326.409
326.432
326.336
325.055
312.339
311.011
310.801
311.503
321.147
322.104
322.331
322.531
322.687
322.847
323.007
323.163
323.316
323.468
323.621
323.769
323.91
324.04
324.16
324.273
324.386
324.482
324.568
324.646
324.718
324.786
324.849
324.91
324.97
325.028
325.087
325.146
325.204
325.262
325.319
325.375
325.428
325.479
325.526
325.568
325.605
325.638
325.668
325.696
325.721
325.744
325.764
325.783
325.805
325.835
325.894
326.045
321.622
322.04
322.453
322.807
323.113
323.379
323.614
323.823
324.009
324.177
324.329
324.469
324.598
324.718
324.828
324.931
325.028
325.119
325.204
325.286
325.365
325.441
325.515
325.586
325.655
325.718
325.774
325.829
325.89
325.961
326.041
326.111
324.456
324.565
324.655
324.738
324.815
324.889
324.961
325.031
325.102
325.174
325.249
325.326
325.405
325.481
325.556
325.63
325.701
325.768
325.834
325.896
325.959
326.022
326.084
326.144
326.196
326.238
326.267
326.285
326.295
326.307
326.351
326.504
321.618
322.035
322.448
322.801
323.106
323.373
323.607
323.815
324
324.168
324.321
324.462
324.592
324.713
324.826
324.932
325.032
325.126
325.216
325.301
325.384
325.464
325.542
325.618
325.692
325.76
325.818
325.87
325.923
325.982
326.043
326.087
324.669
324.757
324.833
324.908
324.983
325.061
325.142
325.225
325.311
325.401
325.496
325.595
325.696
325.796
325.897
326.004
326.12
326.248
326.383
326.519
326.644
326.751
326.833
326.888
326.916
326.921
326.907
326.882
326.854
326.836
326.863
327.015
321.628
322.046
322.459
322.812
323.117
323.382
323.616
323.823
324.007
324.174
324.325
324.465
324.594
324.715
324.828
324.935
325.036
325.133
325.226
325.315
325.403
325.489
325.573
325.656
325.738
325.812
325.854
325.898
325.932
325.958
325.989
325.969
324.912
324.985
325.053
325.125
325.201
325.282
325.372
325.474
325.586
325.703
325.822
325.947
326.085
326.242
326.414
326.59
326.752
326.887
326.985
327.043
327.066
327.063
327.044
327.014
326.98
326.944
326.908
326.875
326.851
326.846
326.889
327.043
321.641
322.06
322.473
322.827
323.132
323.398
323.632
323.839
324.023
324.188
324.339
324.477
324.605
324.724
324.836
324.941
325.042
325.138
325.231
325.322
325.412
325.501
325.589
325.677
325.764
325.844
325.952
325.969
325.948
325.893
325.755
325.624
325.126
325.217
325.296
325.381
325.485
325.607
325.736
325.868
326.012
326.172
326.35
326.531
326.694
326.82
326.903
326.945
326.954
326.938
326.906
326.865
326.821
326.779
326.742
326.711
326.686
326.666
326.65
326.639
326.639
326.657
326.715
326.869
321.651
322.07
322.484
322.838
323.144
323.41
323.645
323.852
324.037
324.203
324.354
324.493
324.621
324.74
324.851
324.957
325.057
325.153
325.246
325.338
325.428
325.519
325.609
325.699
325.785
325.84
325.601
325.484
325.3
325.096
325.105
324.894
325.472
325.612
325.762
325.912
326.053
326.195
326.342
326.475
326.575
326.64
326.676
326.686
326.676
326.654
326.623
326.587
326.551
326.514
326.479
326.448
326.421
326.4
326.386
326.379
326.377
326.378
326.383
326.392
326.41
326.443
326.51
326.66
321.653
322.072
322.486
322.841
323.147
323.414
323.648
323.856
324.042
324.209
324.361
324.5
324.629
324.749
324.861
324.967
325.069
325.166
325.261
325.354
325.447
325.541
325.635
325.727
325.808
325.851
326.327
325.884
325.368
324.947
324.042
323.879
325.956
326.05
326.117
326.166
326.203
326.231
326.248
326.255
326.253
326.242
326.226
326.207
326.187
326.168
326.15
326.134
326.118
326.103
326.09
326.08
326.074
326.072
326.076
326.085
326.098
326.115
326.133
326.155
326.185
326.227
326.3
326.449
321.65
322.069
322.483
322.837
323.143
323.409
323.644
323.852
324.037
324.205
324.356
324.496
324.625
324.745
324.858
324.965
325.067
325.166
325.262
325.357
325.452
325.549
325.646
325.736
325.778
325.537
323.685
322.623
322.008
321.863
322.741
322.994
325.696
325.74
325.76
325.769
325.774
325.777
325.78
325.781
325.78
325.777
325.773
325.77
325.767
325.764
325.764
325.765
325.768
325.773
325.78
325.789
325.801
325.815
325.834
325.856
325.882
325.909
325.937
325.968
326.004
326.05
326.123
326.27
321.644
322.062
322.476
322.83
323.135
323.402
323.636
323.844
324.029
324.196
324.348
324.487
324.616
324.737
324.85
324.957
325.059
325.158
325.255
325.351
325.448
325.545
325.641
325.721
325.695
325.006
318.243
317.011
316.565
316.843
322.002
322.664
325.303
325.338
325.355
325.367
325.376
325.386
325.396
325.406
325.418
325.43
325.443
325.456
325.47
325.485
325.501
325.517
325.535
325.554
325.574
325.596
325.618
325.643
325.67
325.701
325.734
325.767
325.802
325.838
325.88
325.929
326.002
326.152
321.638
322.056
322.47
322.823
323.129
323.395
323.629
323.836
324.021
324.188
324.339
324.479
324.607
324.727
324.84
324.947
325.05
325.149
325.246
325.342
325.438
325.534
325.627
325.693
325.605
324.522
313.555
312.249
311.988
312.636
321.488
322.48
325.099
325.133
325.15
325.164
325.177
325.192
325.207
325.223
325.24
325.258
325.277
325.298
325.318
325.34
325.363
325.387
325.411
325.437
325.463
325.49
325.518
325.548
325.58
325.615
325.652
325.69
325.729
325.769
325.814
325.866
325.943
326.099
321.634
322.052
322.465
322.819
323.124
323.391
323.625
323.832
324.017
324.183
324.334
324.473
324.602
324.721
324.834
324.94
325.041
325.139
325.235
325.33
325.425
325.519
325.608
325.662
325.535
324.26
311.435
310.09
309.933
310.795
321.393
322.526
325.131
325.161
325.173
325.181
325.189
325.198
325.206
325.216
325.227
325.24
325.255
325.271
325.289
325.309
325.331
325.354
325.378
325.404
325.43
325.458
325.487
325.518
325.552
325.588
325.627
325.667
325.708
325.751
325.798
325.853
325.936
326.103
321.632
322.05
322.464
322.817
323.123
323.39
323.624
323.831
324.016
324.183
324.334
324.473
324.601
324.72
324.832
324.937
325.037
325.133
325.227
325.32
325.412
325.502
325.584
325.627
325.483
324.197
310.995
309.605
309.498
310.531
322.199
323.22
325.339
325.365
325.369
325.364
325.358
325.35
325.341
325.333
325.327
325.325
325.326
325.331
325.339
325.35
325.363
325.38
325.398
325.419
325.442
325.467
325.493
325.523
325.555
325.591
325.631
325.672
325.714
325.759
325.808
325.866
325.956
326.134
321.633
322.051
322.464
322.818
323.124
323.39
323.624
323.832
324.017
324.183
324.335
324.474
324.602
324.721
324.832
324.936
325.035
325.13
325.223
325.313
325.402
325.488
325.563
325.597
325.442
324.162
310.931
309.532
309.448
310.608
323.132
324.156
325.612
325.636
325.627
325.599
325.563
325.527
325.491
325.457
325.429
325.407
325.391
325.38
325.375
325.374
325.378
325.386
325.398
325.414
325.433
325.455
325.479
325.507
325.54
325.576
325.616
325.659
325.703
325.75
325.801
325.863
325.959
326.145
321.635
322.053
322.466
322.82
323.126
323.392
323.626
323.833
324.018
324.185
324.336
324.474
324.602
324.72
324.831
324.935
325.033
325.127
325.218
325.306
325.392
325.474
325.543
325.57
325.414
324.155
310.995
309.625
309.559
310.772
323.74
324.871
325.822
325.825
325.774
325.695
325.623
325.543
325.469
325.406
325.355
325.316
325.288
325.269
325.259