/*--------------------------------*- C++ -*----------------------------------*\
| =========                 |                                                 |
| \\      /  F ield         | OpenFOAM: The Open Source CFD Toolbox           |
|  \\    /   O peration     | Version:  v2012                                 |
|   \\  /    A nd           | Website:  www.openfoam.com                      |
|    \\/     M anipulation  |                                                 |
\*---------------------------------------------------------------------------*/
FoamFile
{
    version     2.0;
    format      ascii;
    class       volScalarField;
    location    "450/air";
    object      alphat;
}
// * * * * * * * * * * * * * * * * * * * * * * * * * * * * * * * * * * * * * //

dimensions      [1 -1 -1 0 0 0 0];


internalField   nonuniform List<scalar> 
287104
(
0.00647909
0.0060022
0.0056354
0.00534292
0.00510412
0.00490566
0.00473835
0.00459563
0.00447264
0.0043657
0.00427202
0.00418938
0.00411604
0.00405059
0.0039919
0.00393903
0.0038912
0.00384776
0.00380816
0.00377195
0.00373872
0.00370815
0.00367994
0.00365383
0.00362961
0.0036071
0.00358611
0.0035665
0.00354814
0.00353091
0.00351472
0.00349946
0.00348505
0.00347141
0.00345847
0.00344617
0.00343446
0.00342327
0.00341255
0.00340227
0.00339238
0.00338284
0.00337361
0.00336467
0.00335599
0.00334753
0.00333929
0.00333124
0.00332336
0.00331563
0.00330805
0.00330061
0.00329329
0.0032861
0.00327902
0.00327205
0.00326519
0.00325844
0.00325179
0.00324525
0.00323882
0.00323249
0.00322626
0.00322013
0.0032141
0.00320817
0.00320234
0.0031966
0.00319096
0.00318539
0.00317991
0.0031745
0.00316915
0.00316386
0.00315861
0.00315339
0.00314819
0.00314299
0.00313777
0.0031325
0.00312715
0.00312168
0.00311604
0.00311014
0.00310386
0.00309701
0.00308933
0.0030799
0.00306895
0.00304454
0.00647904
0.00600208
0.0056352
0.00534266
0.0051038
0.00490529
0.00473795
0.0045952
0.00447217
0.00436522
0.00427152
0.00418888
0.00411554
0.00405011
0.00399144
0.00393859
0.00389079
0.00384738
0.00380782
0.00377164
0.00373846
0.00370793
0.00367976
0.0036537
0.00362953
0.00360706
0.00358612
0.00356657
0.00354828
0.00353112
0.003515
0.00349982
0.0034855
0.00347196
0.00345912
0.00344693
0.00343533
0.00342426
0.00341367
0.00340352
0.00339376
0.00338435
0.00337526
0.00336646
0.00335791
0.00334959
0.00334147
0.00333354
0.00332577
0.00331816
0.00331068
0.00330333
0.0032961
0.00328898
0.00328197
0.00327506
0.00326825
0.00326154
0.00325493
0.00324842
0.00324201
0.00323569
0.00322947
0.00322335
0.00321732
0.00321139
0.00320555
0.0031998
0.00319414
0.00318855
0.00318305
0.00317762
0.00317224
0.00316692
0.00316165
0.0031564
0.00315116
0.00314592
0.00314065
0.00313532
0.00312992
0.00312438
0.00311867
0.00311269
0.00310635
0.00309943
0.00309169
0.00308224
0.00307128
0.00304713
0.00647907
0.00600211
0.00563523
0.00534268
0.00510381
0.00490528
0.00473792
0.00459515
0.00447211
0.00436514
0.00427144
0.00418879
0.00411546
0.00405004
0.00399138
0.00393855
0.00389077
0.00384739
0.00380785
0.0037717
0.00373855
0.00370804
0.0036799
0.00365388
0.00362974
0.00360731
0.00358642
0.00356692
0.00354868
0.00353158
0.00351552
0.00350041
0.00348617
0.00347271
0.00345996
0.00344787
0.00343637
0.00342541
0.00341493
0.0034049
0.00339526
0.00338598
0.00337702
0.00336834
0.00335992
0.00335173
0.00334375
0.00333594
0.00332831
0.00332082
0.00331347
0.00330625
0.00329914
0.00329215
0.00328526
0.00327847
0.00327179
0.00326521
0.00325872
0.00325234
0.00324605
0.00323987
0.00323378
0.00322779
0.0032219
0.00321611
0.00321042
0.00320481
0.0031993
0.00319388
0.00318853
0.00318325
0.00317805
0.00317289
0.00316779
0.00316271
0.00315764
0.00315257
0.00314748
0.00314233
0.00313709
0.00313172
0.00312618
0.00312038
0.00311421
0.00310749
0.00309997
0.00309078
0.00308015
0.00305675
0.0064791
0.00600213
0.00563523
0.00534264
0.00510373
0.00490516
0.00473775
0.00459492
0.00447184
0.00436484
0.0042711
0.00418844
0.0041151
0.00404967
0.00399102
0.0039382
0.00389043
0.00384706
0.00380753
0.0037714
0.00373825
0.00370776
0.00367963
0.00365362
0.0036295
0.00360709
0.00358622
0.00356675
0.00354854
0.00353148
0.00351548
0.00350042
0.00348624
0.00347286
0.0034602
0.00344819
0.00343679
0.00342594
0.00341557
0.00340565
0.00339614
0.00338698
0.00337814
0.00336959
0.00336129
0.00335322
0.00334534
0.00333765
0.00333011
0.00332272
0.00331546
0.00330832
0.00330129
0.00329436
0.00328754
0.00328081
0.00327417
0.00326763
0.00326118
0.00325483
0.00324857
0.0032424
0.00323634
0.00323036
0.00322448
0.00321869
0.003213
0.00320739
0.00320187
0.00319643
0.00319107
0.00318577
0.00318053
0.00317533
0.00317017
0.00316503
0.00315989
0.00315473
0.00314952
0.00314423
0.00313883
0.00313328
0.00312752
0.00312148
0.00311506
0.00310807
0.00310028
0.00309083
0.00307995
0.00305641
0.00647913
0.00600217
0.00563525
0.00534265
0.0051037
0.00490509
0.00473764
0.00459477
0.00447163
0.00436458
0.00427081
0.00418813
0.00411478
0.00404936
0.00399072
0.00393792
0.00389016
0.00384681
0.0038073
0.00377118
0.00373805
0.00370758
0.00367947
0.00365347
0.00362937
0.00360699
0.00358615
0.00356671
0.00354854
0.00353154
0.00351559
0.0035006
0.0034865
0.0034732
0.00346064
0.00344875
0.00343747
0.00342674
0.00341651
0.00340673
0.00339736
0.00338835
0.00337966
0.00337126
0.00336311
0.00335519
0.00334746
0.00333991
0.00333251
0.00332526
0.00331812
0.0033111
0.00330419
0.00329737
0.00329065
0.00328403
0.00327749
0.00327105
0.00326469
0.00325843
0.00325226
0.00324618
0.0032402
0.00323431
0.00322851
0.00322281
0.00321719
0.00321166
0.00320621
0.00320084
0.00319554
0.0031903
0.00318511
0.00317996
0.00317484
0.00316973
0.00316461
0.00315945
0.00315422
0.00314889
0.00314343
0.00313778
0.0031319
0.00312573
0.00311917
0.00311205
0.00310416
0.00309467
0.00308381
0.00306053
0.00647917
0.0060022
0.00563526
0.00534262
0.00510363
0.00490496
0.00473745
0.00459451
0.00447131
0.0043642
0.0042704
0.0041877
0.00411437
0.00404897
0.00399035
0.00393757
0.00388984
0.0038465
0.003807
0.00377089
0.00373776
0.00370729
0.00367918
0.00365319
0.0036291
0.00360673
0.00358591
0.00356651
0.00354839
0.00353144
0.00351557
0.00350067
0.00348667
0.00347349
0.00346107
0.00344933
0.00343821
0.00342767
0.00341764
0.00340807
0.00339892
0.00339014
0.00338169
0.00337353
0.00336563
0.00335795
0.00335047
0.00334316
0.00333602
0.003329
0.00332211
0.00331534
0.00330867
0.0033021
0.00329562
0.00328924
0.00328295
0.00327676
0.00327066
0.00326466
0.00325875
0.00325295
0.00324725
0.00324166
0.00323616
0.00323077
0.00322548
0.00322029
0.0032152
0.00321019
0.00320527
0.00320042
0.00319565
0.00319093
0.00318625
0.0031816
0.00317696
0.0031723
0.00316759
0.0031628
0.00315788
0.00315281
0.00314754
0.00314204
0.00313624
0.00313
0.00312316
0.00311498
0.00310567
0.00308507
0.0064792
0.00600223
0.00563527
0.0053426
0.00510356
0.00490482
0.00473722
0.00459417
0.00447086
0.00436363
0.00426974
0.00418699
0.00411364
0.00404824
0.00398965
0.00393689
0.00388919
0.00384587
0.00380639
0.00377029
0.00373718
0.00370671
0.00367862
0.00365264
0.00362858
0.00360624
0.00358547
0.00356613
0.00354809
0.00353125
0.0035155
0.00350076
0.00348694
0.00347397
0.00346178
0.0034503
0.00343948
0.00342925
0.00341956
0.00341036
0.00340159
0.00339321
0.00338517
0.00337741
0.00336991
0.00336264
0.00335558
0.00334869
0.00334197
0.0033354
0.00332895
0.00332262
0.00331641
0.00331029
0.00330428
0.00329837
0.00329255
0.00328684
0.00328123
0.00327573
0.00327034
0.00326507
0.00325991
0.00325488
0.00324996
0.00324518
0.00324051
0.00323598
0.00323158
0.0032273
0.00322314
0.00321911
0.00321519
0.00321139
0.00320768
0.00320406
0.00320051
0.00319701
0.00319353
0.00319002
0.00318645
0.00318277
0.00317899
0.00317508
0.00317101
0.0031667
0.00316206
0.00315664
0.0031507
0.00313557
0.00647923
0.00600226
0.00563528
0.00534256
0.00510346
0.00490464
0.00473693
0.00459377
0.00447033
0.00436298
0.00426904
0.00418633
0.00411304
0.00404772
0.00398918
0.00393645
0.00388875
0.0038454
0.00380588
0.0037697
0.0037365
0.00370595
0.00367776
0.0036517
0.00362757
0.0036052
0.00358442
0.0035651
0.00354712
0.00353039
0.00351479
0.00350025
0.00348665
0.00347395
0.00346205
0.00345092
0.00344046
0.00343064
0.00342137
0.0034126
0.00340428
0.00339634
0.00338875
0.00338144
0.00337439
0.00336755
0.0033609
0.00335443
0.00334809
0.00334189
0.00333581
0.00332985
0.003324
0.00331828
0.00331266
0.00330716
0.00330178
0.00329652
0.00329139
0.00328638
0.0032815
0.00327675
0.00327213
0.00326765
0.0032633
0.00325909
0.003255
0.00325105
0.00324723
0.00324353
0.00323994
0.00323647
0.00323311
0.00322984
0.00322665
0.00322354
0.00322047
0.00321743
0.00321437
0.00321123
0.00320796
0.00320452
0.00320094
0.00319721
0.00319331
0.00318921
0.00318491
0.00318024
0.0031763
0.00316828
0.00647926
0.00600229
0.00563528
0.00534251
0.00510332
0.00490438
0.0047365
0.00459309
0.00446929
0.00436149
0.00426777
0.00418603
0.00411405
0.00404997
0.00399236
0.00394012
0.00389243
0.0038487
0.00380844
0.00377129
0.00373696
0.00370522
0.00367585
0.00364868
0.00362356
0.00360034
0.00357889
0.00355906
0.00354074
0.00352381
0.00350815
0.00349365
0.00348024
0.00346781
0.00345628
0.00344558
0.0034356
0.00342629
0.00341752
0.00340921
0.00340131
0.00339373
0.00338644
0.00337939
0.00337255
0.00336589
0.00335939
0.00335306
0.00334687
0.00334084
0.00333493
0.00332915
0.00332349
0.00331795
0.00331252
0.00330721
0.00330202
0.00329695
0.00329201
0.0032872
0.00328252
0.00327797
0.00327355
0.00326926
0.00326511
0.00326109
0.0032572
0.00325344
0.00324982
0.00324632
0.00324295
0.0032397
0.00323656
0.00323354
0.00323062
0.00322779
0.00322503
0.00322233
0.00321963
0.00321683
0.00321379
0.00321058
0.0032073
0.00320394
0.00320049
0.00319689
0.00319314
0.00318909
0.00318569
0.00317986
0.00647929
0.00600232
0.00563528
0.00534245
0.00510318
0.00490413
0.00473608
0.00459245
0.00446831
0.00436028
0.0043267
0.00430932
0.00428354
0.0042449
0.00419556
0.00413925
0.00407946
0.00401887
0.00395941
0.00390237
0.00384857
0.00379848
0.00375233
0.00371016
0.00367191
0.00363741
0.00360637
0.00357846
0.00355327
0.00353037
0.0035093
0.00348953
0.00347234
0.00345786
0.00344545
0.0034346
0.00342493
0.00341612
0.00340797
0.0034003
0.003393
0.00338595
0.00337909
0.00337237
0.00336599
0.00336002
0.00335446
0.00334927
0.0033444
0.0033398
0.00333543
0.00333126
0.00332725
0.0033234
0.00331968
0.00331611
0.00331268
0.00330938
0.00330622
0.00330318
0.00330027
0.00329749
0.00329483
0.00329229
0.00328987
0.00328758
0.0032854
0.00328333
0.00328138
0.00327955
0.00327784
0.00327625
0.00327478
0.00327342
0.00327218
0.00327104
0.00327
0.00326902
0.00326807
0.00326696
0.00325871
0.00324893
0.00323948
0.00323087
0.00322317
0.0032162
0.00320979
0.00320357
0.00319819
0.00319049
0.00647933
0.00600234
0.00563527
0.00534237
0.00510299
0.00490374
0.00473535
0.00459107
0.00446513
0.00436357
0.00768994
0.00841136
0.00839871
0.00814088
0.00781701
0.00749483
0.00719905
0.00693734
0.00671062
0.00651726
0.00635479
0.00622045
0.00611143
0.00602491
0.00595802
0.0059079
0.0058717
0.00584665
0.00583014
0.00581981
0.00581363
0.00580988
0.00580787
0.00580755
0.00580858
0.00581039
0.00581248
0.0058145
0.00581626
0.00581771
0.00581892
0.00582005
0.00582096
0.00582171
0.00582226
0.00582279
0.00582364
0.00582515
0.00582764
0.00583138
0.00583651
0.00584315
0.0058514
0.0058613
0.00587285
0.00588602
0.00590084
0.00591734
0.00593556
0.00595547
0.00597706
0.00600028
0.0060251
0.00605146
0.00607929
0.00610851
0.00613903
0.00617076
0.0062036
0.00623741
0.00627208
0.00630746
0.00634342
0.00637988
0.00641681
0.00645425
0.00649254
0.00653243
0.00657855
0.00662238
0.00529781
0.00451548
0.00403155
0.00372319
0.00352317
0.00339196
0.00330517
0.0032468
0.00320761
0.00317553
0.00647936
0.00600237
0.00563526
0.00534232
0.00510286
0.0049035
0.00473494
0.00459045
0.0044642
0.00436232
0.00769048
0.00841368
0.00839933
0.00813727
0.00780767
0.00747887
0.007176
0.00690708
0.00667327
0.00647319
0.00630452
0.00616469
0.00605107
0.00596094
0.00589156
0.00584007
0.00580361
0.00577932
0.00576445
0.00575642
0.00575294
0.00575204
0.00575212
0.00575193
0.00575057
0.00574738
0.00574194
0.00573396
0.00572329
0.00570986
0.00569368
0.00567482
0.0056538
0.00563087
0.00560622
0.00558013
0.0055529
0.00552483
0.00549614
0.00546701
0.00543764
0.00540824
0.00537902
0.00535018
0.00532192
0.00529447
0.00526809
0.00524307
0.00521963
0.00519803
0.00517858
0.00516161
0.00514749
0.00513653
0.00512909
0.00512544
0.00512588
0.00513063
0.00513987
0.00515371
0.0051722
0.00519532
0.005223
0.00525509
0.00529141
0.00533178
0.00537636
0.00542526
0.00548272
0.00553831
0.00462253
0.00406
0.00369932
0.00346162
0.0033027
0.00319586
0.00312396
0.00307438
0.00303927
0.00300284
0.00647939
0.0060024
0.00563526
0.00534227
0.00510273
0.00490325
0.00473452
0.00458978
0.00446317
0.00436081
0.00768379
0.00840761
0.00839497
0.00813451
0.00780606
0.0074779
0.00717521
0.00690613
0.006672
0.00647158
0.00630273
0.00616306
0.00605006
0.00596116
0.00589369
0.00584487
0.0058118
0.00579159
0.00578138
0.00577851
0.00578058
0.00578553
0.00579166
0.00579764
0.00580251
0.00580559
0.00580646
0.00580486
0.00580067
0.00579384
0.00578442
0.00577249
0.00575822
0.0057418
0.00572345
0.0057034
0.00568192
0.00565925
0.00563564
0.00561131
0.00558647
0.00556127
0.00553584
0.00551026
0.00548457
0.00545877
0.00543279
0.00540655
0.00538001
0.00535318
0.005326
0.00529841
0.00527035
0.0052418
0.00521272
0.00518312
0.00515303
0.00512249
0.0050916
0.00506044
0.00502918
0.00499799
0.00496713
0.00493689
0.00490767
0.00487996
0.00485456
0.00483215
0.00481689
0.0047984
0.0040278
0.00357148
0.00328807
0.00310428
0.00298046
0.00289414
0.00283199
0.00278413
0.00274542
0.00269545
0.00647942
0.00600243
0.00563527
0.00534224
0.00510264
0.00490309
0.00473427
0.00458942
0.00446268
0.00436021
0.00768193
0.00840607
0.00839387
0.00813362
0.00780517
0.00747681
0.00717381
0.00690435
0.00666983
0.00646907
0.00629996
0.00616015
0.00604717
0.00595847
0.00589139
0.00584318
0.00581094
0.00579177
0.00578281
0.00578136
0.00578502
0.00579168
0.00579966
0.0058076
0.00581454
0.00581978
0.00582287
0.00582351
0.00582154
0.00581688
0.00580952
0.00579954
0.00578708
0.00577237
0.00575568
0.00573734
0.00571774
0.00569725
0.00567623
0.00565503
0.00563393
0.0056132
0.00559386
0.00557596
0.00555933
0.00554379
0.00552921
0.00551547
0.00550253
0.00549042
0.00547921
0.00546896
0.00545967
0.00545132
0.00544391
0.00543741
0.00543181
0.00542704
0.00542301
0.00541964
0.00541681
0.00541442
0.00541235
0.00541048
0.00540874
0.00540712
0.00540602
0.00540615
0.00541241
0.00542706
0.0045722
0.00408754
0.00379414
0.00360428
0.00347235
0.0033733
0.00329277
0.00322486
0.00316875
0.00310573
0.00647945
0.00600246
0.00563529
0.00534223
0.00510259
0.00490298
0.00473408
0.00458914
0.00446229
0.00435969
0.00767948
0.00840331
0.00839119
0.00813111
0.0078028
0.00747451
0.00717149
0.00690195
0.00666729
0.00646637
0.00629712
0.00615722
0.00604421
0.00595559
0.00588872
0.00584082
0.00580903
0.00579042
0.00578212
0.00578142
0.00578591
0.00579348
0.00580242
0.00581141
0.00581944
0.00582579
0.00582999
0.00583169
0.00583066
0.00582674
0.00581984
0.00580996
0.0057972
0.0057818
0.00576407
0.00574437
0.00572314
0.00570083
0.00567785
0.00565457
0.00563131
0.00560835
0.0055859
0.0055641
0.00554309
0.00552292
0.00550363
0.00548523
0.00546802
0.0054523
0.00543792
0.00542469
0.00541248
0.00540118
0.00539073
0.00538114
0.00537248
0.00536485
0.00535834
0.00535298
0.00534887
0.00534609
0.00534476
0.00534501
0.00534703
0.00535114
0.00535797
0.00536848
0.00538764
0.00541786
0.00457761
0.00410904
0.00383288
0.00366126
0.0035485
0.00346962
0.00341014
0.00336019
0.00331175
0.00324737
0.00647948
0.00600249
0.00563531
0.00534223
0.00510256
0.00490292
0.00473399
0.004589
0.0044621
0.00435944
0.00767798
0.00840136
0.00838894
0.00812861
0.00780005
0.00747152
0.00716827
0.00689852
0.0066637
0.00646265
0.00629332
0.00615341
0.00604046
0.00595197
0.0058853
0.00583768
0.00580621
0.00578796
0.00578005
0.00577976
0.00578466
0.00579267
0.00580208
0.00581157
0.00582015
0.00582711
0.00583192
0.00583419
0.00583361
0.00582988
0.0058228
0.00581225
0.00579828
0.00578111
0.00576108
0.00573865
0.00571436
0.00568873
0.00566228
0.00563542
0.00560854
0.0055819
0.00555571
0.00553011
0.00550518
0.00548096
0.00545746
0.00543466
0.00541251
0.00539095
0.00536992
0.00534935
0.00532919
0.00530934
0.00528974
0.0052703
0.00525099
0.00523174
0.00521247
0.00519314
0.00517369
0.00515412
0.00513442
0.00511458
0.00509467
0.00507479
0.00505526
0.00503623
0.00502074
0.00499957
0.0042203
0.00377659
0.00351277
0.00334748
0.00323677
0.00315621
0.00309199
0.00303484
0.00298062
0.0029082
0.00647951
0.00600253
0.00563535
0.00534226
0.00510258
0.00490293
0.00473399
0.004589
0.0044621
0.00435945
0.00767751
0.00840035
0.00838729
0.00812628
0.00779707
0.00746793
0.00716416
0.006894
0.00665888
0.00645767
0.00628831
0.00614848
0.00603574
0.00594755
0.00588124
0.005834
0.00580289
0.00578495
0.00577726
0.00577711
0.00578207
0.0057901
0.00579953
0.00580912
0.00581792
0.00582526
0.0058306
0.00583351
0.00583351
0.00583015
0.00582299
0.00581172
0.00579629
0.00577688
0.00575393
0.00572803
0.00569987
0.00567013
0.00563943
0.00560829
0.00557713
0.00554625
0.00551586
0.00548608
0.00545695
0.00542846
0.00540058
0.00537324
0.00534636
0.00531986
0.00529364
0.00526761
0.00524169
0.0052158
0.00518985
0.00516378
0.00513753
0.00511105
0.00508433
0.00505733
0.00503008
0.00500262
0.00497502
0.00494741
0.00491999
0.00489304
0.00486709
0.00484248
0.00482265
0.00479737
0.00403541
0.00359215
0.00332245
0.00315049
0.00303504
0.00295282
0.00289039
0.0028381
0.0027921
0.00273016
0.00647954
0.00600257
0.00563538
0.00534229
0.00510261
0.00490296
0.00473404
0.00458906
0.00446219
0.00435953
0.00767617
0.00839774
0.00838365
0.00812194
0.0077923
0.00746298
0.00715922
0.00688919
0.00665433
0.0064535
0.00628468
0.00614556
0.00603374
0.00594665
0.00588159
0.00583569
0.00580593
0.00578928
0.00578278
0.00578374
0.0057898
0.00579903
0.00580991
0.00582133
0.00583247
0.00584269
0.00585141
0.00585801
0.00586174
0.00586166
0.00585691
0.0058468
0.0058311
0.00581009
0.00578446
0.00575518
0.00572333
0.00568997
0.00565602
0.00562221
0.00558909
0.00555703
0.00552623
0.00549677
0.00546866
0.00544182
0.00541614
0.00539155
0.00536796
0.00534533
0.00532358
0.00530269
0.00528262
0.00526336
0.00524494
0.00522737
0.00521073
0.00519509
0.00518056
0.00516723
0.00515527
0.00514481
0.00513603
0.00512915
0.00512443
0.00512222
0.00512313
0.00512768
0.00514017
0.00515272
0.00433464
0.00385939
0.00357053
0.0033873
0.00326614
0.00318254
0.00312213
0.00307507
0.00303594
0.00298823
0.00647957
0.00600261
0.00563543
0.00534235
0.00510269
0.0049031
0.00473426
0.00458944
0.00446283
0.00436053
0.00768002
0.00840018
0.00838387
0.00812008
0.00778887
0.00745875
0.00715519
0.00688659
0.0066546
0.00645828
0.00629572
0.00616459
0.00606228
0.00598588
0.00593221
0.0058979
0.00587952
0.00587375
0.00587755
0.0058883
0.00590383
0.00592247
0.00594297
0.0059644
0.00598604
0.0060072
0.00602704
0.00604446
0.00605797
0.00606572
0.00606587
0.00605711
0.00603898
0.00601209
0.00597785
0.00593818
0.00589521
0.00585096
0.00580719
0.00576532
0.00572634
0.00569089
0.0056593
0.00563164
0.00560778
0.00558748
0.00557057
0.00555686
0.0055461
0.00553796
0.00553211
0.00552828
0.00552624
0.00552582
0.00552693
0.00552951
0.00553353
0.005539
0.00554593
0.00555433
0.00556423
0.00557566
0.00558867
0.00560332
0.00561973
0.00563817
0.0056593
0.00568405
0.00571904
0.00576763
0.00481692
0.0042578
0.00390884
0.00368045
0.00352513
0.00341599
0.00333686
0.00327684
0.00322851
0.00317888
0.0064796
0.00600265
0.00563548
0.00534241
0.00510277
0.00490322
0.00473445
0.00458975
0.00446332
0.00436115
0.00767507
0.00839231
0.0083774
0.00811739
0.00779423
0.0074781
0.00719552
0.00695522
0.00675834
0.00660268
0.00648442
0.006399
0.0063415
0.00630703
0.00629096
0.00628909
0.00629785
0.00631426
0.00633603
0.0063614
0.00638917
0.00641849
0.00644886
0.00647992
0.00651138
0.00654281
0.0065735
0.00660223
0.00662704
0.00664516
0.00665341
0.00664906
0.0066305
0.00659767
0.0065519
0.00649559
0.00643172
0.00636353
0.00629418
0.00622661
0.00616335
0.00610646
0.00605748
0.00601737
0.00598658
0.00596495
0.00595372
0.00595241
0.0059591
0.00597159
0.00598802
0.00600695
0.00602742
0.00604879
0.0060707
0.00609293
0.00611541
0.00613809
0.00616099
0.00618412
0.00620751
0.00623117
0.00625513
0.00627946
0.00630428
0.00632984
0.00635683
0.00638653
0.00642471
0.00646823
0.00524192
0.00452079
0.00407423
0.00378709
0.00359728
0.00346902
0.00338068
0.00331837
0.00327359
0.00323619
0.00647963
0.00600269
0.00563553
0.00534249
0.00510291
0.00490347
0.00473497
0.00459083
0.00446612
0.0043574
0.00428073
0.00421396
0.00414569
0.00408226
0.0040229
0.00396738
0.00391566
0.00386769
0.00382337
0.00378259
0.00374517
0.00371095
0.00367975
0.00365136
0.00362558
0.00360224
0.00358114
0.00356211
0.00354499
0.00352966
0.00351599
0.00350389
0.00349331
0.00348422
0.00347662
0.00347054
0.00346599
0.00346298
0.0034614
0.00346099
0.00346131
0.00346179
0.00346186
0.00346107
0.00345909
0.00345567
0.0034508
0.00344457
0.00343719
0.00342887
0.00341988
0.00341045
0.00340083
0.00339124
0.00338188
0.00337288
0.00336438
0.00335647
0.0033492
0.00334258
0.00333658
0.00333118
0.00332632
0.00332195
0.003318
0.00331443
0.00331118
0.00330822
0.0033055
0.003303
0.00330068
0.00329854
0.00329655
0.00329469
0.00329296
0.00329135
0.00328984
0.0032884
0.00328703
0.00328553
0.00327772
0.0032685
0.00325954
0.00325131
0.00324389
0.00323717
0.00323104
0.00322523
0.00322031
0.00321293
0.00647966
0.00600273
0.00563558
0.00534254
0.00510298
0.00490358
0.00473515
0.00459111
0.00446658
0.00435799
0.00426283
0.00417901
0.00410463
0.00403819
0.00397846
0.0039245
0.0038755
0.00383084
0.00378999
0.00375252
0.00371806
0.00368633
0.00365707
0.00363007
0.00360516
0.00358217
0.003561
0.00354152
0.00352366
0.00350735
0.00349253
0.00347919
0.00346732
0.00345696
0.00344819
0.00344112
0.0034359
0.0034326
0.00343122
0.00343148
0.00343278
0.00343433
0.00343539
0.00343536
0.00343389
0.00343085
0.00342629
0.00342035
0.00341321
0.00340512
0.00339631
0.00338701
0.00337743
0.00336772
0.00335803
0.0033485
0.00333922
0.00333027
0.00332172
0.00331361
0.00330597
0.00329883
0.00329218
0.00328603
0.00328036
0.00327516
0.0032704
0.00326608
0.00326215
0.0032586
0.0032554
0.00325252
0.00324994
0.00324764
0.00324558
0.00324374
0.00324209
0.00324059
0.00323919
0.00323776
0.00323616
0.00323443
0.00323264
0.00323083
0.00322897
0.00322703
0.00322497
0.00322262
0.0032207
0.00321537
0.00647969
0.00600277
0.00563562
0.0053426
0.00510306
0.0049037
0.00473535
0.00459145
0.00446716
0.00435888
0.0042639
0.00418005
0.00410551
0.00403884
0.00397887
0.00392464
0.00387537
0.00383041
0.00378925
0.00375144
0.00371661
0.00368446
0.00365475
0.00362725
0.0036018
0.00357825
0.00355647
0.00353638
0.00351787
0.00350091
0.00348544
0.00347147
0.00345901
0.00344814
0.00343901
0.00343182
0.00342687
0.00342445
0.00342475
0.00342745
0.00343168
0.00343628
0.00344009
0.00344224
0.0034423
0.00344015
0.00343587
0.00342969
0.0034219
0.00341282
0.00340281
0.00339217
0.00338115
0.00336989
0.00335863
0.00334757
0.00333687
0.00332663
0.00331696
0.00330789
0.00329948
0.00329175
0.00328469
0.0032783
0.00327257
0.00326749
0.00326302
0.00325914
0.00325581
0.003253
0.00325068
0.00324881
0.00324734
0.00324625
0.00324548
0.00324498
0.00324472
0.00324461
0.0032446
0.00324461
0.00324452
0.00324429
0.00324389
0.0032433
0.00324246
0.00324127
0.00323962
0.00323709
0.00323385
0.00322387
0.00647972
0.0060028
0.00563566
0.00534262
0.00510308
0.00490372
0.00473536
0.00459145
0.00446715
0.00435883
0.00426371
0.00417962
0.00410481
0.00403784
0.00397757
0.00392303
0.00387345
0.00382819
0.00378671
0.00374857
0.0037134
0.0036809
0.00365082
0.00362295
0.00359711
0.00357316
0.00355098
0.00353048
0.00351157
0.00349418
0.0034783
0.0034639
0.00345102
0.00343977
0.00343035
0.00342311
0.00341855
0.0034173
0.00342009
0.00342674
0.00343605
0.00344615
0.00345509
0.00346148
0.00346475
0.00346479
0.00346182
0.00345622
0.00344844
0.00343899
0.00342852
0.00341735
0.00340581
0.00339417
0.00338268
0.00337155
0.00336093
0.00335099
0.0033418
0.00333347
0.00332604
0.00331954
0.00331397
0.00330933
0.00330558
0.00330266
0.00330052
0.00329908
0.00329826
0.00329796
0.00329809
0.00329856
0.00329925
0.00330008
0.00330094
0.00330176
0.00330243
0.00330288
0.00330302
0.00330277
0.00330204
0.00330076
0.00329889
0.00329638
0.00329318
0.00328921
0.00328435
0.00327816
0.00327074
0.00325566
0.00647975
0.00600284
0.00563569
0.00534264
0.00510308
0.0049037
0.00473533
0.00459141
0.00446709
0.00435872
0.00426351
0.00417928
0.00410426
0.00403704
0.00397646
0.00392159
0.00387164
0.00382599
0.00378409
0.00374551
0.00370989
0.00367693
0.00364637
0.00361802
0.0035917
0.00356728
0.00354463
0.00352366
0.00350428
0.00348643
0.00347005
0.00345513
0.00344169
0.00342985
0.00341983
0.00341214
0.00340753
0.00340735
0.003414
0.0034288
0.00345053
0.00347544
0.00349893
0.00351822
0.00353224
0.0035409
0.00354473
0.00354451
0.00354111
0.00353529
0.00352864
0.00352191
0.00351551
0.00350978
0.00350494
0.00350111
0.00349834
0.0034966
0.00349579
0.00349577
0.00349636
0.00349738
0.00349862
0.00349992
0.0035011
0.00350203
0.00350261
0.00350273
0.00350235
0.0035014
0.00349988
0.00349777
0.00349506
0.00349176
0.00348788
0.00348342
0.00347841
0.00347284
0.00346672
0.00346004
0.00345279
0.00344495
0.0034365
0.00342744
0.00341771
0.00340724
0.00339593
0.0033833
0.00336944
0.00334825
0.00647978
0.00600287
0.00563571
0.00534264
0.00510306
0.00490363
0.00473521
0.00459122
0.00446681
0.00435832
0.00426295
0.00417849
0.00410321
0.00403568
0.00397477
0.00391954
0.0038692
0.00382313
0.00378079
0.00374175
0.00370564
0.00367217
0.0036411
0.00361222
0.00358537
0.00356042
0.00353726
0.00351577
0.00349587
0.00347748
0.00346053
0.00344497
0.00343081
0.00341812
0.0034071
0.00339841
0.00339305
0.00339382
0.0034112
0.00345535
0.00352481
0.00360477
0.00367996
0.00374446
0.00379668
0.00383752
0.00386878
0.00389241
0.00391015
0.00392342
0.00393267
0.00394092
0.00394777
0.00395272
0.0039554
0.00395561
0.0039533
0.00394856
0.00394158
0.00393259
0.00392187
0.0039097
0.00389634
0.00388203
0.00386699
0.0038514
0.00383543
0.00381921
0.00380284
0.00378641
0.00376999
0.00375362
0.00373735
0.0037212
0.00370517
0.00368926
0.00367345
0.00365774
0.00364209
0.00362646
0.00361081
0.00359509
0.00357926
0.00356324
0.00354698
0.00353034
0.00351318
0.003495
0.00347574
0.00345001
0.00647981
0.0060029
0.00563572
0.00534263
0.00510301
0.00490354
0.00473506
0.00459098
0.00446647
0.00435785
0.00426231
0.00417765
0.00410212
0.0040343
0.00397305
0.00391743
0.00386667
0.00382013
0.00377729
0.0037377
0.00370101
0.00366693
0.00363523
0.00360571
0.00357822
0.00355263
0.00352884
0.00350673
0.00348622
0.0034672
0.00344957
0.00343325
0.00341816
0.00340427
0.00339163
0.00338091
0.00337319
0.00337475
0.00344314
0.00362547
0.00388833
0.00415046
0.00436481
0.00452638
0.00463953
0.00471305
0.00475548
0.00477412
0.00477487
0.00476241
0.00474033
0.00470965
0.00467282
0.00463143
0.00458698
0.00454078
0.0044939
0.00444714
0.00440109
0.00435616
0.00431261
0.00427059
0.00423017
0.00419138
0.0041542
0.00411857
0.00408445
0.00405176
0.00402044
0.00399042
0.00396162
0.00393398
0.00390747
0.00388209
0.00385766
0.00383403
0.00381109
0.00378872
0.00376682
0.00374531
0.00372409
0.00370308
0.00368215
0.00366151
0.00364101
0.00362045
0.00359964
0.00357806
0.0035555
0.00352725
0.00647983
0.00600292
0.00563573
0.00534261
0.00510294
0.00490341
0.00473485
0.00459068
0.00446604
0.00435726
0.00426153
0.00417663
0.00410081
0.00403267
0.00397105
0.00391501
0.00386378
0.00381672
0.00377331
0.00373311
0.00369576
0.00366099
0.00362856
0.0035983
0.00357006
0.00354373
0.00351922
0.00349642
0.00347522
0.00345551
0.00343718
0.0034201
0.0034041
0.00338905
0.00337467
0.00336155
0.00335013
0.00335917
0.0036949
0.00437943
0.00508
0.00557534
0.00585309
0.00597107
0.00597905
0.00591842
0.0058187
0.00569968
0.00557377
0.00544822
0.00532651
0.00521023
0.00510059
0.00499857
0.00490435
0.00481765
0.00473791
0.00466449
0.00459669
0.0045339
0.00447555
0.00442125
0.00437071
0.00432375
0.00427967
0.00423801
0.00419848
0.00416087
0.004125
0.00409077
0.00405803
0.0040267
0.00399667
0.00396783
0.00394007
0.00391329
0.00388739
0.00386225
0.00383777
0.00381385
0.00379039
0.00376729
0.00374446
0.00372178
0.0036991
0.00367623
0.00365285
0.00362836
0.00360346
0.00357427
0.00647986
0.00600295
0.00563574
0.00534258
0.00510287
0.00490327
0.00473462
0.00459034
0.00446556
0.00435662
0.00426069
0.00417555
0.00409944
0.00403095
0.00396894
0.00391245
0.00386071
0.00381308
0.00376903
0.00372812
0.00369
0.0036544
0.0036211
0.00358994
0.0035608
0.0035336
0.00350823
0.00348462
0.00346264
0.00344219
0.00342312
0.00340529
0.00338848
0.00337237
0.00335615
0.00333984
0.00332079
0.00336391
0.00460828
0.00604609
0.00697126
0.00736116
0.00737612
0.00718323
0.00689688
0.0065855
0.00628541
0.00601299
0.00577346
0.00556634
0.00538861
0.00523635
0.00510556
0.00499242
0.00489359
0.00480638
0.00472892
0.0046605
0.00459839
0.00454094
0.00448719
0.00443656
0.00438865
0.00434318
0.00429996
0.0042588
0.00421958
0.00418217
0.00414648
0.0041124
0.00407982
0.00404865
0.00401878
0.00399008
0.00396245
0.00393576
0.00390991
0.00388479
0.00386029
0.00383632
0.00381281
0.00378967
0.00376681
0.00374416
0.00372158
0.0036989
0.0036758
0.00365167
0.00362467
0.00359423
0.00647988
0.00600296
0.00563573
0.00534254
0.00510277
0.0049031
0.00473436
0.00458997
0.00446505
0.00435592
0.00425977
0.00417437
0.00409795
0.0040291
0.00396666
0.00390968
0.00385738
0.0038091
0.00376432
0.0037226
0.00368358
0.00364701
0.00361268
0.00358046
0.00355025
0.00352201
0.00349566
0.00347114
0.00344832
0.0034271
0.00340738
0.00338913
0.00337228
0.0033568
0.00334197
0.00332782
0.00331044
0.00335826
0.00470865
0.00623848
0.0072103
0.00758039
0.00757593
0.00736195
0.00704696
0.00670188
0.00636682
0.00606109
0.00579184
0.00555983
0.00536239
0.00519565
0.00505537
0.00493888
0.004841
0.00475651
0.00468193
0.00461491
0.00455377
0.00449734
0.00444478
0.00439552
0.00434913
0.00430529
0.00426378
0.00422441