/*--------------------------------*- C++ -*----------------------------------*\
| =========                 |                                                 |
| \\      /  F ield         | OpenFOAM: The Open Source CFD Toolbox           |
|  \\    /   O peration     | Version:  v2012                                 |
|   \\  /    A nd           | Website:  www.openfoam.com                      |
|    \\/     M anipulation  |                                                 |
\*---------------------------------------------------------------------------*/
FoamFile
{
    version     2.0;
    format      ascii;
    class       volScalarField;
    location    "450/air";
    object      epsilon;
}
// * * * * * * * * * * * * * * * * * * * * * * * * * * * * * * * * * * * * * //

dimensions      [0 2 -3 0 0 0 0];


internalField   nonuniform List<scalar> 
287104
(
0.0965288
0.0769509
0.0638412
0.054528
0.0476351
0.0423717
0.0382502
0.034955
0.0322735
0.0300583
0.0282044
0.0266351
0.0252934
0.024136
0.0231298
0.0222487
0.0214721
0.0207836
0.0201699
0.0196202
0.0191256
0.0186786
0.0182731
0.0179038
0.0175665
0.0172572
0.0169728
0.0167106
0.0164681
0.0162432
0.0160342
0.0158393
0.0156571
0.0154865
0.0153261
0.0151751
0.0150325
0.0148974
0.0147691
0.0146469
0.0145302
0.0144184
0.014311
0.0142077
0.0141078
0.0140112
0.0139175
0.0138264
0.0137377
0.0136512
0.0135667
0.013484
0.0134031
0.0133238
0.0132462
0.01317
0.0130953
0.0130221
0.0129502
0.0128798
0.0128107
0.012743
0.0126766
0.0126115
0.0125477
0.0124852
0.0124239
0.0123638
0.0123048
0.0122468
0.0121899
0.0121338
0.0120786
0.0120241
0.0119702
0.0119167
0.0118634
0.0118103
0.0117569
0.0117032
0.0116486
0.0115929
0.0115353
0.011475
0.0114107
0.0113404
0.0112612
0.0111636
0.0110503
0.0107948
0.096523
0.0769404
0.0638276
0.0545124
0.0476182
0.0423539
0.0382319
0.0349363
0.0322546
0.0300393
0.0281854
0.0266163
0.0252748
0.0241179
0.0231121
0.0222314
0.0214553
0.0207674
0.0201542
0.0196051
0.019111
0.0186645
0.0182595
0.0178908
0.0175539
0.0172452
0.0169615
0.0166999
0.0164581
0.0162339
0.0160257
0.0158317
0.0156505
0.0154809
0.0153216
0.0151718
0.0150304
0.0148966
0.0147696
0.0146488
0.0145336
0.0144232
0.0143173
0.0142153
0.0141169
0.0140217
0.0139292
0.0138394
0.0137518
0.0136663
0.0135827
0.0135009
0.0134207
0.0133421
0.013265
0.0131893
0.0131149
0.0130419
0.0129702
0.0128998
0.0128308
0.012763
0.0126964
0.0126312
0.0125671
0.0125043
0.0124427
0.0123822
0.0123228
0.0122644
0.012207
0.0121505
0.0120948
0.0120398
0.0119853
0.0119313
0.0118774
0.0118236
0.0117696
0.011715
0.0116596
0.011603
0.0115444
0.0114832
0.011418
0.0113468
0.0112669
0.0111688
0.0110554
0.0108025
0.0965206
0.076936
0.0638218
0.0545056
0.0476106
0.0423456
0.038223
0.034927
0.0322449
0.0300294
0.0281754
0.0266062
0.0252649
0.0241081
0.0231026
0.0222222
0.0214464
0.0207588
0.020146
0.0195972
0.0191034
0.0186573
0.0182526
0.0178843
0.0175478
0.0172395
0.0169562
0.0166951
0.0164539
0.0162304
0.0160228
0.0158296
0.0156492
0.0154805
0.0153223
0.0151735
0.0150332
0.0149006
0.0147749
0.0146554
0.0145414
0.0144324
0.0143279
0.0142273
0.0141302
0.0140364
0.0139453
0.0138568
0.0137705
0.0136863
0.013604
0.0135235
0.0134445
0.0133671
0.0132912
0.0132166
0.0131435
0.0130716
0.0130011
0.012932
0.0128641
0.0127975
0.0127322
0.0126682
0.0126054
0.0125439
0.0124836
0.0124245
0.0123665
0.0123096
0.0122537
0.0121986
0.0121445
0.012091
0.0120381
0.0119856
0.0119333
0.0118811
0.0118286
0.0117757
0.0117218
0.0116666
0.0116095
0.0115498
0.0114862
0.0114166
0.0113387
0.0112429
0.0111324
0.0108864
0.0965183
0.0769312
0.063815
0.0544971
0.0476007
0.0423345
0.0382109
0.0349138
0.032231
0.0300149
0.0281605
0.0265912
0.02525
0.0240934
0.0230881
0.022208
0.0214325
0.0207452
0.0201326
0.019584
0.0190904
0.0186445
0.01824
0.0178719
0.0175356
0.0172276
0.0169446
0.0166839
0.0164431
0.0162201
0.0160131
0.0158206
0.015641
0.0154732
0.015316
0.0151683
0.0150292
0.0148978
0.0147734
0.0146553
0.0145427
0.0144352
0.014332
0.0142328
0.0141372
0.0140446
0.0139548
0.0138675
0.0137823
0.0136991
0.0136178
0.013538
0.0134598
0.0133831
0.0133077
0.0132336
0.0131609
0.0130894
0.0130191
0.0129501
0.0128824
0.0128159
0.0127507
0.0126867
0.0126239
0.0125623
0.0125018
0.0124425
0.0123843
0.0123271
0.0122708
0.0122154
0.0121608
0.0121068
0.0120532
0.0119999
0.0119468
0.0118934
0.0118396
0.0117851
0.0117294
0.0116722
0.0116127
0.0115504
0.011484
0.0114116
0.0113308
0.0112324
0.0111195
0.0108724
0.0965161
0.076927
0.0638092
0.05449
0.0475924
0.0423251
0.0382003
0.0349023
0.0322185
0.0300017
0.0281469
0.0265774
0.0252361
0.0240798
0.0230748
0.0221951
0.02142
0.020733
0.0201208
0.0195725
0.0190791
0.0186334
0.0182292
0.0178613
0.0175253
0.0172176
0.0169349
0.0166746
0.0164343
0.016212
0.0160057
0.015814
0.0156354
0.0154687
0.0153126
0.0151662
0.0150285
0.0148987
0.0147759
0.0146594
0.0145485
0.0144427
0.0143413
0.0142438
0.0141498
0.0140589
0.0139707
0.0138849
0.0138012
0.0137194
0.0136393
0.0135608
0.0134838
0.0134081
0.0133338
0.0132607
0.0131889
0.0131183
0.0130489
0.0129807
0.0129138
0.012848
0.0127835
0.0127202
0.0126581
0.0125972
0.0125374
0.0124787
0.0124211
0.0123644
0.0123086
0.0122536
0.0121993
0.0121456
0.0120922
0.012039
0.0119858
0.0119322
0.011878
0.0118228
0.0117661
0.0117076
0.0116466
0.0115825
0.0115143
0.0114402
0.0113579
0.0112587
0.0111454
0.0109005
0.0965139
0.0769226
0.063803
0.0544821
0.0475829
0.0423141
0.0381879
0.0348885
0.0322036
0.0299859
0.0281307
0.0265613
0.0252206
0.0240648
0.0230604
0.0221812
0.0214066
0.0207199
0.020108
0.0195598
0.0190666
0.0186209
0.0182168
0.0178489
0.0175131
0.0172056
0.0169232
0.0166634
0.0164237
0.016202
0.0159967
0.0158061
0.0156288
0.0154635
0.0153091
0.0151646
0.0150289
0.0149013
0.0147808
0.0146668
0.0145585
0.0144554
0.0143567
0.014262
0.0141708
0.0140826
0.0139972
0.0139141
0.0138331
0.0137539
0.0136765
0.0136005
0.013526
0.0134529
0.013381
0.0133103
0.013241
0.0131728
0.0131059
0.0130403
0.012976
0.0129129
0.0128511
0.0127906
0.0127314
0.0126735
0.0126169
0.0125614
0.0125071
0.0124539
0.0124017
0.0123504
0.0123
0.0122502
0.012201
0.0121521
0.0121033
0.0120543
0.0120047
0.0119543
0.0119025
0.0118489
0.0117932
0.011735
0.0116734
0.011607
0.0115341
0.0114467
0.0113476
0.0111268
0.0965118
0.0769184
0.063797
0.0544743
0.0475734
0.0423028
0.0381747
0.0348732
0.0321861
0.0299664
0.0281099
0.02654
0.0251994
0.0240441
0.0230405
0.022162
0.0213881
0.020702
0.0200905
0.0195427
0.0190498
0.0186045
0.0182006
0.017833
0.0174976
0.0171906
0.0169089
0.0166499
0.0164112
0.0161909
0.0159872
0.0157986
0.0156235
0.0154608
0.0153093
0.0151679
0.0150357
0.0149118
0.0147954
0.0146856
0.0145817
0.0144831
0.0143891
0.0142988
0.0142119
0.0141279
0.0140466
0.0139677
0.0138909
0.013816
0.0137428
0.0136711
0.0136008
0.0135319
0.0134642
0.0133979
0.0133328
0.013269
0.0132065
0.0131453
0.0130855
0.0130272
0.0129702
0.0129147
0.0128607
0.0128082
0.0127571
0.0127076
0.0126595
0.0126128
0.0125675
0.0125236
0.012481
0.0124396
0.0123992
0.0123598
0.012321
0.0122827
0.0122445
0.0122059
0.0121663
0.0121256
0.0120834
0.0120398
0.0119942
0.0119459
0.0118943
0.0118343
0.0117692
0.0116024
0.0965098
0.0769141
0.0637907
0.0544662
0.0475633
0.0422906
0.0381603
0.0348565
0.032167
0.0299454
0.0280885
0.0265197
0.0251808
0.0240271
0.0230246
0.0221469
0.0213732
0.0206869
0.0200748
0.0195261
0.019032
0.0185854
0.0181803
0.0178117
0.0174754
0.0171679
0.0168861
0.0166274
0.0163896
0.0161707
0.0159689
0.0157827
0.0156103
0.0154504
0.0153021
0.0151643
0.0150359
0.014916
0.0148037
0.0146981
0.0145983
0.0145037
0.0144135
0.014327
0.0142438
0.0141634
0.0140855
0.0140096
0.0139356
0.0138632
0.0137922
0.0137227
0.0136546
0.0135879
0.0135225
0.0134584
0.0133957
0.0133344
0.0132746
0.0132162
0.0131593
0.0131038
0.0130499
0.0129975
0.0129466
0.0128972
0.0128493
0.0128028
0.0127576
0.0127139
0.0126714
0.0126301
0.0125899
0.0125507
0.0125124
0.0124748
0.0124376
0.0124006
0.0123633
0.012325
0.0122851
0.0122433
0.0121998
0.0121547
0.0121078
0.0120588
0.0120079
0.0119533
0.0119088
0.0118208
0.0965077
0.0769098
0.0637843
0.0544576
0.0475523
0.0422766
0.0381424
0.0348335
0.032137
0.0299072
0.0280559
0.0265066
0.025192
0.0240603
0.0230732
0.0222028
0.0214285
0.0207351
0.0201108
0.0195467
0.0190355
0.0185713
0.0181492
0.0177649
0.0174149
0.0170957
0.0168045
0.0165387
0.0162957
0.0160735
0.0158701
0.0156835
0.0155122
0.0153549
0.01521
0.0150763
0.0149525
0.0148374
0.0147296
0.014628
0.0145315
0.0144393
0.0143507
0.0142652
0.0141823
0.0141015
0.0140228
0.013946
0.0138711
0.0137978
0.0137263
0.0136562
0.0135876
0.0135205
0.0134547
0.0133903
0.0133274
0.013266
0.0132061
0.0131477
0.0130909
0.0130357
0.012982
0.0129298
0.0128793
0.0128303
0.0127829
0.012737
0.0126926
0.0126497
0.0126083
0.0125683
0.0125296
0.0124922
0.012456
0.0124209
0.0123866
0.0123529
0.0123194
0.0122846
0.012247
0.0122077
0.0121676
0.0121268
0.0120851
0.0120419
0.0119972
0.0119497
0.0119105
0.0118458
0.0965057
0.0769055
0.063778
0.0544491
0.0475413
0.0422627
0.0381248
0.0348114
0.0321085
0.0298749
0.0292275
0.0289139
0.0284351
0.0277087
0.0267884
0.0257574
0.0246885
0.023634
0.0226277
0.021689
0.0208276
0.0200466
0.0193448
0.0187185
0.0181625
0.0176708
0.0172365
0.0168524
0.0165111
0.0162052
0.0159272
0.0156692
0.0154483
0.015265
0.01511
0.0149762
0.0148582
0.0147516
0.0146537
0.014562
0.0144749
0.014391
0.0143092
0.0142292
0.0141531
0.0140821
0.014016
0.0139543
0.0138964
0.0138417
0.0137895
0.0137395
0.0136914
0.0136449
0.0135998
0.0135562
0.0135141
0.0134733
0.0134339
0.0133958
0.013359
0.0133235
0.0132893
0.0132563
0.0132246
0.0131941
0.0131648
0.0131368
0.01311
0.0130844
0.0130601
0.0130371
0.0130154
0.012995
0.0129759
0.012958
0.0129411
0.0129248
0.0129089
0.0128907
0.0127876
0.0126669
0.0125507
0.0124451
0.0123507
0.0122656
0.0121879
0.0121132
0.0120498
0.0119623
0.0965036
0.0769012
0.0637714
0.05444
0.0475289
0.0422457
0.0380999
0.0347728
0.0320328
0.0299364
0.164256
0.21553
0.215137
0.196446
0.174371
0.154071
0.136866
0.122752
0.11134
0.10219
0.0949066
0.0891588
0.0846761
0.0812352
0.0786487
0.0767564
0.075419
0.074514
0.0739338
0.0735852
0.0733908
0.0732859
0.0732448
0.0732659
0.0733371
0.0734375
0.0735482
0.0736562
0.0737545
0.0738417
0.0739201
0.0739963
0.0740646
0.0741266
0.0741803
0.074233
0.0742976
0.0743869
0.0745131
0.0746859
0.0749116
0.0751945
0.0755384
0.0759458
0.0764169
0.0769514
0.0775509
0.0782179
0.0789542
0.0797604
0.0806367
0.0815831
0.0825992
0.0836841
0.0848363
0.0860542
0.0873356
0.088678
0.0900786
0.0915333
0.0930373
0.0945861
0.0961751
0.0978011
0.0994639
0.101166
0.102925
0.104778
0.106951
0.108982
0.0556982
0.0344339
0.0244723
0.01925
0.0162915
0.014522
0.013422
0.0127124
0.0122496
0.0118818
0.0965017
0.0768971
0.0637653
0.0544317
0.0475182
0.0422322
0.0380829
0.0347514
0.0320055
0.0299034
0.164242
0.215632
0.215098
0.196099
0.173666
0.153015
0.13549
0.121095
0.109442
0.100087
0.0926339
0.0867494
0.082162
0.0786484
0.0760209
0.0741191
0.0728021
0.0719451
0.0714367
0.0711786
0.0710855
0.0710854
0.0711195
0.0711428
0.0711225
0.0710354
0.0708656
0.070603
0.0702425
0.069783
0.0692264
0.0685769
0.0678551
0.0670702
0.066231
0.0653487
0.0644352
0.0635017
0.0625563
0.0616057
0.0606572
0.0597178
0.0587942
0.0578927
0.0570193
0.0561807
0.0553845
0.054638
0.0539469
0.0533175
0.0527582
0.0522777
0.0518848
0.051588
0.0513957
0.0513161
0.0513566
0.051524
0.0518242
0.0522616
0.0528398
0.053561
0.0544262
0.0554351
0.0565864
0.0578803
0.0593278
0.0609393
0.0628681
0.0647619
0.0376098
0.0254446
0.0192169
0.0157196
0.0136303
0.0123306
0.0114998
0.0109461
0.0105628
0.0101776
0.0964998
0.0768931
0.0637592
0.0544236
0.0475077
0.0422187
0.0380656
0.0347292
0.0319763
0.0298652
0.163768
0.215097
0.214685
0.19582
0.173483
0.152883
0.135377
0.12098
0.109317
0.0999526
0.0924967
0.0866227
0.0820634
0.0785987
0.0760439
0.0742397
0.0730454
0.0723349
0.0719944
0.0719226
0.0720309
0.072244
0.0724999
0.07275
0.0729584
0.0731006
0.0731602
0.0731268
0.0729957
0.0727665
0.0724412
0.0720243
0.0715222
0.0709427
0.0702949
0.0695889
0.0688353
0.0680442
0.0672251
0.066387
0.0655373
0.0646822
0.0638262
0.0629726
0.0621225
0.0612759
0.0604311
0.0595852
0.0587381
0.0578897
0.0570384
0.0561826
0.0553212
0.0544533
0.0535787
0.0526981
0.0518127
0.0509243
0.0500357
0.0491502
0.0482721
0.0474069
0.0465612
0.0457428
0.0449615
0.0442296
0.0435679
0.0429921
0.0426106
0.0421433
0.0249298
0.0173769
0.0135537
0.0113991
0.0100827
0.00922647
0.00864017
0.00820579
0.00786566
0.0074423
0.0964979
0.0768892
0.0637536
0.0544162
0.0474987
0.0422078
0.0380527
0.0347139
0.0319588
0.0298457
0.163604
0.214911
0.214524
0.195679
0.173347
0.152744
0.135228
0.12082
0.109148
0.0997763
0.0923169
0.0864438
0.0818903
0.0784371
0.0759
0.0741201
0.0729572
0.0722851
0.0719901
0.0719702
0.0721364
0.0724126
0.0727367
0.0730598
0.0733458
0.0735691
0.0737118
0.0737621
0.0737133
0.0735632
0.0733122
0.0729638
0.0725242
0.0720014
0.0714068
0.0707546
0.0700593
0.0693356
0.0685973
0.0678565
0.0671242
0.0664096
0.065747
0.0651374
0.0645745
0.0640517
0.0635636
0.0631064
0.0626776
0.062278
0.0619098
0.0615746
0.061272
0.061001
0.060761
0.0605514
0.060371
0.0602176
0.0600882
0.0599794
0.0598876
0.0598091
0.0597401
0.0596766
0.0596162
0.0595592
0.0595177
0.0595154
0.0597115
0.0601634
0.0359548
0.0256758
0.0205235
0.0175859
0.015718
0.0144062
0.0133966
0.0125937
0.0119526
0.0112559
0.096496
0.0768855
0.0637483
0.0544094
0.0474904
0.042198
0.0380412
0.0347006
0.0319434
0.029828
0.163403
0.214632
0.214243
0.195421
0.173115
0.152532
0.13503
0.12063
0.108961
0.0995923
0.0921348
0.0862644
0.0817156
0.0782697
0.075743
0.073977
0.0728314
0.0721803
0.0719095
0.0719171
0.0721136
0.0724231
0.0727833
0.0731454
0.0734725
0.0737384
0.0739238
0.0740148
0.0740019
0.0738798
0.0736458
0.0733009
0.0728499
0.0723006
0.071666
0.0709624
0.0702069
0.0694165
0.068607
0.0677925
0.0669847
0.0661927
0.0654238
0.0646832
0.0639744
0.0632991
0.0626577
0.0620505
0.0614869
0.0609754
0.0605105
0.0600858
0.0596958
0.0593369
0.059007
0.0587058
0.0584357
0.0581995
0.057999
0.0578357
0.0577115
0.0576299
0.0575944
0.0576091
0.0576803
0.0578178
0.0580426
0.0583859
0.0590092
0.0599796
0.0361366
0.0261119
0.0211757
0.0184435
0.0167808
0.0156775
0.0148778
0.0142285
0.0136212
0.0128493
0.0964942
0.0768819
0.0637433
0.0544032
0.0474832
0.0421898
0.038032
0.0346905
0.0319323
0.0298158
0.163263
0.214416
0.213997
0.195165
0.172858
0.152278
0.134781
0.120386
0.108724
0.0993614
0.0919111
0.0860488
0.081509
0.0780733
0.0755578
0.0738042
0.072672
0.0720348
0.0717785
0.071801
0.0720128
0.0723384
0.0727159
0.0730969
0.0734453
0.0737344
0.0739442
0.0740581
0.0740632
0.0739497
0.0737102
0.0733416
0.0728464
0.0722325
0.0715147
0.0707131
0.0698486
0.0689424
0.0680135
0.0670782
0.0661495
0.0652371
0.064348
0.0634866
0.0626552
0.0618547
0.061085
0.0603446
0.0596315
0.0589433
0.0582778
0.0576325
0.0570048
0.0563922
0.0557919
0.0552018
0.0546197
0.054044
0.0534727
0.0529041
0.0523372
0.0517714
0.0512063
0.0506425
0.0500816
0.0495269
0.0489877
0.0484684
0.0480565
0.0474853
0.0285834
0.0204886
0.0164928
0.0142775
0.0129127
0.0119786
0.0112693
0.0106638
0.0101115
0.00940514
0.0964925
0.0768784
0.0637386
0.0543977
0.047477
0.0421832
0.0380251
0.0346836
0.0319256
0.0298092
0.163189
0.214273
0.213796
0.194922
0.172587
0.151989
0.134483
0.120086
0.108427
0.0990733
0.0916348
0.085787
0.0812637
0.0778456
0.075348
0.0736113
0.0724941
0.0718691
0.0716215
0.0716492
0.0718634
0.0721898
0.0725685
0.0729535
0.0733109
0.0736153
0.0738468
0.0739861
0.0740155
0.0739179
0.0736774
0.0732839
0.0727361
0.0720416
0.0712189
0.0702937
0.0692938
0.0682459
0.0671736
0.0660964
0.0650291
0.063982
0.0629621
0.0619728
0.0610154
0.060089
0.0591917
0.0583206
0.0574731
0.0566458
0.0558357
0.0550397
0.0542548
0.0534785
0.0527083
0.0519421
0.051178
0.050415
0.0496522
0.0488893
0.0481267
0.0473653
0.0466075
0.0458564
0.0451175
0.0443975
0.0437105
0.0430637
0.042547
0.0418864
0.0249327
0.0175829
0.0139067
0.0118503
0.0105869
0.00974099
0.00912712
0.00863132
0.0082095
0.00766517
0.0964907
0.0768751
0.0637342
0.0543926
0.0474715
0.0421775
0.0380196
0.0346784
0.0319207
0.029804
0.16306
0.214008
0.213444
0.194536
0.172199
0.151619
0.134139
0.119773
0.108145
0.0988237
0.0914197
0.0856094
0.0811278
0.0777553
0.0753065
0.0736199
0.072552
0.0719739
0.0717701
0.0718392
0.0720953
0.072468
0.0729028
0.073359
0.0738067
0.0742229
0.0745854
0.0748683
0.0750413
0.0750701
0.0749204
0.0745678
0.0740052
0.0732435
0.0723124
0.0712533
0.0701099
0.0689231
0.0677275
0.0665495
0.065408
0.0643145
0.0632752
0.0622918
0.0613629
0.0604849
0.0596533
0.0588642
0.0581146
0.0574015
0.0567226
0.0560757
0.0554594
0.0548728
0.0543155
0.053788
0.0532914
0.0528273
0.0523979
0.052006
0.0516547
0.0513479
0.05109
0.0508865
0.0507448
0.0506743
0.0506934
0.0508168
0.0511711
0.0515185
0.0306546
0.021619
0.017102
0.0145864
0.0130621
0.0120712
0.0113844
0.0108659
0.0104464
0.00995193
0.0964891
0.076872
0.0637302
0.0543883
0.0474674
0.0421744
0.0380183
0.0346802
0.0319277
0.0298178
0.163263
0.214131
0.21339
0.19433
0.171901
0.151293
0.133847
0.119573
0.108095
0.0989798
0.0918374
0.0863399
0.0822142
0.0792298
0.0771883
0.0759153
0.0752566
0.0750766
0.0752584
0.0757037
0.0763333
0.0770855
0.0779143
0.0787855
0.0796721
0.0805476
0.0813787
0.0821177
0.0827014
0.0830533
0.0830963
0.0827761
0.0820773
0.0810272
0.0796907
0.0781544
0.0765085
0.0748355
0.0732033
0.0716625
0.0702469
0.0689756
0.0678556
0.0668854
0.066057
0.0653585
0.0647814
0.0643174
0.0639562
0.0636856
0.0634938
0.0633706
0.0633083
0.063301
0.063345
0.0634383
0.0635801
0.0637703
0.0640095
0.0642984
0.0646381
0.06503
0.0654759
0.0659789
0.0665446
0.0671826
0.0679184
0.0687881
0.07002
0.0717311
0.0417387
0.0287943
0.0222557
0.0185595
0.0162921
0.014812
0.0137947
0.0130537
0.0124771
0.0119052
0.0964874
0.0768689
0.0637263
0.0543841
0.0474634
0.0421711
0.0380165
0.0346805
0.0319317
0.0298239
0.162908
0.213474
0.212835
0.194072
0.172186
0.152393
0.136029
0.123071
0.113096
0.105611
0.100162
0.0963577
0.093868
0.0924152
0.091768
0.0917349
0.0921602
0.0929197
0.0939179
0.0950835
0.0963657
0.0977302
0.0991552
0.100626
0.102132
0.103654
0.10516
0.106586
0.107837
0.108773
0.109233
0.109079
0.108234
0.106701
0.104562
0.101955
0.0990424
0.0959874
0.0929407
0.0900306
0.0873589
0.0850001
0.0830024
0.0813902
0.0801672
0.0793166
0.0788758
0.0788237
0.0790851
0.0795762
0.0802253
0.0809783
0.0817974
0.0826583
0.0835464
0.0844535
0.0853759
0.0863124
0.0872631
0.0882289
0.0892106
0.0902094
0.0912268
0.0922655
0.0933316
0.0944369
0.0956129
0.0969174
0.0986157
0.10054
0.0534567
0.0342596
0.0250571
0.0201089
0.0172223
0.0154348
0.0142766
0.013494
0.0129494
0.0125073
0.0964858
0.0768659
0.0637228
0.0543806
0.047461
0.0421713
0.0380226
0.0346985
0.0319852
0.0297394
0.0282276
0.0269555
0.0256924
0.0245554
0.0235221
0.0225827
0.0217307
0.0209603
0.0202653
0.0196399
0.0190782
0.0185746
0.0181236
0.0177202
0.0173599
0.0170384
0.0167519
0.0164969
0.0162705
0.0160701
0.0158937
0.0157395
0.0156063
0.0154934
0.0154007
0.0153282
0.0152763
0.0152446
0.0152317
0.0152342
0.0152462
0.0152605
0.0152695
0.0152669
0.0152485
0.015211
0.0151538
0.0150788
0.0149882
0.0148853
0.0147734
0.0146558
0.0145359
0.0144165
0.0142999
0.0141881
0.0140827
0.0139847
0.0138947
0.0138128
0.0137387
0.0136718
0.0136115
0.0135572
0.0135081
0.0134634
0.0134227
0.0133854
0.013351
0.0133191
0.0132894
0.0132617
0.0132358
0.0132114
0.0131884
0.0131666
0.0131459
0.013126
0.0131066
0.0130853
0.0129884
0.0128751
0.0127652
0.0126644
0.0125735
0.0124913
0.0124163
0.0123456
0.0122865
0.012201
0.0964842
0.0768629
0.0637189
0.0543764
0.0474569
0.0421679
0.0380205
0.0346985
0.0319886
0.0297449
0.0278682
0.0262831
0.024929
0.0237601
0.022742
0.0218482
0.0210579
0.020355
0.0197264
0.0191619
0.0186529
0.0181927
0.0177756
0.0173968
0.0170525
0.0167395
0.016455
0.0161967
0.0159627
0.0157516
0.0155622
0.0153936
0.0152454
0.0151179
0.0150115
0.0149278
0.0148681
0.0148334
0.0148234
0.0148346
0.014859
0.0148868
0.0149081
0.014915
0.0149028
0.0148701
0.0148173
0.0147463
0.0146599
0.014561
0.0144528
0.0143385
0.0142207
0.0141016
0.0139831
0.0138667
0.0137538
0.0136451
0.0135416
0.0134437
0.0133518
0.013266
0.0131863
0.0131127
0.013045
0.0129829
0.0129261
0.0128745
0.0128275
0.012785
0.0127466
0.0127119
0.0126807
0.0126525
0.0126271
0.0126041
0.0125832
0.0125638
0.0125455
0.0125265
0.0125054
0.0124826
0.0124593
0.0124356
0.0124115
0.0123864
0.0123603
0.0123312
0.0123081
0.0122477
0.0964826
0.0768599
0.063715
0.0543722
0.0474529
0.0421646
0.0380189
0.0346996
0.0319944
0.0297567
0.0278828
0.0262962
0.0249384
0.023765
0.0227422
0.0218436
0.0210487
0.0203411
0.0197077
0.0191382
0.0186239
0.0181579
0.0177347
0.0173494
0.0169983
0.016678
0.016386
0.0161201
0.0158783
0.0156594
0.0154623
0.0152863
0.0151314
0.014998
0.0148878
0.0148032
0.0147476
0.0147247
0.0147366
0.0147796
0.0148424
0.0149102
0.014968
0.0150042
0.015013
0.0149929
0.014945
0.0148723
0.0147788
0.0146687
0.0145471
0.0144178
0.0142842
0.0141478
0.0140119
0.013879
0.0137509
0.013629
0.0135143
0.0134074
0.0133088
0.0132184
0.0131365
0.0130627
0.012997
0.0129389
0.0128881
0.0128443
0.0128069
0.0127757
0.0127501
0.0127296
0.0127138
0.0127022
0.0126941
0.0126891
0.0126865
0.0126856
0.0126856
0.0126855
0.0126841
0.0126808
0.0126753
0.0126674
0.0126565
0.0126414
0.012621
0.0125907
0.0125536
0.0124389
0.096481
0.0768567
0.0637108
0.0543673
0.0474474
0.0421587
0.0380128
0.0346935
0.0319879
0.0297491
0.0278724
0.0262816
0.024919
0.0237408
0.0227133
0.0218103
0.021011
0.0202992
0.0196616
0.0190878
0.0185692
0.0180988
0.017671
0.0172812
0.0169254
0.0166005
0.0163038
0.0160331
0.0157867
0.015563
0.015361
0.0151802
0.0150205
0.0148829
0.0147695
0.0146846
0.0146343
0.0146265
0.0146702
0.0147638
0.0148922
0.0150316
0.0151564
0.0152484
0.0152991
0.0153072
0.0152754
0.0152088
0.0151136
0.0149968
0.0148671
0.0147287
0.0145861
0.0144429
0.0143022
0.0141666
0.0140381
0.0139183
0.0138083
0.0137091
0.0136211
0.0135447
0.0134797
0.0134259
0.0133828
0.0133498
0.0133261
0.0133108
0.0133028
0.013301
0.0133043
0.0133115
0.0133214
0.0133327
0.0133444
0.0133553
0.0133645
0.0133707
0.0133731
0.0133707
0.0133624
0.0133473
0.013325
0.0132949
0.0132566
0.0132091
0.0131512
0.0130776
0.0129901
0.0128128
0.0964794
0.0768535
0.0637065
0.054362
0.0474414
0.0421522
0.0380059
0.034686
0.0319801
0.0297405
0.0278623
0.0262688
0.0249026
0.0237201
0.0226879
0.0217797
0.0209751
0.0202576
0.0196143
0.0190346
0.01851
0.0180337
0.0175999
0.0172041
0.0168426
0.016512
0.0162099
0.0159339
0.0156822
0.0154531
0.0152456
0.0150588
0.0148927
0.0147481
0.0146278
0.0145376
0.014487
0.0144926
0.014585
0.0147823
0.0150712
0.0154051
0.0157246
0.0159911
0.0161877
0.0163118
0.0163696
0.0163713
0.0163286
0.0162526
0.0161651
0.0160763
0.015992
0.0159166
0.0158529
0.0158026
0.0157664
0.0157438
0.0157334
0.0157335
0.0157417
0.0157556
0.0157727
0.0157907
0.0158072
0.0158206
0.0158293
0.0158321
0.0158282
0.0158169
0.0157979
0.0157709
0.015736
0.0156932
0.0156427
0.0155846
0.0155191
0.0154463
0.0153664
0.0152792
0.0151849
0.0150831
0.0149739
0.0148573
0.0147328
0.0145996
0.0144566
0.014298
0.0141255
0.0138639
0.0964778
0.0768503
0.0637019
0.0543563
0.0474346
0.0421443
0.0379967
0.0346755
0.0319678
0.029726
0.0278448
0.0262476
0.0248771
0.02369
0.0226527
0.0217392
0.0209291
0.0202059
0.0195567
0.018971
0.0184402
0.0179575
0.0175174
0.0171153
0.0167474
0.0164108
0.0161027
0.0158209
0.0155633
0.0153283
0.0151143
0.0149204
0.0147459
0.0145914
0.0144592
0.014357
0.0142972
0.0143142
0.0145405
0.0151145
0.0160434
0.0171568
0.0182485
0.0192199
0.0200305
0.0206793
0.0211846
0.0215712
0.0218636
0.0220832
0.0222363
0.0223734
0.0224873
0.0225693
0.022613
0.0226148
0.0225741
0.0224925
0.0223736
0.0222217
0.022042
0.0218394
0.0216188
0.0213846
0.0211405
0.0208898
0.0206351
0.0203787
0.0201222
0.019867
0.0196141
0.0193642
0.0191178
0.018875
0.0186359
0.0184005
0.0181684
0.0179393
0.0177128
0.0174884
0.0172654
0.0170432
0.0168212
0.0165986
0.0163745
0.0161473
0.0159153
0.0156719
0.0154172
0.0150806
0.0964763
0.0768471
0.0636974
0.0543504
0.0474275
0.0421358
0.0379868
0.034664
0.0319544
0.0297102
0.0278263
0.0262256
0.0248512
0.0236594
0.0226171
0.0216981
0.0208819
0.0201523
0.0194963
0.0189033
0.018365
0.0178747
0.0174268
0.0170169
0.0166414
0.0162973
0.015982
0.0156933
0.0154289
0.015187
0.0149655
0.014763
0.0145778
0.0144094
0.0142578
0.0141312
0.0140423
0.0140661
0.0149329
0.0174167
0.0214595
0.0260668
0.0302865
0.0337474
0.036318
0.0380529
0.0390755
0.0395262
0.0395374
0.0392239
0.0386779
0.037931
0.037049
0.0360753
0.0350499
0.0340058
0.0329683
0.0319554
0.030979
0.0300463
0.0291608
0.0283238
0.0275345
0.0267915
0.0260922
0.0254343
0.0248149
0.0242313
0.023681
0.0231615
0.0226705
0.0222057
0.0217657
0.0213495
0.0209535
0.0205748
0.0202111
0.0198603
0.0195206
0.0191904
0.0188683
0.018553
0.0182443
0.0179426
0.0176457
0.0173512
0.0170564
0.0167543
0.0164425
0.0160576
0.0964748
0.076844
0.0636928
0.0543445
0.0474201
0.0421269
0.0379762
0.0346513
0.0319393
0.0296924
0.0278051
0.0262006
0.0248217
0.023625
0.0225772
0.0216521
0.0208294
0.0200928
0.0194291
0.0188281
0.0182814
0.0177823
0.0173255
0.0169066
0.0165223
0.0161697
0.0158463
0.0155498
0.015278
0.0150287
0.0147997
0.014589
0.0143939
0.0142123
0.0140406
0.0138856
0.0137515
0.0138585
0.018404
0.0305591
0.04758
0.0627952
0.0725731
0.0769984
0.0772802
0.074943
0.0712196
0.0669448
0.0626159
0.0584908
0.0546697
0.0511787
0.0480268
0.0452132
0.042715
0.0404996
0.0385318
0.0367777
0.0352068
0.0337931
0.0325147
0.0313553
0.0303033
0.0293468
0.0284673
0.0276526
0.0268941
0.0261854
0.0255215
0.0248982
0.0243118
0.023759
0.0232368
0.0227422
0.0222726
0.0218253
0.0213979
0.0209882
0.0205941
0.0202137
0.0198451
0.0194867
0.0191368
0.0187937
0.0184553
0.0181185
0.017779
0.0174291
0.0170805
0.0166763
0.0964735
0.0768412
0.0636886
0.0543389
0.047413
0.0421181
0.0379655
0.0346384
0.031924
0.0296741
0.0277834
0.026175
0.0247916
0.0235898
0.0225362
0.0216047
0.0207748
0.0200302
0.019358
0.0187477
0.018191
0.0176815
0.0172139
0.0167843
0.0163894
0.0160266
0.0156937
0.0153884
0.0151083
0.0148512
0.0146146
0.0143963
0.0141927
0.0139999
0.0138073
0.0136151
0.0133871
0.0138941
0.0355327
0.0799268
0.122216
0.14371
0.144535
0.133492
0.118185
0.102927
0.0895265
0.0784174
0.0694439
0.0622602
0.056506
0.0518679
0.0480928
0.0449795
0.0423731
0.0401597
0.0382604
0.0366354
0.0352004
0.0339071
0.0327264
0.0316399
0.0306346
0.029701
0.0288314
0.0280196
0.0272604
0.0265495
0.0258828
0.0252566
0.0246675
0.0241121
0.0235873
0.02309
0.0226173
0.0221666
0.0217354
0.0213215
0.020923
0.0205381
0.0201653
0.0198032
0.0194506
0.0191058
0.0187671
0.0184318
0.0180951
0.0177489
0.0173674
0.0169455
0.0964724
0.0768388
0.0636849
0.0543337
0.0474063
0.0421096
0.037955
0.0346257
0.0319085
0.0296555
0.0277612
0.0261486
0.0247604
0.0235531
0.0224932
0.0215547
0.0207169
0.0199635
0.0192815
0.0186605
0.0180924
0.0175706
0.0170904
0.0166479
0.0162405
0.0158658
0.0155221
0.015207
0.0149183
0.0146535
0.0144109
0.0141894
0.0139875
0.0138044
0.0136307
0.0134664
0.0132603
0.013821
0.0378626
0.0876435
0.134903
0.156494
0.156217
0.143389
0.125813
0.108277
0.0928863
0.0801815
0.070001
0.0619515
0.0556082
0.0506012
0.0466303
0.0434964
0.040975
0.038879
0.0370903
0.0355309
0.0341474
0.0329033
0.0317727
0.0307372
0.0297833
0.0289007
0.0280815
0.027319
0.0266079
0.0259432
0.0253206
0.024736
0.0241856
0.0236655
0.0231724
0.0227031
0.0222545
0.021824
0.0214094
0.0210087
0.0206205
0.0202436
0.0198772
0.0195207
0.0191737
0.0188356
0.0185054
0.0181814
0.0178593
0.0175323
0.0171712
0.0167552
0.0964715
0.0768369
0.0636818
0.0543293
0.0474004
0.042102
0.0379453
0.0346136
0.0318937
0.0296376
0.0277395
0.0261226
0.0247294
0.0235163
0.0224498
0.0215037
0.0206572
0.019894
0.019201
0.0185677
0.017986
0.0174496
0.016954
0.016496
0.0160733
0.0156845
0.0153282
0.0150022
0.014704
0.0144311
0.0141826
0.0139607
0.0137691
0.013618
0.0135079
0.013453
0.0133674
0.0139338
0.0369832
0.086088
0.13378
0.156099
0.156276
0.143869
0.126643
0.109397
0.0942054
0.0815898
0.0713902
0.0632149
0.0566608
0.0514029
0.0472332
0.0438389
0.0410195
0.0386388
0.0366004
0.0348341
0.0332874
0.0319205
0.0307029
0.0296106
0.0286249
0.0277308
0.0269157
0.0261694
0.025483
0.0248486
0.0242593
0.0237085
0.0231904
0.0226996
0.0222313
0.0217813
0.0213463
0.0209235
0.0205112
0.020108
0.0197136
0.019328
0.0189514
0.0185845
0.0182279
0.0178816
0.0175453
0.0172179
0.0168957
0.0165734
0.0162222
0.015847
0.096471
0.0768355
0.0636794
0.0543258
0.0473954
0.0420953
0.0379366
0.0346025
0.0318799
0.0296204
0.0277186
0.0260973
0.0246989
0.0234797
0.0224062
0.0214519
0.020596
0.0198219
0.0191164
0.0184689
0.0178715
0.0173179
0.0168039
0.016327
0.0158859
0.0154803
0.0151097
0.0147722
0.0144641
0.014183
0.0139294
0.0137114
0.0135454
0.0134688
0.0135176
0.0137605
0.0139822
0.0145779
0.0342424
0.0774421
0.121106
0.143675
0.145692
0.135421
0.120692
0.10599
0.093008
0.0820774
0.0729973
0.0654402
0.059102
0.05379
0.0493325
0.0455303
0.0422564
0.0394223
0.0369609
0.0348182
0.032949
0.0313145
0.0298812
0.0286205
0.0275074
0.0265205
0.0256412
0.0248532
0.0241422
0.0234953
0.0229012
0.0223496
0.0218314
0.0213388
0.0208651
0.0204051
0.0199546
0.0195107
0.0190715
0.0186362
0.0182045
0.0177766
0.0173535
0.016937
0.0165302
0.0161365
0.0157623
0.0154095
0.0150919
0.0147956
0.0145047
0.0141751
0.0964707
0.0768347
0.0636778
0.0543231
0.0473913
0.0420896
0.0379289
0.0345926
0.0318672
0.0296045
0.0276989
0.0260731
0.0246694
0.0234441
0.0223633
0.0214003
0.0205343
0.0197483
0.0190288
0.0183652
0.0177492
0.017175
0.0166385
0.0161382
0.0156743
0.0152482
0.0148616
0.0145128
0.0141967
0.0139103
0.0136572
0.0134583
0.0133575
0.0134599
0.0139151
0.0149447
0.0158132
0.0163172
0.0172786
0.0211193
0.0288268
0.0378983
0.0462452
0.0532978
0.0583819
0.0613158
0.0623015
0.0617032
0.0599178
0.0573195
0.0542327
0.0509217
0.0476209
0.0444534
0.0414854
0.0387549
0.0362778
0.0340542
0.0320731
0.0303176
0.0287673
0.0274004
0.0261955
0.0251321
0.0241906
0.0233531
0.0226027
0.0219238
0.0213019
0.0207238
0.0201776
0.0196534
0.0191426
0.0186384
0.0181358
0.017632
0.0171262