/*--------------------------------*- C++ -*----------------------------------*\
| =========                 |                                                 |
| \\      /  F ield         | OpenFOAM: The Open Source CFD Toolbox           |
|  \\    /   O peration     | Version:  v2012                                 |
|   \\  /    A nd           | Website:  www.openfoam.com                      |
|    \\/     M anipulation  |                                                 |
\*---------------------------------------------------------------------------*/
FoamFile
{
    version     2.0;
    format      ascii;
    class       volScalarField;
    location    "450/air";
    object      G;
}
// * * * * * * * * * * * * * * * * * * * * * * * * * * * * * * * * * * * * * //

dimensions      [1 0 -3 0 0 0 0];


internalField   nonuniform List<scalar> 
287104
(
2870.2
2906.18
2916.04
2924.15
2931.81
2938.78
2945.05
2950.67
2955.75
2960.37
2964.6
2968.5
2972.11
2975.47
2978.61
2981.56
2984.34
2986.96
2989.45
2991.82
2994.08
2996.24
2998.31
3000.3
3002.22
3004.08
3005.87
3007.6
3009.29
3010.93
3012.53
3014.09
3015.62
3017.1
3018.55
3019.96
3021.36
3022.75
3024.12
3025.44
3026.74
3028
3029.26
3030.53
3031.77
3032.98
3034.17
3035.35
3036.52
3037.67
3038.81
3039.94
3041.05
3042.15
3043.24
3044.32
3045.39
3046.45
3047.49
3048.53
3049.55
3050.57
3051.57
3052.56
3053.55
3054.52
3055.49
3056.45
3057.41
3058.37
3059.33
3060.29
3061.25
3062.2
3063.14
3064.05
3064.95
3065.83
3066.7
3067.6
3068.54
3069.53
3070.53
3071.48
3072.31
3072.99
3073.75
3075.58
3079.97
3070.77
2881.46
2920.26
2929.87
2937.6
2944.88
2951.48
2957.39
2962.68
2967.44
2971.73
2975.63
2979.2
2982.47
2985.5
2988.31
2990.93
2993.38
2995.69
2997.86
2999.91
3001.85
3003.7
3005.46
3007.15
3008.77
3010.32
3011.81
3013.25
3014.65
3015.99
3017.3
3018.57
3019.81
3021.01
3022.17
3023.27
3024.38
3025.52
3026.63
3027.68
3028.7
3029.66
3030.63
3031.67
3032.66
3033.6
3034.53
3035.46
3036.36
3037.26
3038.15
3039.03
3039.9
3040.76
3041.61
3042.45
3043.28
3044.11
3044.92
3045.73
3046.53
3047.32
3048.1
3048.87
3049.64
3050.4
3051.16
3051.92
3052.68
3053.43
3054.18
3054.92
3055.66
3056.38
3057.11
3057.82
3058.54
3059.25
3059.98
3060.76
3061.59
3062.47
3063.36
3064.21
3064.97
3065.6
3066.33
3068.34
3073.68
3065.06
2868.94
2906.84
2915.99
2923.36
2930.36
2936.71
2942.39
2947.47
2952.04
2956.16
2959.89
2963.29
2966.42
2969.3
2971.97
2974.45
2976.78
2978.95
2981
2982.93
2984.76
2986.5
2988.16
2989.74
2991.25
2992.7
2994.1
2995.44
2996.73
2997.98
2999.19
3000.37
3001.51
3002.62
3003.68
3004.67
3005.67
3006.74
3007.78
3008.73
3009.65
3010.51
3011.37
3012.34
3013.26
3014.11
3014.96
3015.79
3016.62
3017.43
3018.23
3019.03
3019.81
3020.59
3021.36
3022.12
3022.87
3023.61
3024.35
3025.07
3025.79
3026.5
3027.21
3027.9
3028.6
3029.28
3029.97
3030.65
3031.33
3031.99
3032.65
3033.3
3033.95
3034.59
3035.24
3035.89
3036.56
3037.25
3037.98
3038.74
3039.56
3040.41
3041.25
3042.06
3042.78
3043.36
3043.99
3045.93
3051.56
3043.8
2856.59
2893.58
2902.44
2909.6
2916.4
2922.58
2928.1
2933.04
2937.48
2941.48
2945.1
2948.41
2951.45
2954.24
2956.84
2959.24
2961.49
2963.6
2965.58
2967.45
2969.22
2970.9
2972.5
2974.03
2975.49
2976.89
2978.23
2979.52
2980.76
2981.96
2983.13
2984.25
2985.35
2986.41
2987.41
2988.34
2989.28
2990.31
2991.32
2992.22
2993.09
2993.88
2994.69
2995.63
2996.52
2997.31
2998.12
2998.91
2999.68
3000.45
3001.22
3001.97
3002.71
3003.44
3004.17
3004.88
3005.59
3006.29
3006.99
3007.68
3008.35
3009.03
3009.69
3010.35
3011.01
3011.66
3012.31
3012.95
3013.58
3014.19
3014.8
3015.4
3016
3016.61
3017.24
3017.9
3018.59
3019.31
3020.07
3020.87
3021.72
3022.59
3023.44
3024.22
3024.9
3025.42
3025.95
3027.81
3033.52
3026.27
2845.12
2881.39
2890.07
2897.07
2903.72
2909.75
2915.14
2919.97
2924.3
2928.21
2931.76
2934.99
2937.96
2940.7
2943.23
2945.58
2947.77
2949.83
2951.76
2953.58
2955.3
2956.94
2958.49
2959.98
2961.4
2962.76
2964.07
2965.33
2966.54
2967.7
2968.82
2969.91
2970.97
2971.99
2972.96
2973.85
2974.74
2975.74
2976.71
2977.57
2978.41
2979.16
2979.92
2980.82
2981.68
2982.45
2983.21
2983.96
2984.71
2985.44
2986.17
2986.88
2987.59
2988.28
2988.97
2989.65
2990.32
2990.99
2991.64
2992.3
2992.94
2993.57
2994.21
2994.83
2995.46
2996.07
2996.68
2997.27
2997.85
2998.41
2998.96
2999.53
3000.11
3000.72
3001.38
3002.06
3002.78
3003.53
3004.31
3005.13
3005.99
3006.84
3007.63
3008.3
3008.83
3009.2
3009.62
3011.36
3016.89
3009.69
2834.11
2869.75
2878.29
2885.15
2891.67
2897.56
2902.84
2907.57
2911.84
2915.68
2919.17
2922.35
2925.27
2927.95
2930.44
2932.74
2934.88
2936.89
2938.78
2940.56
2942.24
2943.84
2945.36
2946.81
2948.2
2949.53
2950.8
2952.03
2953.22
2954.35
2955.44
2956.5
2957.52
2958.51
2959.46
2960.34
2961.2
2962.13
2963.04
2963.87
2964.68
2965.43
2966.16
2966.99
2967.8
2968.53
2969.25
2969.97
2970.67
2971.37
2972.05
2972.72
2973.38
2974.03
2974.67
2975.3
2975.93
2976.55
2977.16
2977.76
2978.36
2978.95
2979.54
2980.12
2980.69
2981.24
2981.78
2982.29
2982.79
2983.28
2983.78
2984.3
2984.87
2985.48
2986.15
2986.85
2987.57
2988.3
2989.04
2989.8
2990.56
2991.28
2991.89
2992.33
2992.58
2992.67
2992.87
2994.33
2999.2
2990.96
2823.34
2858.4
2866.8
2873.54
2879.91
2885.67
2890.82
2895.45
2899.65
2903.44
2906.93
2910.06
2912.94
2915.58
2918.02
2920.28
2922.38
2924.35
2926.2
2927.95
2929.6
2931.17
2932.66
2934.08
2935.43
2936.73
2937.97
2939.18
2940.34
2941.45
2942.52
2943.54
2944.52
2945.48
2946.41
2947.32
2948.16
2948.97
2949.78
2950.57
2951.36
2952.13
2952.85
2953.54
2954.25
2954.93
2955.59
2956.25
2956.89
2957.51
2958.11
2958.7
2959.28
2959.86
2960.42
2960.98
2961.53
2962.06
2962.59
2963.11
2963.62
2964.13
2964.62
2965.11
2965.57
2966.01
2966.43
2966.82
2967.2
2967.59
2968.01
2968.47
2968.98
2969.55
2970.18
2970.83
2971.49
2972.13
2972.75
2973.33
2973.86
2974.3
2974.61
2974.71
2974.6
2974.36
2974.24
2975.24
2978.85
2967.69
2812.74
2847.23
2855.5
2862.12
2868.35
2873.96
2878.94
2883.43
2887.5
2891.21
2894.67
2897.73
2900.53
2903.13
2905.54
2907.77
2909.86
2911.82
2913.66
2915.4
2917.05
2918.6
2920.08
2921.48
2922.81
2924.08
2925.3
2926.47
2927.61
2928.7
2929.75
2930.74
2931.67
2932.57
2933.5
2934.46
2935.3
2935.91
2936.52
2937.25
2937.98
2938.79
2939.52
2939.97
2940.48
2941.09
2941.66
2942.22
2942.76
2943.27
2943.76
2944.24
2944.71
2945.17
2945.62
2946.06
2946.48
2946.88
2947.27
2947.65
2948.02
2948.38
2948.72
2949.04
2949.32
2949.57
2949.8
2950.02
2950.25
2950.51
2950.81
2951.17
2951.59
2952.05
2952.56
2953.1
2953.63
2954.14
2954.6
2954.97
2955.23
2955.38
2955.37
2955.18
2954.81
2954.34
2954
2954.57
2956.64
2940.23
2802.27
2836.19
2844.35
2850.86
2856.98
2862.44
2867.26
2871.54
2875.36
2878.74
2881.57
2884.24
2886.86
2889.42
2891.85
2894.15
2896.32
2898.39
2900.34
2902.19
2903.93
2905.58
2907.14
2908.6
2909.97
2911.24
2912.45
2913.6
2914.7
2915.76
2916.76
2917.7
2918.56
2919.38
2920.28
2921.33
2922.19
2922.51
2922.85
2923.48
2924.15
2925.06
2925.85
2925.97
2926.22
2926.76
2927.22
2927.66
2928.07
2928.45
2928.82
2929.18
2929.54
2929.89
2930.23
2930.55
2930.85
2931.14
2931.41
2931.68
2931.93
2932.17
2932.37
2932.55
2932.69
2932.81
2932.93
2933.07
2933.25
2933.49
2933.78
2934.12
2934.51
2934.94
2935.4
2935.88
2936.36
2936.82
2937.21
2937.55
2937.85
2938
2937.92
2937.62
2937.18
2936.7
2936.41
2936.93
2938.19
2918.43
2791.94
2825.3
2833.34
2839.75
2845.78
2851.14
2855.83
2859.91
2863.35
2865.7
2863.48
2863.87
2865.58
2868
2870.71
2873.54
2876.38
2879.16
2881.83
2884.36
2886.74
2888.95
2891
2892.88
2894.58
2896.11
2897.5
2898.78
2899.99
2901.12
2902.21
2903.22
2904.13
2904.96
2905.93
2907.22
2908.25
2908.32
2908.39
2909.05
2909.77
2910.94
2911.99
2911.82
2911.84
2912.44
2912.9
2913.33
2913.71
2914.06
2914.41
2914.77
2915.12
2915.46
2915.77
2916.04
2916.29
2916.52
2916.73
2916.92
2917.08
2917.2
2917.28
2917.32
2917.34
2917.35
2917.39
2917.48
2917.61
2917.8
2918.03
2918.29
2918.57
2918.88
2919.19
2919.51
2919.81
2920.07
2920.31
2920.66
2922.31
2923.52
2924.1
2924.14
2923.88
2923.59
2923.63
2924.68
2926.51
2907.29
2781.75
2814.55
2822.47
2828.78
2834.73
2840.03
2844.68
2848.74
2851.81
2850.48
2806.57
2797.93
2799.82
2805.13
2811.35
2817.61
2823.56
2829.06
2834.04
2838.49
2842.42
2845.83
2848.76
2851.24
2853.3
2854.99
2856.35
2857.45
2858.37
2859.17
2859.9
2860.58
2861.16
2861.68
2862.44
2863.76
2864.8
2864.4
2864
2864.56
2865.22
2866.6
2867.94
2867.4
2867.14
2867.84
2868.34
2868.8
2869.23
2869.64
2870.05
2870.47
2870.87
2871.23
2871.53
2871.78
2871.98
2872.14
2872.25
2872.3
2872.29
2872.2
2872.04
2871.83
2871.6
2871.37
2871.16
2870.97
2870.81
2870.65
2870.48
2870.3
2870.11
2869.9
2869.67
2869.39
2869.05
2868.59
2868.08
2868.46
2884.06
2895.89
2903.74
2908.6
2911.48
2913.31
2915.03
2917.88
2922.18
2907.29
2771.7
2803.95
2811.76
2817.97
2823.82
2829.05
2833.66
2837.68
2840.65
2838.86
2792.45
2783.04
2784.84
2790.31
2796.78
2803.31
2809.53
2815.28
2820.49
2825.16
2829.26
2832.83
2835.88
2838.45
2840.57
2842.29
2843.64
2844.69
2845.5
2846.16
2846.75
2847.3
2847.79
2848.25
2849.09
2850.77
2852.19
2851.59
2850.93
2851.71
2852.65
2854.62
2856.69
2856.09
2855.82
2856.99
2857.9
2858.82
2859.75
2860.72
2861.75
2862.82
2863.9
2864.95
2865.97
2866.97
2867.95
2868.91
2869.83
2870.69
2871.49
2872.23
2872.91
2873.58
2874.23
2874.89
2875.53
2876.15
2876.7
2877.17
2877.55
2877.83
2878.02
2878.09
2878.04
2877.84
2877.46
2876.89
2876.2
2876.48
2889.25
2898.91
2905.3
2909.28
2911.69
2913.35
2915.3
2919.22
2926.43
2917.87
2761.81
2793.52
2801.21
2807.33
2813.09
2818.23
2822.77
2826.73
2829.64
2827.81
2781.96
2772.6
2774.35
2779.74
2786.13
2792.58
2798.73
2804.42
2809.59
2814.2
2818.27
2821.78
2824.77
2827.28
2829.35
2831.03
2832.34
2833.32
2834
2834.48
2834.85
2835.21
2835.54
2835.86
2836.64
2838.53
2840.19
2839.12
2837.88
2838.55
2839.36
2841.51
2843.93
2842.77
2841.91
2842.98
2843.72
2844.49
2845.29
2846.17
2847.1
2848.04
2848.94
2849.82
2850.69
2851.56
2852.43
2853.29
2854.12
2854.93
2855.73
2856.55
2857.43
2858.4
2859.45
2860.58
2861.77
2863
2864.23
2865.46
2866.68
2867.89
2869.07
2870.2
2871.25
2872.17
2872.94
2873.53
2874.03
2875.43
2887.46
2896.31
2902.18
2906.1
2908.89
2911.23
2914.03
2919.27
2929.26
2927.18
2752.07
2783.24
2790.83
2796.85
2802.52
2807.59
2812.05
2815.95
2818.82
2817.03
2772
2762.81
2764.53
2769.83
2776.1
2782.45
2788.51
2794.11
2799.19
2803.74
2807.74
2811.19
2814.12
2816.57
2818.61
2820.29
2821.66
2822.69
2823.38
2823.77
2823.99
2824.18
2824.38
2824.61
2825.41
2827.58
2829.59
2828.17
2826.4
2827.04
2827.8
2830.17
2833.08
2831.46
2830.07
2831.12
2831.77
2832.5
2833.31
2834.17
2835.02
2835.8
2836.49
2837.13
2837.76
2838.38
2838.97
2839.51
2840
2840.46
2840.93
2841.43
2842
2842.64
2843.33
2844.04
2844.74
2845.42
2846.07
2846.68
2847.27
2847.8
2848.28
2848.66
2848.93
2849.07
2849.06
2848.9
2848.64
2849.06
2860.75
2869.2
2874.87
2878.93
2882.18
2885.21
2888.73
2894.32
2903.25
2897.19
2742.47
2773.12
2780.61
2786.55
2792.14
2797.13
2801.52
2805.36
2808.18
2806.43
2762.16
2753.13
2754.82
2760.03
2766.2
2772.45
2778.41
2783.92
2788.93
2793.41
2797.34
2800.73
2803.6
2805.99
2807.98
2809.69
2811.14
2812.31
2813.11
2813.52
2813.62
2813.61
2813.61
2813.73
2814.52
2816.98
2819.39
2817.7
2815.45
2816.09
2816.83
2819.44
2822.9
2820.93
2819.07
2820.16
2820.87
2821.74
2822.72
2823.69
2824.53
2825.22
2825.82
2826.44
2827.1
2827.76
2828.39
2828.98
2829.53
2830.08
2830.68
2831.36
2832.1
2832.89
2833.68
2834.46
2835.2
2835.89
2836.55
2837.15
2837.68
2838.11
2838.42
2838.56
2838.53
2838.34
2837.99
2837.51
2836.95
2837.12
2848.46
2856.65
2862.1
2865.88
2868.7
2871.07
2873.82
2878.57
2886.17
2877.42
2733.01
2763.14
2770.54
2776.41
2781.94
2786.87
2791.2
2794.96
2797.73
2795.99
2752.43
2743.53
2745.19
2750.31
2756.39
2762.54
2768.41
2773.85
2778.78
2783.19
2787.07
2790.4
2793.21
2795.53
2797.47
2799.16
2800.7
2802.05
2803.08
2803.62
2803.68
2803.45
2803.2
2803.12
2803.85
2806.52
2809.34
2807.47
2804.8
2805.44
2806.18
2808.99
2813
2810.78
2808.51
2809.71
2810.61
2811.76
2812.99
2814.07
2814.84
2815.38
2815.88
2816.47
2817.16
2817.88
2818.59
2819.27
2819.98
2820.77
2821.65
2822.61
2823.62
2824.64
2825.64
2826.61
2827.55
2828.48
2829.38
2830.23
2830.99
2831.64
2832.15
2832.51
2832.76
2832.93
2833.07
2833.24
2833.6
2835.1
2846.86
2855.62
2861.64
2865.83
2868.82
2871.23
2874.03
2879.01
2887.92
2885.34
2723.68
2753.29
2760.6
2766.41
2771.89
2776.79
2781.08
2784.8
2787.52
2785.78
2742.84
2734.07
2735.7
2740.73
2746.72
2752.78
2758.57
2763.92
2768.78
2773.12
2776.94
2780.22
2782.97
2785.21
2787.06
2788.69
2790.26
2791.81
2793.14
2793.95
2794.1
2793.71
2793.15
2792.76
2793.32
2796.1
2799.28
2797.34
2794.31
2794.95
2795.69
2798.62
2803.1
2800.73
2798.14
2799.52
2800.75
2802.31
2803.8
2804.88
2805.45
2805.76
2806.11
2806.68
2807.42
2808.21
2809.02
2809.86
2810.78
2811.8
2812.89
2814.03
2815.15
2816.25
2817.32
2818.37
2819.4
2820.41
2821.36
2822.22
2822.94
2823.51
2823.92
2824.21
2824.42
2824.63
2824.91
2825.33
2826.05
2828.01
2840.03
2849.12
2855.37
2859.55
2862.39
2864.64
2867.29
2872.15
2881.45
2879.56
2714.5
2743.59
2750.81
2756.55
2761.98
2766.87
2771.17
2774.89
2777.6
2775.9
2733.58
2724.95
2726.55
2731.49
2737.38
2743.33
2749.02
2754.27
2759.03
2763.28
2767
2770.2
2772.86
2775
2776.71
2778.2
2779.7
2781.33
2782.95
2784.14
2784.52
2784.09
2783.2
2782.39
2782.6
2785.3
2788.73
2786.74
2783.39
2783.98
2784.68
2787.6
2792.43
2789.99
2787.2
2788.87
2790.57
2792.55
2794.19
2795.06
2795.24
2795.19
2795.35
2795.85
2796.58
2797.39
2798.24
2799.14
2800.11
2801.12
2802.14
2803.12
2804.04
2804.91
2805.74
2806.54
2807.29
2807.95
2808.46
2808.8
2808.93
2808.89
2808.69
2808.4
2808.09
2807.82
2807.66
2807.68
2807.97
2809.42
2821.46
2830.43
2836.4
2840.24
2842.81
2844.88
2847.18
2851.15
2858.37
2851.8
2705.46
2734.05
2741.16
2746.82
2752.19
2757.05
2761.37
2765.17
2768
2766.53
2725.18
2716.82
2718.43
2723.27
2729
2734.78
2740.28
2745.34
2749.89
2753.91
2757.39
2760.33
2762.73
2764.6
2766
2767.13
2768.31
2769.78
2771.48
2772.97
2773.66
2773.28
2772.1
2770.75
2770.39
2772.74
2776.23
2774.2
2770.55
2771.03
2771.65
2774.47
2779.57
2777.2
2774.42
2776.59
2778.92
2781.35
2783.02
2783.54
2783.27
2782.91
2782.96
2783.46
2784.22
2785.04
2785.85
2786.66
2787.44
2788.16
2788.79
2789.33
2789.81
2790.23
2790.61
2790.93
2791.12
2791.15
2790.98
2790.6
2790.05
2789.37
2788.64
2787.92
2787.27
2786.74
2786.36
2786.13
2786.03
2786.7
2798.93
2808.17
2814.43
2818.67
2821.73
2824.17
2826.41
2829.5
2834.47
2824.24
2696.58
2724.66
2731.68
2737.24
2742.53
2747.33
2751.64
2755.5
2758.57
2757.89
2720.39
2713.04
2714.69
2719.19
2724.44
2729.65
2734.5
2738.82
2742.58
2745.76
2748.39
2750.5
2752.14
2753.31
2754.07
2754.6
2755.22
2756.29
2757.89
2759.63
2760.78
2760.75
2759.57
2757.87
2756.95
2758.89
2762.41
2760.43
2756.62
2757.06
2757.6
2760.24
2765.52
2763.31
2760.73
2763.53
2766.55
2769.33
2770.88
2771.04
2770.5
2770.15
2770.44
2771.25
2772.26
2773.22
2774
2774.59
2775
2775.26
2775.4
2775.47
2775.49
2775.48
2775.41
2775.21
2774.85
2774.28
2773.54
2772.66
2771.72
2770.77
2769.9
2769.15
2768.56
2768.12
2767.81
2767.55
2767.31
2767.81
2780.89
2790.89
2797.8
2802.6
2806.02
2808.47
2810.31
2812.47
2815.53
2802.56
2687.83
2715.41
2722.33
2727.81
2733.02
2737.73
2741.94
2745.72
2749.03
2751.52
2750.74
2751.87
2753.9
2756.16
2758.44
2760.64
2762.72
2764.67
2766.49
2768.17
2769.72
2771.16
2772.47
2773.6
2774.52
2775.28
2776.15
2777.53
2779.67
2782.31
2784.66
2785.82
2785.5
2784.16
2783.22
2785.18
2789.17
2787.58
2783.87
2784.45
2784.93
2787.24
2792.47
2789.91
2786.85
2789.53
2792.2
2794.06
2794.2
2792.89
2791.28
2790.39
2790.53
2791.35
2792.38
2793.34
2794.15
2794.81
2795.36
2795.82
2796.24
2796.63
2796.98
2797.23
2797.33
2797.24
2796.93
2796.45
2795.87
2795.25
2794.68
2794.22
2793.9
2793.75
2793.75
2793.88
2794.08
2794.29
2794.45
2794.69
2795.95
2797.06
2797.93
2798.63
2799.16
2799.46
2799.65
2800.42
2802.04
2787.73
2679.17
2706.26
2713.09
2718.49
2723.61
2728.25
2732.38
2736.08
2739.39
2742.32
2744.85
2747.21
2749.45
2751.55
2753.52
2755.35
2757.08
2758.7
2760.22
2761.66
2763.02
2764.32
2765.55
2766.67
2767.6
2768.33
2769.04
2770.13
2772.03
2774.74
2777.56
2779.47
2779.8
2778.69
2777.49
2778.97
2782.85
2781.39
2777.69
2778.3
2778.68
2780.67
2786
2783.71
2780.88
2783.9
2786.51
2787.74
2787
2785.08
2783.41
2782.89
2783.51
2784.66
2785.83
2786.77
2787.5
2788.09
2788.63
2789.16
2789.67
2790.13
2790.48
2790.64
2790.58
2790.31
2789.88
2789.38
2788.88
2788.47
2788.18
2788.04
2788.05
2788.2
2788.44
2788.72
2788.98
2789.19
2789.33
2789.42
2789.55
2789.72
2789.9
2790.05
2790.08
2789.97
2789.9
2790.48
2792.2
2779.5
2670.57
2697.17
2703.91
2709.23
2714.27
2718.84
2722.91
2726.55
2729.82
2732.78
2735.57
2738.03
2740.28
2742.34
2744.24
2746.02
2747.68
2749.25
2750.72
2752.11
2753.43
2754.71
2755.94
2757.11
2758.12
2758.9
2759.53
2760.34
2761.84
2764.28
2767.24
2769.7
2770.73
2770.07
2768.77
2769.79
2773.4
2771.93
2768.19
2768.79
2769.02
2770.67
2776.19
2774.32
2771.81
2775.02
2777.33
2777.84
2776.47
2774.49
2773.33
2773.56
2774.74
2776.13
2777.28
2778.12
2778.79
2779.42
2780.08
2780.73
2781.3
2781.73
2781.92
2781.89
2781.65
2781.28
2780.88
2780.52
2780.28
2780.17
2780.2
2780.36
2780.63
2780.95
2781.3
2781.61
2781.86
2782.04
2782.17
2782.26
2782.33
2782.42
2782.5
2782.51
2782.45
2782.34
2782.35
2783.14
2785.78
2777.17
2662.02
2688.12
2694.78
2700.01
2704.98
2709.47
2713.47
2717.06
2720.28
2723.2
2725.88
2728.31
2730.53
2732.57
2734.46
2736.22
2737.86
2739.41
2740.86
2742.23
2743.53
2744.78
2746
2747.21
2748.33
2749.27
2749.98
2750.65
2751.75
2753.74
2756.51
2759.23
2760.83
2760.68
2759.51
2760.17
2763.45
2761.9
2758.38
2758.9
2758.92
2760.15
2765.4
2763.9
2761.52
2764.57
2766.29
2766.07
2764.37
2762.71
2762.24
2763.02
2764.31
2765.46
2766.26
2766.87
2767.47
2768.14
2768.82
2769.39
2769.77
2769.88
2769.74
2769.42
2769.02
2768.62
2768.31
2768.14
2768.1
2768.19
2768.39
2768.67
2768.98
2769.3
2769.6
2769.85
2770.05
2770.22
2770.37
2770.5
2770.62
2770.73
2770.82
2770.89
2770.98
2771.12
2771.4
2772.55
2775.87
2768.53
2653.51
2679.12
2685.69
2690.84
2695.73
2700.15
2704.1
2707.62
2710.79
2713.66
2716.26
2718.64
2720.83
2722.85
2724.72
2726.47
2728.1
2729.63
2731.06
2732.42
2733.69
2734.91
2736.11
2737.32
2738.56
2739.72
2740.7
2741.49
2742.43
2743.99
2746.37
2749.02
2750.92
2751.17
2750.15
2750.6
2753.61
2751.97
2747.51
2747.71
2747.25
2747.75
2753.4
2751.94
2749.3
2751.86
2752.9
2752.15
2750.45
2749.24
2749.18
2749.87
2750.6
2751.04
2751.3
2751.62
2752.08
2752.57
2752.95
2753.07
2752.92
2752.54
2752.02
2751.49
2751.05
2750.76
2750.63
2750.66
2750.81
2751.07
2751.39
2751.75
2752.12
2752.48
2752.82
2753.14
2753.45
2753.74
2754.01
2754.26
2754.49
2754.72
2754.98
2755.32
2755.75
2756.23
2756.78
2758.2
2761.67
2753.13
2645.11
2670.23
2676.72
2681.79
2686.6
2690.95
2694.84
2698.31
2701.43
2704.24
2706.8
2709.13
2711.29
2713.28
2715.13
2716.86
2718.48
2720
2721.43
2722.77
2724.03
2725.22
2726.37
2727.55
2728.83
2730.21
2731.56
2732.73
2733.83
2735.22
2737.23
2739.64
2741.56
2741.95
2740.92
2741.14
2744.02
2742.44
2742.11
2741.39
2739.41
2738.01
2737.69
2735.35
2731.87
2733.72
2734.12
2732.97
2731.25
2730.1
2729.75
2729.66
2729.47
2729.25
2729.27
2729.61
2730.12
2730.56
2730.77
2730.71
2730.48
2730.2
2729.98
2729.92
2730.03
2730.31
2730.73
2731.25
2731.83
2732.44
2733.06
2733.67
2734.26
2734.82
2735.37
2735.9
2736.4
2736.87
2737.29
2737.67
2738.05
2738.48
2739.01
2739.66
2740.38
2741.03
2741.66
2743.13
2746.33
2736
2636.94
2661.59
2667.99
2672.98
2677.72
2682.01
2685.83
2689.25
2692.32
2695.09
2697.61
2699.91
2702.03
2703.99
2705.82
2707.53
2709.14
2710.65
2712.07
2713.41
2714.67
2715.84
2716.95
2718.06
2719.28
2720.74
2722.38
2724.04
2725.59
2727.16
2729.03
2731.26
2733.17
2733.6
2732.4
2732.19
2734.96
2732.91
2715.65
2711.26
2705.18
2700.32
2712.55
2709.38
2705.38
2707.31
2707.95
2707.24
2706.11
2705.42
2705.16
2705.04
2705.07
2705.48
2706.35
2707.49
2708.55
2709.34
2709.81
2710.08
2710.33
2710.66
2711.14
2711.77
2712.52
2713.35
2714.22
2715.1
2715.96
2716.8
2717.61
2718.39
2719.13
2719.84
2720.52
2721.16
2721.75
2722.28
2722.76
2723.24
2723.78
2724.43
2725.21
2726.06
2726.84
2727.44
2728.01
2729.43
2732.28
2720.74
2629.24
2653.44
2659.76
2664.67
2669.34
2673.56
2677.33
2680.7
2683.72
2686.45
2688.93
2691.2
2693.29
2695.22
2697.03
2698.72
2700.32
2701.82
2703.25
2704.59
2705.86
2707.05
2708.14
2709.17
2710.27
2711.61
2713.31
2715.26
2717.29
2719.26
2721.29
2723.55
2725.66
2726.43
2725.27
2724.5
2726.97
2724.59
2751.59
2739.56
2727
2718.15
2681.19
2678.88
2677.04
2681.46
2684
2684.89
2685.19
2685.61
2686.17
2686.84
2687.81
2689.2
2690.81
2692.32
2693.47
2694.27
2694.85
2695.41
2696.07
2696.88
2697.8
2698.79
2699.8
2700.81
2701.8
2702.76
2703.68
2704.55
2705.39
2706.2
2706.97
2707.7
2708.39
2709.03
2709.6
2710.13
2710.65
2711.23
2711.92
2712.74
2713.63
2714.47
2715.13
2715.58
2716.1
2717.52
2720.11
2707.84
2622.34
2646.13
2652.38
2657.23
2661.83
2665.99
2669.7
2673.02
2676
2678.68
2681.12
2683.35
2685.41
2687.32
2689.1
2690.78
2692.37
2693.87
2695.3
2696.67
2697.96
2699.18
2700.3
2701.32
2702.29
2703.41
2704.88
2706.76
2708.97
2711.26
2713.53
2715.95
2718.47
2720.12
2719.88
2719.23
2721.37
2713.67
2650.9
2631.11
2619.4
2615.7
2654.72
2658.63
2659.96
2666.58
2670.12
2671.84
2673.02
2674.24
2675.5
2676.84
2678.36
2679.99
2681.48
2682.62
2683.41
2684.02
2684.64
2685.39
2686.3
2687.33
2688.41
2689.48
2690.53
2691.55
2692.52
2693.45
2694.33
2695.18
2695.99
2696.76
2697.49
2698.18
2698.81
2699.39
2699.93
2700.48
2701.08
2701.78
2702.58
2703.45
2704.28
2704.97
2705.43
2705.74
2706.26
2707.69
2710.09
2697.35
2616.61
2640.07
2646.26
2651.06
2655.62
2659.73
2663.41
2666.69
2669.63
2672.28
2674.68
2676.87
2678.88
2680.75
2682.49
2684.14
2685.7
2687.19
2688.63
2690.01
2691.34
2692.61
2693.8
2694.86
2695.81
2696.74
2697.89
2699.41
2701.4
2703.71
2706.09
2708.61
2711.45
2714.19
2715.67
2716.1
2718.53
2703.59
2420.1
2400.3
2392.85
2396.59
2643.69
2653.72
2654.58
2659.7
2661.54
2662.71
2664.2
2666.01
2667.85
2669.62
2671.3
2672.77
2673.92
2674.82
2675.6
2676.45
2677.43
2678.54
2679.72
2680.91
2682.06
2683.14
2684.15
2685.11
2686.02
2686.87
2687.69
2688.46
2689.2
2689.9
2690.57
2691.19
2691.77
2692.34
2692.93
2693.57
2694.29
2695.08
2695.92
2696.73
2697.44
2697.96
2698.31
2698.62
2699.22
2700.69
2702.96
2689.89
2612.36
2635.57
2641.74
2646.51
2651.05
2655.17
2658.85
2662.14
2665.1
2667.76
2670.16
2672.34
2674.33
2676.16
2677.86
2679.44
2680.94
2682.37
2683.76
2685.1
2686.41
2687.7
2688.92
2690.05
2691.04
2691.93
2692.88
2694.04
2695.68
2697.78
2700.15
2702.74
2705.75
2709.29
2712.51
2714.41
2718.1
2698.52
2235.67
2216.98
2213.77
2223.66
2641.51
2655.12
2653.4
2655.62
2655.43
2656.23
2658.01
2660.06
2661.89
2663.49
2664.94
2666.31
2667.63
2668.97
2670.38
2671.87
2673.41
2674.9
2676.31
2677.59
2678.74
2679.76
2680.68
2681.53
2682.3
2683.03
2683.73
2684.41
2685.07
2685.72
2686.34
2686.96
2687.58
2688.24
2688.96
2689.74
2690.58
2691.44
2692.27
2693.02
2693.65
2694.14
2694.54
2695
2695.75
2697.37
2699.72
2686.59
2609.71
2632.76
2638.9
2643.66
2648.21
2652.36
2656.09
2659.46
2662.51
2665.28
2667.79
2670.06
2672.14
2674.02
2675.74
2677.31
2678.76
2680.12
2681.41
2682.65
2683.87
2685.05
2686.21
2687.3
2688.27
2689.12
2689.98
2690.94
2692.33
2694.25
2696.59
2699.3
2702.49
2706.47
2710.78
2713.39
2718.29
2698.16
2165.25
2148.04
2147.92
2161.26
2649.02
2662.21
2656.94
2656.54
2654.85
2655.15
2656.32
2657.41
2658.3
2659.3
2660.67
2662.44
2664.48
2666.65
2668.82
2670.9
2672.83
2674.51
2675.95
2677.17
2678.2
2679.05
2679.8
2680.47
2681.09
2681.7
2682.32
2682.96
2683.62
2684.29
2684.97
2685.69
2686.47
2687.31
2688.21
2689.16
2690.11
2691.03
2691.9
2692.7
2693.44
2694.11
2694.77
2695.49
2696.47
2698.33
2701.09
2688.37
2608.52
2631.47
2637.58
2642.32
2646.86
2651.01
2654.76
2658.19
2661.33
2664.22
2666.89
2669.35
2671.62
2673.71
2675.6
2677.33
2678.89
2680.32
2681.63
2682.87
2684.04
2685.16
2686.23
2687.22
2688.09
2688.82
2689.46
2690.21
2691.34
2693.02
2695.24
2697.93
2701.94
2706.16
2711.08
2713.39
2718.85
2700.7
2157.84
2142.44
2144.7
2161.41
2682.67
2692.43
2680.69
2675.48
2669.67
2666.47
2664.34
2662.72
2661.84
2662.05
2663.33
2665.35
2667.69
2670.02
2672.19
2674.13
2675.19
2676.58
2677.72
2678.65
2679.41
2680.07
2680.68
2681.26
2681.86
2682.5
2683.19
2683.94
2684.73
2685.56
2686.42
2687.33
2688.32
2689.4
2690.52
2691.66
2692.74
2693.78
2694.77
2695.75
2696.74
2697.73
2698.75
2699.86
2701.28
2703.8
2707.83
2697.15
2608.41
2631.33
2637.41
2642.1
2646.58
2650.66
2654.35
2657.72
2660.81
2663.69
2666.39
2668.92
2671.31
2673.56
2675.66
2677.62
2679.42
2681.08
2682.63
2684.08
2685.46
2686.79
2688.05
2689.22
2690.23
2691.01
2691.78
2692.27
2692.97
2694.05
2695.31
2697.13
2700.24
2703.7
2708.66
2711.03
2719.86
2703.36
2164.99
2149.21
2151.83
2171.38
2708.63
2722.81
2708.64
2701.85
2693.21
2686.99
2682
2678.17
2675.74
2674.72
2674.81
2675.5
2676.39
2677.26
2678.06
2678.84
2678.94
2679.61
2680.21
2680.8
2681.4
2682.03
2682.71
2683.47
2684.28
2685.17
2686.11
2687.13
2688.21
2689.31
2690.41
2691.53
2692.69
2693.91
2695.2
2696.53
2697.84
2699.1
2700.31
2701.55
2702.95
2704.62
2706.67
2709.13
2712.16
2716.47
2722.57
2714.84
2608.88
2631.82
2637.89
2642.55
2646.98
2650.98
2654.57
2657.8
2660.74
2663.45
2665.98
2668.36
2670.62
2672.78
2674.84
2676.81
2678.68
2680.46
2682.15
2683.8
2685.43
2687.07
2688.72
2690.36
2691.89
2693.13
2693.26
2693.77
2694.11
2694.39
2695.3
2695.23
2695.72
2696.04
2699.05
2703.7
2728.37
2714.51
2150.66
2128.81
2129.98
2154.29
2726.54
2746.08
2718.44
2708.08
2698.14
2692.13
2688.13
2685.51
2683.91
2683.03
2682.55
2682.21
2681.92
2681.66
2681.54
2681.65
2681.32
2681.78
2682.37
2683.1
2683.94
2684.88
2685.9
2687.02
2688.21
2689.44
2690.68
2691.92
2693.19
2694.55
2696.02
2697.57
2699.09
2700.53
2701.9
2703.31
2704.95
2706.91
2709.23
2711.78
2714.36
2716.74
2718.75
2720.37
2721.88
2724.22
2727.96
2717.08
2609.43
2632.42
2638.51
2643.19
2647.62
2651.62
2655.18
2658.37
2661.23
2663.82
2666.2
2668.41
2670.47
2672.41
2674.26
2676.02
2677.7
2679.3
2680.83
2682.32
2683.82
2685.38
2687.07
2688.89
2690.77
2692.48
2697.08
2697.49
2697.09
2696.09
2691.22
2689.13
2686.98
2683.43
2681.98
2688.04
2755.62
2745.54
2222.54
2195.98
2195.32
2221.98
2769.6
2796.88
2730.9
2716.06
2703.36
2694.74
2689.03
2685.49
2683.49
2682.43
2681.94
2681.75
2681.77
2681.95
2682.34
2683.03
2683.39
2684.52
2685.71
2686.96
2688.31
2689.77
2691.27
2692.76
2694.24
2695.74
2697.31
2699
2700.77
2702.55
2704.31
2706.11
2708.01
2710.01
2711.99
2713.79
2715.25
2716.34
2717.1
2717.56
2717.8
2717.86
2717.77
2717.64
2717.73
2718.85
2721.14
2707.8
2609.78
2632.79
2638.9
2643.6
2648.07
2652.11
2655.72
2658.96
2661.87
2664.5
2666.9
2669.11
2671.15
2673.05
2674.82
2676.49
2678.06
2679.52
2680.87
2682.13
2683.33
2684.56
2685.92
2687.5
2689.24
2690.52
2678.85
2677.01
2673.92
2670.43
2678.56
2675.08
2671.76
2667.05
2660.59
2635.32
2694.82
2710.36
2700.19
2692.55
2687.78
2684.76
2683.38
2682.78
2682.92
2683.51
2684.44
2685.69
2687.11
2688.64
2689.53
2691.21
2692.97
2694.73
2696.39
2697.99
2699.63
2701.29
2702.9
2704.47
2706.03
2707.46
2708.73
2709.8
2710.66
2711.3
2711.72
2711.92
2711.95
2711.82
2711.6
2711.34
2711.09
2710.87
2710.68
2710.5
2710.3
2710.12
2710.2
2711.21
2713.04
2698.78
2609.83
2632.84
2638.94
2643.64
2648.12
2652.18
2655.81
2659.07
2662.02
2664.7
2667.16
2669.42
2671.52
2673.48
2675.32
2677.04
2678.66
2680.16
2681.54
2682.8
2683.94
2685
2686.11
2687.36
2688.76
2690.11
2724.97
2718.71
2710.85
2704.03
2662.88
2659.91
2659.41
2659.45
2660.07
2636.98
2692.91
2716.02
2707.1
2699.21
2693.73
2690.07
2687.93
2687.04
2686.94
2687.4
2688.37
2689.84
2691.28
2692.6
2693.16
2694.32
2695.37
2696.34
2697.22
2698.1
2698.96
2699.8
2700.62
2701.42
2702.16
2702.8
2703.31
2703.69
2703.92
2704.02
2704
2703.88
2703.71
2703.53
2703.38
2703.31
2703.32
2703.39
2703.49
2703.55
2703.54
2703.51
2703.72
2704.73
2706.38
2691.88
2609.66
2632.64
2638.73
2643.41
2647.87
2651.91
2655.52
2658.77
2661.71
2664.38
2666.82
2669.08
2671.19
2673.15
2675
2676.74
2678.37
2679.9
2681.31
2682.59
2683.71
2684.69
2685.62
2686.57
2687.02
2683.32
2632.99
2617.86
2609.34
2607.6
2642.82
2645.96
2649.7
2654.25
2660.03
2640.66
2691.63
2716.3
2708.31
2700.65
2695.06
2691
2688.32
2686.81
2686.17
2686.15
2686.65
2687.74
2688.87
2689.83
2690
2690.67
2691.21
2691.68
2692.1
2692.57
2693.05
2693.56
2694.1
2694.63
2695.12
2695.56
2695.91
2696.18
2696.35
2696.43
2696.46
2696.48
2696.5
2696.56
2696.67
2696.85
2697.1
2697.38
2697.64
2697.83
2697.94
2698.07
2698.41
2699.43
2700.98
2686.48
2609.37
2632.34
2638.42
2643.1
2647.53
2651.55
2655.14
2658.37
2661.28
2663.93
2666.36
2668.61
2670.71
2672.68
2674.53
2676.28
2677.93
2679.47
2680.9
2682.18
2683.3
2684.27
2685.13
2685.91
2685.14
2673.4
2401.05
2383.05
2377.56
2383.33
2630.25
2640.19
2645.84
2652.24
2660.36
2643.06
2691.2
2716.47
2708.71
2700.56
2694.44
2689.93
2686.69
2684.64
2683.53
2683.13
2683.44
2684.12
2684.82
2685.48
2685.41
2685.83
2686.17
2686.47
2686.73
2687.07
2687.42
2687.81
2688.24
2688.68
2689.09
2689.45
2689.74
2689.98
2690.18
2690.37
2690.56
2690.77
2691.03
2691.34
2691.71
2692.12
2692.55
2692.97
2693.34
2693.62
2693.86
2694.12
2694.55
2695.57
2697.1
2682.75
2609.1
2632.06
2638.14
2642.82
2647.25
2651.26
2654.84
2658.04
2660.93
2663.56
2665.96
2668.19
2670.27
2672.23
2674.08
2675.84
2677.5
2679.05
2680.48
2681.77
2682.89
2683.87
2684.74
2685.45
2683.78
2665.49
2209.03
2189.5
2186.69
2198.18
2621.49
2636.93
2643.44
2650.02
2658.13
2641.16
2692.09
2718.2
2710.16
2702.25
2695.87
2690.99
2687.39
2685
2683.55
2682.83
2682.73
2682.95
2683.3
2683.71
2683.44
2683.68
2683.86
2684
2684.09
2684.27
2684.46
2684.68
2684.94
2685.22
2685.48
2685.72
2685.95
2686.17
2686.41
2686.68
2686.99
2687.35
2687.76
2688.22
2688.71
2689.21
2689.7
2690.16
2690.55
2690.9
2691.23
2691.6
2692.07
2693.08
2694.67
2680.58
2608.9
2631.87
2637.96
2642.64
2647.09
2651.11
2654.7
2657.91
2660.79
2663.41
2665.79
2668
2670.05
2671.98
2673.81
2675.54
2677.17
2678.71
2680.13
2681.41
2682.53
2683.51
2684.37
2684.98
2682.82
2661.65
2128.87
2108.66
2107.26
2121.75
2620
2637.62
2643.43
2648.41
2654.34
2635.87
2694.93
2722.74
2714.33
2706.44
2699.48
2694.08
2690.12
2687.48
2685.87
2684.86
2684.36
2684.24
2684.36
2684.63
2684.28
2684.43