/*--------------------------------*- C++ -*----------------------------------*\
| =========                 |                                                 |
| \\      /  F ield         | OpenFOAM: The Open Source CFD Toolbox           |
|  \\    /   O peration     | Version:  v2012                                 |
|   \\  /    A nd           | Website:  www.openfoam.com                      |
|    \\/     M anipulation  |                                                 |
\*---------------------------------------------------------------------------*/
FoamFile
{
    version     2.0;
    format      ascii;
    class       volScalarField;
    location    "450/air";
    object      GLeaf;
}
// * * * * * * * * * * * * * * * * * * * * * * * * * * * * * * * * * * * * * //

dimensions      [1 0 -3 0 0 0 0];


internalField   nonuniform List<scalar> 
287104
(
766.858
794.749
797.332
798.803
800.314
801.558
802.453
803.026
803.329
803.411
803.316
803.078
802.723
802.27
801.731
801.121
800.448
799.723
798.951
798.14
797.294
796.419
795.519
794.598
793.658
792.701
791.732
790.752
789.763
788.767
787.765
786.76
785.752
784.74
783.719
782.692
781.681
780.694
779.703
778.699
777.694
776.68
775.685
774.724
773.758
772.786
771.826
770.872
769.927
768.992
768.066
767.15
766.245
765.349
764.464
763.589
762.725
761.872
761.03
760.198
759.377
758.566
757.765
756.974
756.195
755.427
754.672
753.932
753.208
752.5
751.809
751.135
750.476
749.827
749.181
748.531
747.872
747.207
746.552
745.933
745.37
744.861
744.369
743.828
743.165
742.352
741.598
741.884
744.618
733.478
778.233
809.052
811.495
812.665
813.892
814.851
815.477
815.798
815.854
815.688
815.339
814.843
814.228
813.513
812.715
811.847
810.919
809.94
808.918
807.859
806.768
805.65
804.511
803.352
802.178
800.99
799.79
798.581
797.366
796.146
794.924
793.699
792.475
791.248
790.002
788.737
787.505
786.338
785.162
783.948
782.729
781.486
780.274
779.148
778.004
776.831
775.677
774.531
773.396
772.272
771.161
770.063
768.977
767.903
766.841
765.791
764.754
763.729
762.718
761.718
760.731
759.756
758.792
757.839
756.9
755.976
755.067
754.174
753.298
752.437
751.589
750.752
749.924
749.105
748.293
747.49
746.695
745.917
745.171
744.478
743.848
743.273
742.715
742.122
741.435
740.622
739.888
740.393
744.121
733.603
765.835
795.855
797.929
798.837
799.866
800.655
801.124
801.306
801.238
800.957
800.5
799.903
799.191
798.385
797.501
796.55
795.544
794.491
793.398
792.271
791.115
789.936
788.737
787.523
786.294
785.054
783.803
782.545
781.28
780.013
778.743
777.474
776.207
774.936
773.642
772.318
771.034
769.846
768.649
767.395
766.134
764.835
763.574
762.437
761.277
760.068
758.883
757.706
756.542
755.391
754.254
753.13
752.02
750.922
749.837
748.766
747.709
746.666
745.637
744.621
743.618
742.628
741.65
740.686
739.737
738.804
737.888
736.988
736.101
735.225
734.357
733.496
732.646
731.81
730.994
730.202
729.44
728.711
728.028
727.401
726.833
726.304
725.779
725.216
724.567
723.779
723.017
723.541
727.642
718.051
753.595
782.813
784.706
785.485
786.398
787.084
787.466
787.573
787.441
787.105
786.598
785.959
785.21
784.37
783.455
782.475
781.442
780.365
779.249
778.102
776.927
775.73
774.516
773.287
772.047
770.795
769.534
768.264
766.987
765.707
764.425
763.144
761.866
760.585
759.276
757.925
756.616
755.432
754.239
752.972
751.697
750.373
749.085
747.957
746.802
745.581
744.386
743.201
742.029
740.87
739.726
738.595
737.476
736.37
735.277
734.198
733.134
732.085
731.049
730.026
729.016
728.019
727.035
726.066
725.113
724.175
723.251
722.337
721.43
720.527
719.628
718.74
717.868
717.022
716.21
715.437
714.703
714.012
713.369
712.782
712.247
711.736
711.203
710.603
709.892
709.019
708.143
708.556
712.695
703.582
742.243
770.843
772.65
773.36
774.198
774.813
775.134
775.192
775.022
774.655
774.121
773.463
772.7
771.849
770.921
769.929
768.885
767.798
766.674
765.52
764.341
763.14
761.923
760.692
759.451
758.201
756.943
755.677
754.404
753.126
751.845
750.564
749.287
748.009
746.706
745.357
744.041
742.856
741.671
740.408
739.141
737.823
736.533
735.41
734.27
733.056
731.869
730.694
729.533
728.387
727.254
726.132
725.023
723.927
722.846
721.78
720.729
719.692
718.67
717.66
716.663
715.68
714.712
713.76
712.822
711.897
710.979
710.063
709.147
708.234
707.33
706.448
705.601
704.797
704.043
703.336
702.67
702.042
701.456
700.916
700.417
699.919
699.362
698.685
697.857
696.868
695.917
696.256
700.271
691.273
731.343
759.424
761.179
761.841
762.622
763.179
763.454
763.484
763.298
762.918
762.388
761.728
760.966
760.113
759.181
758.183
757.134
756.043
754.918
753.763
752.584
751.386
750.17
748.942
747.703
746.458
745.208
743.953
742.692
741.425
740.153
738.879
737.606
736.338
735.058
733.743
732.438
731.232
730.039
728.791
727.55
726.279
725.014
723.877
722.745
721.558
720.397
719.252
718.123
717.009
715.909
714.82
713.747
712.69
711.651
710.63
709.627
708.639
707.668
706.711
705.772
704.852
703.95
703.065
702.194
701.331
700.47
699.61
698.752
697.909
697.095
696.328
695.623
694.988
694.421
693.91
693.44
693.001
692.593
692.218
691.866
691.497
691.044
690.44
689.666
688.77
687.994
688.469
692.265
682.716
720.687
748.289
750.002
750.619
751.339
751.829
752.045
752.039
751.844
751.472
750.991
750.339
749.581
748.729
747.796
746.796
745.745
744.654
743.53
742.379
741.205
740.011
738.8
737.575
736.34
735.1
733.859
732.62
731.38
730.136
728.885
727.63
726.373
725.126
723.9
722.678
721.428
720.182
718.969
717.772
716.601
715.457
714.293
713.151
712.07
711.013
709.984
708.984
708.01
707.057
706.124
705.211
704.323
703.462
702.625
701.812
701.02
700.248
699.496
698.767
698.061
697.38
696.721
696.079
695.45
694.826
694.209
693.603
693.022
692.484
692.009
691.617
691.318
691.117
691.006
690.968
690.982
691.026
691.088
691.164
691.226
691.258
691.193
690.97
690.57
690.051
689.629
690.202
693.135
681.143
710.191
737.327
739.004
739.584
740.244
740.652
740.774
740.681
740.423
740.018
739.568
738.882
738.103
737.252
736.329
735.345
734.314
733.245
732.144
731.016
729.864
728.692
727.501
726.293
725.07
723.84
722.612
721.395
720.188
718.987
717.784
716.575
715.384
714.23
713.168
712.21
711.188
710.004
708.89
707.94
707.06
706.325
705.555
704.567
703.701
702.988
702.287
701.625
700.993
700.39
699.83
699.319
698.861
698.455
698.097
697.782
697.508
697.276
697.088
696.947
696.851
696.799
696.783
696.795
696.83
696.887
696.974
697.105
697.299
697.574
697.946
698.42
698.999
699.678
700.445
701.285
702.172
703.073
703.959
704.809
705.569
706.25
706.79
707.149
707.327
707.384
707.513
708.425
710.411
693.277
699.829
726.503
728.151
728.708
729.328
729.668
729.682
729.44
728.986
728.312
727.277
726.249
725.307
724.417
723.506
722.559
721.575
720.558
719.509
718.428
717.32
716.187
715.029
713.847
712.677
711.531
710.419
709.353
708.341
707.378
706.454
705.555
704.669
703.827
703.156
702.724
702.182
701.197
700.299
699.779
699.366
699.263
699.116
698.377
697.846
697.692
697.532
697.43
697.369
697.351
697.376
697.455
697.589
697.768
697.983
698.227
698.5
698.805
699.145
699.52
699.923
700.346
700.779
701.215
701.654
702.105
702.588
703.12
703.722
704.402
705.162
705.996
706.896
707.852
708.854
709.89
710.939
711.97
712.957
713.896
714.817
715.573
716.089
716.365
716.473
716.521
716.702
717.611
719.001
698.961
689.603
715.815
717.436
717.979
718.58
718.891
718.842
718.465
717.688
716.036
709.884
706.328
704.063
702.488
701.221
700.104
699.061
698.043
697.021
695.975
694.897
693.783
692.632
691.441
690.261
689.087
687.927
686.799
685.72
684.702
683.743
682.823
681.854
680.853
680.039
679.584
678.912
677.339
675.843
675.016
674.334
674.184
674.013
672.732
671.752
671.45
671.091
670.786
670.519
670.305
670.168
670.118
670.149
670.246
670.395
670.594
670.848
671.161
671.534
671.961
672.431
672.933
673.458
674.008
674.594
675.236
675.955
676.769
677.683
678.693
679.786
680.948
682.167
683.43
684.727
686.042
687.356
688.648
689.938
691.407
694.357
696.933
698.898
700.296
701.321
702.227
703.327
705.255
707.614
688.433
679.519
705.27
706.86
707.385
707.975
708.292
708.272
707.929
706.821
701.442
649.944
633.176
626.838
624.009
622.292
620.882
619.492
618.031
616.486
614.879
613.243
611.611
610.013
608.469
606.992
605.586
604.254
603.002
601.846
600.79
599.824
598.908
598.008
597.136
596.559
596.548
596.265
594.551
592.829
592.054
591.363
591.355
591.289
589.365
587.73
587.068
586.228
585.392
584.556
583.756
583.02
582.355
581.742
581.163
580.611
580.096
579.632
579.226
578.879
578.586
578.337
578.133
577.979
577.896
577.91
578.047
578.322
578.739
579.286
579.948
580.708
581.554
582.478
583.47
584.518
585.597
586.675
587.716
588.807
592.517
613.33
629.929
642.164
651.077
657.687
662.925
667.687
673.132
679.351
665.392
669.582
694.878
696.438
696.942
697.513
697.824
697.816
697.495
696.352
690.556
636.738
619.374
613.102
610.549
609.158
608.062
606.948
605.717
604.358
602.895
601.363
599.802
598.247
596.731
595.275
593.888
592.562
591.294
590.098
588.995
588.001
587.096
586.205
585.328
584.822
585.125
585.134
583.084
580.955
580.203
579.541
579.843
580.18
577.818
575.758
575.083
574.116
573.117
572.09
571.075
570.085
569.1
568.082
567.011
565.888
564.724
563.531
562.315
561.067
559.783
558.467
557.141
555.836
554.593
553.453
552.443
551.576
550.853
550.269
549.822
549.518
549.366
549.373
549.537
549.845
550.269
550.773
551.326
551.998
554.146
570.379
584.423
595.65
604.605
611.936
618.35
624.762
632.779
643.536
637.782
659.794
684.641
686.175
686.661
687.213
687.51
687.493
687.165
686.018
680.238
627.086
609.903
603.714
601.208
599.853
598.793
597.72
596.532
595.219
593.805
592.324
590.815
589.316
587.868
586.505
585.238
584.051
582.908
581.797
580.735
579.767
578.914
578.111
577.345
577.045
577.822
578.328
576.095
573.677
573.123
572.667
573.487
574.542
572.014
569.804
569.5
568.857
568.238
567.658
567.15
566.695
566.248
565.772
565.266
564.746
564.219
563.677
563.097
562.466
561.781
561.054
560.311
559.579
558.88
558.221
557.591
556.965
556.316
555.623
554.877
554.077
553.221
552.304
551.31
550.218
549.007
547.66
546.185
544.685
544.344
555.776
564.921
571.71
576.962
581.377
585.535
590.252
597.438
609.187
608.515
650.153
674.561
676.075
676.546
677.082
677.365
677.339
677.008
675.875
670.184
617.969
601.078
594.985
592.511
591.169
590.12
589.059
587.889
586.597
585.205
583.746
582.254
580.769
579.336
578.009
576.818
575.743
574.715
573.668
572.583
571.522
570.564
569.695
568.908
568.683
569.807
570.72
568.192
565.317
564.8
564.368
565.5
567.119
564.224
561.588
561.383
560.798
560.3
559.897
559.576
559.27
558.926
558.579
558.256
557.979
557.741
557.513
557.271
557.016
556.771
556.573
556.456
556.442
556.534
556.714
556.953
557.222
557.499
557.774
558.044
558.302
558.532
558.707
558.794
558.76
558.583
558.254
557.796
557.394
558.862
572.962
583.293
590.331
595.276
598.954
601.93
604.901
609.752
617.861
610.606
640.655
664.633
666.133
666.598
667.125
667.398
667.361
667.024
665.898
660.295
608.963
592.353
586.353
583.911
582.584
581.547
580.502
579.349
578.077
576.708
575.272
573.801
572.326
570.899
569.591
568.468
567.528
566.678
565.779
564.731
563.571
562.433
561.398
560.509
560.295
561.7
563.006
560.204
556.845
556.317
555.855
557.204
559.344
556.077
552.947
552.769
552.215
551.831
551.57
551.327
550.985
550.519
550.006
549.536
549.139
548.782
548.419
548.034
547.662
547.353
547.138
547.032
547.028
547.097
547.207
547.333
547.462
547.594
547.732
547.873
548.003
548.098
548.13
548.078
547.939
547.727
547.469
547.222
547.198
549.182
563.82
575.008
583.215
589.564
594.79
599.401
604.165
610.606
619.127
609.943
631.292
654.845
656.338
656.809
657.342
657.62
657.582
657.235
656.106
650.573
600.055
583.704
577.793
575.386
574.081
573.066
572.043
570.915
569.669
568.327
566.921
565.474
564.013
562.583
561.272
560.186
559.373
558.741
558.084
557.181
555.976
554.624
553.321
552.223
551.927
553.523
555.193
552.176
548.35
547.778
547.259
548.739
551.346
547.76
544.15
544.006
543.559
543.377
543.284
543.052
542.547
541.84
541.119
540.517
540.038
539.608
539.17
538.728
538.323
537.998
537.767
537.616
537.507
537.398
537.26
537.081
536.862
536.607
536.308
535.939
535.464
534.849
534.069
533.123
532.034
530.844
529.605
528.382
527.32
527.521
538.849
547.581
553.857
558.428
561.829
564.622
567.727
572.889
581.667
578.426
622.062
645.19
646.678
647.159
647.714
648.022
648.011
647.674
646.543
641.065
591.291
575.184
569.358
566.988
565.708
564.718
563.721
562.62
561.401
560.087
558.709
557.289
555.844
554.406
553.066
551.968
551.227
550.803
550.453
549.818
548.682
547.141
545.49
544.048
543.531
545.178
547.145
543.975
539.717
539.064
538.461
539.97
542.953
539.117
535.093
535.037
534.82
534.929
534.99
534.653
533.843
532.799
531.835
531.102
530.551
530.069
529.601
529.165
528.802
528.53
528.321
528.131
527.915
527.646
527.321
526.946
526.529
526.057
525.5
524.818
523.974
522.947
521.746
520.405
518.981
517.549
516.189
514.989
514.105
514.612
526.052
535.305
542.221
547.415
551.475
555.062
559.087
565.282
575.688
574.498
612.971
635.675
637.15
637.637
638.215
638.573
638.627
638.354
637.275
631.885
582.836
566.983
561.251
558.91
557.642
556.659
555.668
554.573
553.359
552.051
550.682
549.273
547.833
546.378
544.983
543.812
543.054
542.762
542.718
542.453
541.542
539.924
537.922
536.027
535.133
536.669
538.853
535.609
530.997
530.258
529.576
531.04
534.32
530.358
526.077
526.256
526.454
526.95
527.128
526.58
525.397
524.041
522.94
522.216
521.749
521.39
521.082
520.84
520.679
520.576
520.481
520.35
520.166
519.937
519.679
519.399
519.083
518.696
518.195
517.547
516.743
515.803
514.774
513.718
512.711
511.832
511.158
510.76
510.774
512.341
525.732
536.876
545.461
552.126
557.575
562.466
567.463
573.906
583.187
578.051
604.032
626.313
627.769
628.246
628.83
629.226
629.363
629.214
628.308
623.198
575.234
559.772
554.162
551.822
550.518
549.485
548.439
547.286
546.015
544.654
543.242
541.806
540.352
538.879
537.43
536.163
535.319
535.065
535.281
535.459
534.966
533.494
531.279
528.929
527.547
528.82
531.14
527.908
523.044
522.227
521.456
522.776
526.248
522.255
517.876
518.423
519.137
519.98
520.118
519.206
517.611
516.041
514.976
514.455
514.264
514.208
514.216
514.28
514.383
514.485
514.549
514.568
514.56
514.545
514.525
514.476
514.352
514.106
513.708
513.159
512.492
511.766
511.049
510.411
509.916
509.616
509.545
509.721
510.377
513.48
529.731
542.704
552.442
559.927
566.008
571.231
575.983
581.237
587.67
577.753
595.242
617.107
618.543
619.002
619.57
619.97
620.154
620.125
619.511
615.238
571.186
556.786
551.294
548.763
547.214
545.969
544.777
543.562
542.32
541.076
539.857
538.68
537.529
536.364
535.171
534.057
533.274
533.098
533.567
534.245
534.365
533.334
531.172
528.487
526.566
527.424
529.759
526.549
521.454
520.47
519.45
520.356
523.719
519.537
514.936
515.648
516.551
517.236
516.77
515.047
512.802
510.951
509.943
509.669
509.798
510.087
510.543
511.084
511.643
512.176
512.672
513.146
513.614
514.069
514.47
514.762
514.898
514.856
514.653
514.34
513.986
513.669
513.456
513.402
513.543
513.89
514.43
515.14
516.124
519.148
536.048
549.377
559.25
566.724
572.588
577.261
581.09
584.96
589.225
576.679
586.581
608.037
609.458
609.903
610.45
610.823
610.969
610.911
610.601
609.647
605.578
603.524
602.469
601.73
601.078
600.428
599.74
598.994
598.188
597.325
596.415
595.463
594.455
593.343
592.085
590.745
589.578
588.969
589.17
589.92
590.413
589.769
587.68
584.609
581.987
582.278
584.601
581.385
576.061
575.047
573.933
574.636
578.242
574.083
569.443
570.583
571.783
572.251
571.099
568.618
565.953
564.14
563.465
563.589
564.04
564.531
564.974
565.369
565.738
566.107
566.506
566.945
567.402
567.825
568.142
568.305
568.301
568.16
567.946
567.733
567.595
567.592
567.761
568.12
568.66
569.349
570.133
570.952
571.775
572.731
574.848
576.859
578.665
580.317
581.784
582.981
584.012
585.513
587.572
573.258
578.016
599.065
600.473
600.906
601.439
601.794
601.917
601.835
601.572
601.108
600.412
599.674
598.944
598.184
597.384
596.55
595.687
594.797
593.884
592.953
592.015
591.076
590.127
589.118
587.974
586.682
585.419
584.58
584.583
585.412
586.387
586.471
585.007
582.135
579.198
578.972
581.143
578.001
572.667
571.668
570.452
570.87
574.647
570.851
566.578
568.192
569.463
569.417
567.488
564.479
561.816
560.409
560.216
560.65
561.172
561.554
561.799
561.988
562.193
562.45
562.759
563.075
563.327
563.448
563.395
563.177
562.846
562.48
562.16
561.954
561.908
562.045
562.365
562.847
563.45
564.123
564.809
565.468
566.085
566.701
567.385
568.103
568.828
569.504
570.04
570.4
570.733
571.625
573.372
560.251
569.512
590.154
591.548
591.97
592.489
592.833
592.951
592.871
592.624
592.24
591.838
591.259
590.581
589.832
589.029
588.186
587.312
586.412
585.491
584.553
583.608
582.667
581.734
580.778
579.714
578.466
577.103
575.951
575.518
576.051
577.125
577.72
576.905
574.421
571.346
570.597
572.445
569.248
563.809
562.732
561.299
561.284
565.119
561.591
557.433
558.994
559.666
558.547
555.583
552.04
549.375
548.142
547.916
547.984
547.893
547.577
547.168
546.796
546.513
546.291
546.061
545.731
545.234
544.553
543.716
542.799
541.892
541.077
540.41
539.921
539.613
539.474
539.474
539.574
539.725
539.882
540.014
540.111
540.186
540.263
540.341
540.465
540.605
540.703
540.727
540.71
540.779
541.532
543.792
534.675
561.048
581.283
582.665
583.074
583.579
583.912
584.023
583.94
583.693
583.31
582.858
582.283
581.62
580.892
580.112
579.291
578.435
577.551
576.644
575.716
574.776
573.838
572.924
572.033
571.106
570.032
568.765
567.486
566.676
566.772
567.668
568.524
568.284
566.323
563.36
562.261
563.781
560.513
555.316
554.2
552.632
552.296
555.996
552.967
549.066
550.594
550.794
549.055
545.864
542.735
540.844
540.232
540.179
540.027
539.586
539.006
538.48
538.085
537.767
537.414
536.928
536.248
535.385
534.407
533.402
532.469
531.678
531.066
530.64
530.382
530.264
530.249
530.296
530.365
530.42
530.437
530.411
530.348
530.257
530.149
530.01
529.848
529.65
529.414
529.171
528.955
528.85
529.563
532.369
524.318
552.631
572.461
573.832
574.23
574.722
575.044
575.148
575.061
574.811
574.426
573.94
573.361
572.709
571.999
571.243
570.447
569.617
568.756
567.869
566.958
566.026
565.087
564.172
563.32
562.527
561.703
560.722
559.585
558.616
558.301
558.819
559.62
559.68
558.115
555.317
554.005
555.273
551.944
545.919
544.72
543.048
542.494
547.163
544.782
541.25
542.911
543.055
541.406
538.826
536.75
535.869
535.806
535.857
535.694
535.434
535.308
535.393
535.59
535.726
535.665
535.369
534.871
534.266
533.667
533.157
532.791
532.583
532.517
532.563
532.683
532.842
533.008
533.151
533.25
533.295
533.284
533.22
533.104
532.931
532.695
532.395
532.052
531.694
531.363
531.077
530.786
530.517
531.046
533.519
523.798
544.318
563.746
565.106
565.494
565.974
566.287
566.384
566.294
566.043
565.658
565.163
564.585
563.941
563.244
562.505
561.729
560.921
560.083
559.219
558.329
557.41
556.467
555.532
554.671
553.949
553.355
552.764
552.028
551.239
550.756
550.913
551.478
551.571
550.144
547.335
545.79
546.944
543.795
542.357
541.217
539.476
538.711
539.177
537.647
534.946
537.483
538.499
537.902
536.674
535.968
535.953
536.162
536.215
536.185
536.327
536.725
537.23
537.607
537.696
537.47
537.024
536.487
535.983
535.6
535.366
535.275
535.297
535.395
535.532
535.679
535.813
535.917
535.981
536.001
535.979
535.916
535.804
535.63
535.384
535.073
534.732
534.411
534.16
533.996
533.858
533.615
533.312
533.791
535.897
524.316
536.238
555.271
556.621
556.998
557.467
557.772
557.864
557.772
557.521
557.138
556.645
556.071
555.433
554.745
554.018
553.258
552.469
551.655
550.816
549.953
549.06
548.13
547.177
546.266
545.514
545.016
544.739
544.494
544.165
543.862
543.886
544.266
544.341
542.948
539.948
537.972
539.036
536.055
519.989
518.537
516.343
515.297
530.729
530.182
528.239
531.713
533.469
533.524
532.896
532.485
532.315
532.097
531.886
531.948
532.388
533.019
533.533
533.728
533.588
533.235
532.841
532.53
532.361
532.346
532.451
532.634
532.855
533.085
533.302
533.493
533.649
533.768
533.85
533.9
533.914
533.883
533.79
533.624
533.395
533.142
532.924
532.793
532.765
532.789
532.729
532.459
532.131
532.617
534.454
521.756
528.62
547.279
548.619
548.983
549.438
549.733
549.82
549.724
549.473
549.091
548.603
548.034
547.401
546.721
546.004
545.257
544.487
543.694
542.881
542.049
541.192
540.295
539.346
538.381
537.517
536.925
536.712
536.776
536.928
537.029
537.197
537.597
537.853
536.775
533.783
531.223
532.104
530.779
564.257
560.881
555.794
552.063
518.588
518.357
517.598
522.392
524.849
525.364
525.099
524.849
524.666
524.556
524.724
525.296
526.103
526.807
527.175
527.197
527.026
526.84
526.778
526.873
527.104
527.429
527.796
528.17
528.528
528.859
529.155
529.413
529.632
529.815
529.961
530.067
530.122
530.113
530.035
529.901
529.751
529.642
529.628
529.718
529.859
529.927
529.785
529.395
529.027
529.5
531.088
517.717
521.794
540.117
541.449
541.801
542.242
542.525
542.601
542.497
542.239
541.851
541.36
540.788
540.156
539.478
538.767
538.031
537.278
536.51
535.727
534.932
534.121
533.278
532.374
531.399
530.421
529.613
529.183
529.177
529.507
529.926
530.326
530.871
531.501
531.268
529.155
526.668
527.961
524.943
478.286
470.781
466.605
466.741
506.892
510.743
511.331
516.828
519.076
519.459
519.332
519.324
519.437
519.719
520.27
520.997
521.635
521.973
522.007
521.911
521.868
521.977
522.264
522.675
523.138
523.607
524.053
524.464
524.836
525.167
525.457
525.708
525.922
526.098
526.233
526.317
526.344
526.312
526.238
526.158
526.119
526.163
526.299
526.483
526.618
526.581
526.297
525.845
525.549
526.112
527.487
513.609
516.129
534.176
535.507
535.855
536.293
536.575
536.65
536.543
536.281
535.886
535.384
534.798
534.149
533.453
532.726
531.979
531.222
530.461
529.697
528.932
528.165
527.384
526.556
525.638
524.628
523.639
522.886
522.512
522.619
523.037
523.526
524.15
525.075
525.88
525.444
524.001
525.557
515.568
250.878
245.405
247.215
256.125
503.241
512.437
512.005
515.557
515.75
515.283
515.214
515.598
516.132
516.715
517.308
517.805
518.098
518.198
518.24
518.377
518.682
519.126
519.659
520.207
520.718
521.173
521.573
521.921
522.221
522.477
522.694
522.878
523.029
523.145
523.221
523.25
523.239
523.203
523.175
523.188
523.265
523.406
523.575
523.703
523.703
523.503
523.108
522.656
522.447
523.067
524.334
510.105
511.926
529.769
531.107
531.468
531.925
532.235
532.346
532.278
532.054
531.692
531.214
530.638
529.984
529.266
528.503
527.709
526.9
526.089
525.284
524.491
523.712
522.94
522.152
521.295
520.323
519.274
518.306
517.566
517.296
517.494
517.938
518.597
519.675
521.278
522.603
522.702
525.401
510.478
67.6609
64.6672
72.065
88.3971
505.391
517.539
514.11
514.494
512.473
511.509
511.642
512.149
512.563
512.878
513.196
513.55
513.95
514.431
515.035
515.769
516.583
517.375
518.099
518.72
519.222
519.614
519.921
520.158
520.342
520.487
520.608
520.714
520.805
520.876
520.923
520.95
520.972
521.012
521.09
521.214
521.369
521.518
521.613
521.601
521.44
521.117
520.683
520.269
520.115
520.761
521.998
507.635
509.3
527.008
528.35
528.723
529.209
529.567
529.748
529.77
529.651
529.405
529.044
528.577
528.013
527.359
526.624
525.821
524.967
524.083
523.187
522.294
521.411
520.542
519.672
518.763
517.759
516.657
515.577
514.612
514.07
514.061
514.457
515.236
516.532
518.708
521.379
522.591
526.43
510.07
-3.7548
-5.36234
5.37443
25.5536
512.175
523.69
516.6
514.35
510.891
509.534
509.171
508.846
508.416
508.213
508.485
509.245
510.354
511.646
512.985
514.284
515.46
516.43
517.19
517.759
518.156
518.415
518.58
518.686
518.763
518.836
518.923
519.025
519.136
519.246
519.354
519.469
519.604
519.769
519.959
520.146
520.29
520.353
520.309
520.144
519.855
519.457
518.996
518.56
518.4
519.106
520.63
506.569
508.121
525.747
527.073
527.429
527.909
528.277
528.491
528.576
528.554
528.44
528.241
527.961
527.595
527.138
526.584
525.931
525.185
524.362
523.483
522.571
521.639
520.692
519.722
518.703
517.581
516.334
515.015
513.808
512.999
512.752
513.076
513.95
516.306
519.225
523.366
525.437
530.225
511.484
-24.8889
-31.9086
-20.6194
3.80493
526.19
536.627
525.329
520.319
514.529
511.201
508.822
506.852
505.536
505.236
505.964
507.407
509.153
510.886
512.441
513.779
514.265
515.091
515.669
516.061
516.31
516.466
516.583
516.694
516.825
516.994
517.21
517.462
517.729
517.989
518.237
518.48
518.731
518.984
519.203
519.336
519.339
519.235
519.07
518.846
518.558
518.192
517.75
517.277
516.983
517.632
519.546
506.314
508.016
525.61
526.904
527.215
527.637
527.939
528.086
528.112
528.049
527.923
527.752
527.543
527.296
527.002
526.648
526.219
525.708
525.116
524.457
523.751
523.016
522.255
521.459
520.591
519.586
518.369
517.162
515.71
514.516
513.782
513.379
513.825
516.051
519.447
525.395
529.406
538.168
520.906
-13.1906
-25.0711
-18.5821
4.58622
539.949
552.475
537.169
529.786
521.108
515.278
511.021
508.091
506.564
506.365
507.11
508.288
509.493
510.518
511.334
512.008
511.93
512.346
512.644
512.885
513.104
513.333
513.608
513.932
514.298
514.701
515.133
515.586
516.029
516.424
516.746
517.026
517.298
517.558
517.784
517.921
517.891
517.643
517.165
516.503
515.729
514.861
513.72
512.397
511.208
511.082
512.74
500.923
508.478
526.088
527.367
527.646
528.014
528.237
528.277
528.168
527.95
527.656
527.316
526.951
526.575
526.191
525.796
525.379
524.932
524.447
523.933
523.411
522.909
522.448
522.029
521.615
521.114
520.344
518.523
517.193
515.88
514.8
514.756
514.36
515.431
517.572
523.554
530.89
554.891
539.674
-19.3932
-37.0273
-32.3137
-5.18217
563.234
579.171
548.58
535.755
523.859
516.426
511.589
508.671
507.19
506.683
506.697
506.873
507.027
507.144
507.283
507.528
507.225
507.596
507.996
508.449
508.942
509.467
510.032
510.636
511.269
511.89
512.459
512.959
513.412
513.85
514.278
514.63
514.8
514.691
514.29
513.635
512.688
511.501
510.226
508.936
507.68
506.587
505.999
505.996
506.783
509.128
513.34
503.183
509.029
526.679
527.968
528.258
528.631
528.845
528.857
528.695
528.393
527.981
527.49
526.946
526.368
525.77
525.16
524.537
523.897
523.234
522.552
521.868
521.226
520.68
520.283
520.04
519.879
519.607
522.422
521.458
520.265
519.121
514.803
514.067
514.131
513.747
515.793
523.015
587.581
573.755
56.5541
35.2117
38.4705
67.4254
605.287
623.776
550.987
532.056
517.26
507.874
502.191
499.13
497.823
497.528
497.767
498.229
498.764
499.322
499.923
500.665
500.943
501.833
502.643
503.395
504.134
504.886
505.592
506.189
506.685
507.108
507.477
507.816
508.058
508.126
507.994
507.737
507.456
507.229
507.052
506.939
507.09
507.599
508.431
509.518
510.781
512.136
513.505
514.867
516.419
518.893
522.326
509.843
509.371
527.044
528.347
528.659
529.063
529.317
529.374
529.258
528.998
528.62
528.147
527.601
526.998
526.351
525.666
524.947
524.189
523.382
522.517
521.599
520.659
519.77
519.038
518.547
518.264
517.764
505.373
503.939
502.282
500.835
511.169
510.023
509.057
506.632
501.624
473.918
493.277
516.651
512.093
507.425
504.112
501.723
500.515
499.405
499.129
499.374
499.973
500.884
501.927
503.015
503.458
504.605
505.755
506.832
507.735
508.534
509.322
510.097
510.808
511.503
512.247
512.989
513.714
514.412
515.077
515.706
516.295
516.847
517.374
517.895
518.436
519.016
519.645
520.317
521.001
521.653
522.228
522.745
523.421
524.896
527.007
512.785
509.423
527.088
528.386
528.697
529.106
529.373
529.45
529.365
529.145
528.813
528.392
527.903
527.358
526.767
526.137
525.468
524.755
523.987
523.146
522.217
521.201
520.143
519.146
518.329
517.778
518.576
555.748
553.696
550.186
546.568
507.867
506.341
506.396
506.107
504.743
475.239
501.524
533.968
530.554
525.968
522.613
520.309
518.965
518.49
518.618
519.164
520.111
521.202
521.965
522.629
522.6
523.121
523.515
523.796
523.974
524.131
524.264
524.388
524.515
524.656
524.793
524.899
524.958
524.966
524.92
524.826
524.696
524.549
524.421
524.344
524.349
524.454
524.654
524.92
525.188
525.39
525.506
525.592
525.848
526.806
528.186
513.253
509.248
526.892
528.179
528.474
528.866
529.114
529.175
529.074
528.839
528.497
528.07
527.577
527.035
526.451
525.831
525.175
524.48
523.733
522.917
522.005
520.973
519.828
518.656
517.555
516.623
515.508
475.041
468.158
464.664
465.031
500.144
502.141
503.929
505.69
506.732
477.103
504.976
540.297
538.144
534.226
531.36
529.373
528.097
527.474
527.356
527.581
528.065
528.648
529.078
529.391
528.966
528.986
528.881
528.702
528.457
528.249
528.055
527.891
527.765
527.662
527.554
527.424
527.258
527.049
526.793
526.532
526.285
526.076
525.925
525.85
525.856
525.943
526.096
526.274
526.413
526.452
526.384
526.283
526.335
527
528.032
512.846
508.969
526.599
527.879
528.164
528.541
528.772
528.812
528.69
528.435
528.074
527.632
527.129
526.583
526.003
525.391
524.748
524.067
523.335
522.533
521.629
520.594
519.423
518.188
516.915
514.881
506.119
246.647
239.266
240.81
250.241
495.655
503.318
505.932
508.272
509.96
479.453
507.12
543.378
541.629
537.765
534.649
532.399
530.841
529.882
529.428
529.367
529.599
529.932
530.163
530.301
529.717
529.568
529.309
528.998
528.634
528.348
528.078
527.851
527.676
527.531
527.381
527.202
526.989
526.753
526.508
526.274
526.069
525.912
525.814
525.777
525.799
525.868
525.96
526.031
526.03
525.929
525.756
525.585
525.539
526.035
526.915
511.781
508.696
526.323
527.608
527.894
528.269
528.493
528.521
528.381
528.105
527.72
527.254
526.732
526.171
525.583
524.974
524.339
523.669
522.948
522.152
521.251
520.221
519.064
517.84
516.503
513.576
498.367
56.9377
49.8954
55.8378
72.6466
493.508
505.97
508.922
510.985
512.179
481.059
507.787
545.821
544.049
539.542
536.035
533.641
532.02
530.922
530.215
529.861
529.769
529.788
529.795
529.773
529.052
528.782
528.43
528.044
527.605
527.274
526.954
526.675
526.444
526.234
526.017
525.783
525.541
525.305
525.089
524.908
524.773
524.692
524.662
524.676
524.72
524.773
524.808
524.794
524.709
524.559
524.382
524.21
524.113
524.521
525.382
510.446
508.503
526.133
527.429
527.729
528.118
528.355
528.392
528.257
527.978
527.582
527.098
526.552
525.964
525.349
524.714
524.057
523.37
522.634
521.828
520.923
519.899
518.752
517.517
516.092
512.591
494.238
-23.3485
-30.7807
-23.0542
-2.69676
492.825
507.311
509.651
510.527
510.393
479.689
507.902