/*--------------------------------*- C++ -*----------------------------------*\
| =========                 |                                                 |
| \\      /  F ield         | OpenFOAM: The Open Source CFD Toolbox           |
|  \\    /   O peration     | Version:  v2012                                 |
|   \\  /    A nd           | Website:  www.openfoam.com                      |
|    \\/     M anipulation  |                                                 |
\*---------------------------------------------------------------------------*/
FoamFile
{
    version     2.0;
    format      ascii;
    class       volScalarField;
    location    "450/air";
    object      ILambda_28_0;
}
// * * * * * * * * * * * * * * * * * * * * * * * * * * * * * * * * * * * * * //

dimensions      [1 0 -3 0 0 0 0];


internalField   nonuniform List<scalar> 
287104
(
205.392
222.169
222.971
223.38
224.551
225.751
226.766
227.637
228.413
229.113
229.747
230.323
230.851
231.336
231.784
232.199
232.585
232.946
233.284
233.602
233.902
234.185
234.454
234.71
234.954
235.187
235.41
235.625
235.83
236.029
236.22
236.405
236.585
236.758
236.927
237.09
237.25
237.407
237.56
237.709
237.854
237.996
238.136
238.275
238.41
238.544
238.675
238.804
238.931
239.057
239.181
239.304
239.425
239.544
239.663
239.779
239.894
240.008
240.121
240.233
240.343
240.452
240.56
240.667
240.772
240.876
240.979
241.08
241.18
241.279
241.377
241.474
241.57
241.665
241.76
241.851
241.939
242.023
242.106
242.192
242.285
242.388
242.499
242.614
242.73
242.849
242.978
243.139
243.444
244.811
204.768
221.242
222.001
222.375
223.498
224.65
225.622
226.453
227.191
227.855
228.455
228.999
229.495
229.95
230.37
230.757
231.116
231.451
231.764
232.057
232.333
232.593
232.839
233.073
233.295
233.506
233.708
233.901
234.087
234.265
234.436
234.602
234.761
234.916
235.065
235.209
235.349
235.488
235.623
235.754
235.882
236.005
236.126
236.248
236.367
236.483
236.597
236.709
236.82
236.929
237.036
237.143
237.247
237.351
237.453
237.554
237.654
237.752
237.85
237.946
238.041
238.136
238.229
238.32
238.411
238.501
238.589
238.676
238.762
238.847
238.931
239.015
239.097
239.179
239.26
239.338
239.414
239.485
239.556
239.629
239.709
239.798
239.894
239.995
240.098
240.203
240.318
240.47
240.801
242.319
204.173
220.387
221.132
221.497
222.6
223.731
224.685
225.501
226.224
226.875
227.463
227.995
228.481
228.925
229.335
229.713
230.063
230.389
230.694
230.979
231.247
231.5
231.739
231.965
232.18
232.385
232.58
232.767
232.945
233.117
233.282
233.441
233.594
233.742
233.885
234.022
234.156
234.289
234.419
234.544
234.664
234.781
234.896
235.012
235.126
235.236
235.343
235.45
235.554
235.657
235.759
235.859
235.958
236.056
236.152
236.247
236.341
236.434
236.525
236.616
236.705
236.793
236.881
236.967
237.052
237.135
237.218
237.299
237.379
237.458
237.537
237.614
237.691
237.767
237.842
237.914
237.984
238.05
238.115
238.182
238.257
238.34
238.43
238.525
238.622
238.724
238.834
238.986
239.329
240.839
203.585
219.545
220.278
220.637
221.722
222.836
223.774
224.577
225.289
225.93
226.508
227.032
227.509
227.946
228.349
228.72
229.064
229.385
229.684
229.964
230.227
230.475
230.709
230.931
231.142
231.343
231.534
231.717
231.892
232.059
232.22
232.376
232.525
232.67
232.809
232.942
233.071
233.201
233.328
233.449
233.566
233.679
233.789
233.902
234.013
234.12
234.224
234.327
234.428
234.528
234.626
234.724
234.819
234.914
235.007
235.099
235.19
235.28
235.369
235.456
235.543
235.628
235.713
235.796
235.879
235.96
236.04
236.119
236.196
236.273
236.349
236.424
236.499
236.573
236.646
236.717
236.785
236.85
236.914
236.98
237.054
237.137
237.227
237.322
237.42
237.523
237.636
237.791
238.137
239.634
203.006
218.715
219.436
219.79
220.859
221.955
222.878
223.668
224.37
225
225.569
226.084
226.554
226.985
227.381
227.746
228.085
228.4
228.694
228.969
229.228
229.472
229.702
229.92
230.127
230.324
230.512
230.692
230.863
231.028
231.185
231.337
231.484
231.625
231.761
231.89
232.016
232.142
232.266
232.384
232.498
232.607
232.714
232.824
232.932
233.035
233.136
233.235
233.333
233.43
233.525
233.619
233.711
233.802
233.892
233.981
234.069
234.156
234.241
234.326
234.409
234.491
234.573
234.653
234.732
234.81
234.887
234.963
235.037
235.111
235.184
235.256
235.328
235.399
235.469
235.537
235.602
235.665
235.726
235.791
235.862
235.943
236.031
236.124
236.219
236.321
236.432
236.584
236.919
238.381
202.437
217.898
218.608
218.957
220.009
221.089
221.998
222.777
223.467
224.088
224.648
225.155
225.617
226.041
226.43
226.79
227.124
227.434
227.723
227.994
228.249
228.489
228.716
228.93
229.134
229.328
229.512
229.689
229.858
230.019
230.174
230.322
230.465
230.603
230.736
230.863
230.986
231.108
231.227
231.341
231.451
231.558
231.662
231.766
231.869
231.968
232.065
232.16
232.253
232.345
232.435
232.524
232.611
232.697
232.781
232.865
232.947
233.029
233.108
233.187
233.265
233.341
233.416
233.49
233.563
233.634
233.705
233.773
233.841
233.907
233.973
234.037
234.1
234.163
234.224
234.283
234.339
234.392
234.443
234.497
234.557
234.625
234.7
234.779
234.86
234.947
235.043
235.174
235.466
236.815
201.876
217.094
217.794
218.138
219.175
220.238
221.134
221.9
222.58
223.191
223.742
224.24
224.694
225.111
225.495
225.85
226.178
226.484
226.77
227.037
227.288
227.524
227.748
227.959
228.159
228.349
228.531
228.704
228.87
229.028
229.18
229.324
229.463
229.597
229.726
229.851
229.97
230.084
230.195
230.302
230.407
230.51
230.609
230.704
230.796
230.887
230.975
231.06
231.144
231.226
231.305
231.383
231.459
231.533
231.607
231.678
231.748
231.817
231.884
231.95
232.014
232.077
232.138
232.198
232.256
232.312
232.367
232.42
232.471
232.521
232.569
232.615
232.659
232.702
232.743
232.781
232.816
232.846
232.875
232.905
232.94
232.982
233.03
233.082
233.136
233.197
233.268
233.368
233.594
234.723
201.325
216.303
216.993
217.332
218.353
219.4
220.283
221.038
221.707
222.305
222.858
223.355
223.8
224.207
224.583
224.932
225.256
225.557
225.839
226.103
226.352
226.586
226.807
227.016
227.213
227.401
227.579
227.749
227.911
228.065
228.212
228.352
228.485
228.611
228.733
228.852
228.964
229.064
229.158
229.252
229.345
229.438
229.526
229.602
229.675
229.75
229.823
229.893
229.961
230.026
230.088
230.148
230.206
230.262
230.316
230.368
230.418
230.465
230.51
230.553
230.593
230.632
230.669
230.703
230.736
230.766
230.794
230.82
230.844
230.865
230.885
230.903
230.92
230.934
230.947
230.957
230.964
230.967
230.968
230.973
230.978
230.99
231.011
231.038
231.07
231.113
231.171
231.251
231.416
232.252
200.783
215.525
216.204
216.539
217.545
218.576
219.446
220.189
220.846
221.42
221.975
222.448
222.864
223.249
223.61
223.953
224.278
224.587
224.88
225.157
225.419
225.666
225.9
226.12
226.327
226.52
226.701
226.871
227.031
227.182
227.324
227.457
227.58
227.696
227.807
227.92
228.023
228.103
228.175
228.253
228.331
228.415
228.494
228.548
228.598
228.656
228.711
228.763
228.81
228.855
228.897
228.937
228.975
229.012
229.047
229.079
229.109
229.137
229.163
229.187
229.209
229.229
229.248
229.265
229.28
229.293
229.305
229.315
229.324
229.332
229.338
229.343
229.347
229.35
229.352
229.351
229.349
229.344
229.339
229.342
229.338
229.34
229.35
229.368
229.397
229.441
229.505
229.593
229.739
230.39
200.25
214.76
215.428
215.758
216.749
217.765
218.621
219.352
219.989
220.544
220.109
219.917
220.125
220.498
220.916
221.355
221.803
222.247
222.676
223.084
223.466
223.822
224.15
224.45
224.722
224.967
225.188
225.387
225.57
225.737
225.893
226.039
226.172
226.291
226.405
226.524
226.634
226.709
226.771
226.848
226.929
227.022
227.113
227.163
227.204
227.263
227.318
227.369
227.414
227.455
227.493
227.528
227.561
227.59
227.616
227.638
227.655
227.669
227.68
227.687
227.69
227.691
227.688
227.682
227.673
227.662
227.647
227.63
227.611
227.589
227.565
227.539
227.512
227.483
227.453
227.421
227.386
227.35
227.315
227.281
227.55
227.863
228.088
228.238
228.35
228.452
228.562
228.695
228.885
229.548
199.725
214.006
214.665
214.99
215.966
216.967
217.811
218.529
219.135
219.765
212.305
209.313
209.353
210.277
211.345
212.406
213.421
214.363
215.217
215.978
216.646
217.225
217.718
218.131
218.471
218.747
218.966
219.14
219.277
219.389
219.482
219.563
219.634
219.697
219.761
219.84
219.916
219.952
219.978
220.032
220.097
220.184
220.278
220.321
220.358
220.423
220.489
220.552
220.609
220.663
220.713
220.759
220.8
220.834
220.861
220.88
220.892
220.896
220.892
220.88
220.859
220.83
220.791
220.744
220.688
220.624
220.55
220.468
220.378
220.279
220.173
220.06
219.94
219.815
219.684
219.548
219.406
219.258
219.105
218.851
221.33
223.768
225.456
226.564
227.304
227.816
228.196
228.526
228.906
229.831
199.209
213.265
213.913
214.235
215.196
216.182
217.013
217.719
218.308
218.885
211.485
208.515
208.541
209.451
210.515
211.58
212.603
213.556
214.424
215.2
215.883
216.475
216.98
217.403
217.749
218.027
218.245
218.413
218.54
218.637
218.715
218.78
218.838
218.894
218.96
219.056
219.158
219.211
219.253
219.341
219.45
219.596
219.76
219.859
219.95
220.087
220.232
220.378
220.526
220.678
220.834
220.992
221.152
221.31
221.467
221.623
221.776
221.926
222.072
222.213
222.348
222.475
222.594
222.702
222.799
222.883
222.953
223.008
223.045
223.066
223.068
223.052
223.017
222.964
222.893
222.804
222.697
222.575
222.436
222.263
224.169
226.024
227.304
228.143
228.705
229.093
229.393
229.705
230.185
231.441
198.701
212.535
213.174
213.491
214.437
215.409
216.228
216.923
217.502
218.062
210.768
207.835
207.854
208.746
209.793
210.842
211.851
212.792
213.649
214.416
215.091
215.674
216.169
216.581
216.916
217.182
217.386
217.538
217.646
217.721
217.773
217.813
217.847
217.878
217.922
218.003
218.093
218.115
218.118
218.177
218.259
218.384
218.535
218.598
218.645
218.749
218.863
218.978
219.095
219.216
219.341
219.466
219.591
219.714
219.836
219.958
220.081
220.204
220.329
220.455
220.583
220.712
220.843
220.976
221.112
221.25
221.39
221.532
221.677
221.823
221.97
222.118
222.267
222.414
222.56
222.702
222.839
222.968
223.089
223.188
225.08
226.834
228.016
228.795
229.337
229.742
230.087
230.481
231.121
232.768
198.202
211.818
212.447
212.759
213.691
214.648
215.455
216.14
216.709
217.259
210.079
207.19
207.206
208.084
209.114
210.147
211.141
212.069
212.914
213.67
214.335
214.91
215.398
215.802
216.131
216.392
216.593
216.743
216.847
216.915
216.958
216.987
217.01
217.032
217.07
217.152
217.247
217.257
217.237
217.285
217.36
217.484
217.644
217.692
217.715
217.809
217.913
218.018
218.126
218.236
218.346
218.451
218.548
218.638
218.724
218.805
218.884
218.959
219.03
219.098
219.161
219.221
219.276
219.328
219.376
219.42
219.46
219.498
219.531
219.562
219.591
219.617
219.641
219.664
219.687
219.709
219.729
219.746
219.755
219.687
221.531
223.235
224.365
225.113
225.659
226.107
226.527
226.994
227.635
229.075
197.71
211.111
211.731
212.039
212.957
213.899
214.694
215.369
215.93
216.471
209.406
206.563
206.578
207.441
208.455
209.472
210.451
211.364
212.197
212.942
213.597
214.163
214.643
215.04
215.363
215.62
215.82
215.972
216.078
216.146
216.183
216.203
216.217
216.232
216.266
216.353
216.459
216.463
216.427
216.47
216.544
216.674
216.85
216.895
216.907
217.001
217.111
217.225
217.344
217.464
217.578
217.685
217.787
217.885
217.984
218.082
218.177
218.269
218.357
218.439
218.516
218.588
218.657
218.723
218.786
218.846
218.902
218.954
219.002
219.046
219.085
219.12
219.149
219.172
219.188
219.198
219.198
219.187
219.16
219.055
220.817
222.424
223.451
224.086
224.51
224.823
225.104
225.445
225.981
227.277
197.227
210.416
211.026
211.329
212.234
213.162
213.945
214.609
215.162
215.696
208.744
205.946
205.961
206.811
207.809
208.811
209.775
210.675
211.495
212.228
212.874
213.431
213.903
214.292
214.608
214.86
215.06
215.215
215.328
215.401
215.438
215.451
215.455
215.462
215.493
215.584
215.702
215.706
215.659
215.7
215.775
215.913
216.109
216.157
216.162
216.263
216.388
216.521
216.659
216.793
216.915
217.026
217.132
217.24
217.351
217.464
217.576
217.684
217.79
217.894
217.997
218.099
218.199
218.3
218.4
218.5
218.6
218.701
218.803
218.905
219.009
219.114
219.22
219.327
219.435
219.543
219.652
219.762
219.874
219.978
221.779
223.407
224.469
225.145
225.608
225.962
226.293
226.695
227.324
228.944
196.751
209.732
210.332
210.631
211.522
212.436
213.207
213.862
214.407
214.932
208.091
205.339
205.356
206.194
207.178
208.164
209.114
210
210.808
211.531
212.166
212.715
213.178
213.56
213.868
214.114
214.311
214.47
214.592
214.675
214.718
214.729
214.724
214.721
214.745
214.838
214.967
214.972
214.916
214.956
215.033
215.177
215.39
215.444
215.448
215.56
215.705
215.863
216.022
216.167
216.292
216.403
216.513
216.63
216.754
216.88
217.005
217.127
217.247
217.366
217.485
217.603
217.722
217.841
217.961
218.082
218.204
218.327
218.451
218.577
218.704
218.832
218.96
219.089
219.217
219.344
219.469
219.591
219.712
219.825
221.602
223.225
224.294
224.976
225.44
225.788
226.099
226.468
227.085
228.72
196.283
209.059
209.65
209.945
210.822
211.722
212.481
213.126
213.664
214.184
207.441
204.728
204.749
205.578
206.549
207.521
208.457
209.33
210.124
210.834
211.456
211.992
212.443
212.813
213.107
213.34
213.525
213.678
213.803
213.895
213.944
213.953
213.936
213.914
213.919
214.001
214.129
214.127
214.056
214.085
214.156
214.298
214.521
214.58
214.586
214.714
214.885
215.068
215.242
215.387
215.501
215.599
215.701
215.812
215.93
216.047
216.159
216.265
216.368
216.467
216.563
216.656
216.747
216.835
216.921
217.005
217.085
217.162
217.236
217.305
217.37
217.43
217.484
217.531
217.571
217.602
217.624
217.636
217.636
217.599
219.33
220.933
221.982
222.64
223.078
223.396
223.661
223.955
224.438
225.71
195.823
208.397
208.979
209.27
210.134
211.02
211.768
212.403
212.935
213.461
206.783
204.092
204.108
204.927
205.889
206.849
207.768
208.618
209.384
210.059
210.642
211.134
211.537
211.856
212.099
212.281
212.419
212.531
212.628
212.703
212.741
212.734
212.689
212.631
212.595
212.64
212.743
212.721
212.624
212.634
212.693
212.828
213.061
213.138
213.167
213.334
213.553
213.78
213.982
214.136
214.25
214.347
214.447
214.554
214.659
214.753
214.831
214.895
214.946
214.988
215.022
215.048
215.069
215.085
215.096
215.103
215.105
215.103
215.096
215.084
215.067
215.044
215.017
214.983
214.943
214.897
214.842
214.778
214.695
214.509
216.3
218.033
219.213
219.991
220.533
220.932
221.248
221.546
221.947
222.973
195.372
207.748
208.321
208.607
209.458
210.33
211.067
211.695
212.226
212.757
206.854
204.568
204.62
205.363
206.232
207.089
207.889
208.606
209.227
209.751
210.18
210.52
210.782
210.974
211.107
211.196
211.258
211.315
211.377
211.44
211.482
211.484
211.44
211.37
211.315
211.34
211.435
211.409
211.302
211.303
211.354
211.48
211.718
211.809
211.861
212.069
212.34
212.614
212.848
213.025
213.163
213.288
213.418
213.547
213.661
213.748
213.8
213.819
213.814
213.79
213.754
213.71
213.662
213.61
213.556
213.5
213.444
213.386
213.327
213.267
213.205
213.142
213.076
213.009
212.938
212.865
212.787
212.702
212.603
212.421
214.346
216.206
217.497
218.362
218.959
219.384
219.7
219.965
220.262
221.05
194.928
207.108
207.672
207.955
208.792
209.651
210.376
210.996
211.539
211.99
212.272
212.552
212.869
213.199
213.528
213.844
214.145
214.428
214.692
214.94
215.17
215.384
215.583
215.764
215.928
216.075
216.216
216.366
216.538
216.729
216.912
217.049
217.121
217.141
217.156
217.256
217.442
217.479
217.398
217.423
217.477
217.581
217.793
217.801
217.736
217.844
218.006
218.143
218.212
218.218
218.201
218.206
218.248
218.314
218.384
218.444
218.494
218.536
218.573
218.605
218.632
218.655
218.674
218.69
218.702
218.712
218.719
218.724
218.727
218.728
218.728
218.726
218.722
218.717
218.711
218.702
218.691
218.678
218.666
218.667
218.721
218.79
218.855
218.913
218.965
219.014
219.069
219.141
219.274
219.888
194.489
206.476
207.031
207.31
208.135
208.98
209.695
210.306
210.848
211.329
211.746
212.128
212.488
212.825
213.139
213.431
213.704
213.958
214.195
214.417
214.626
214.822
215.008
215.181
215.34
215.483
215.617
215.756
215.92
216.112
216.312
216.481
216.587
216.626
216.641
216.728
216.911
216.953
216.875
216.898
216.944
217.032
217.239
217.253
217.193
217.311
217.47
217.583
217.617
217.593
217.567
217.579
217.634
217.71
217.784
217.849
217.905
217.956
218.004
218.048
218.089
218.125
218.158
218.188
218.215
218.238
218.258
218.276
218.291
218.303
218.313
218.321
218.326
218.33
218.332
218.33
218.326
218.32
218.313
218.309
218.317
218.332
218.352
218.375
218.401
218.431
218.47
218.526
218.648
219.312
194.053
205.849
206.395
206.67
207.482
208.315
209.018
209.621
210.156
210.638
211.07
211.463
211.824
212.157
212.464
212.75
213.015
213.263
213.495
213.712
213.917
214.11
214.294
214.469
214.631
214.779
214.913
215.045
215.195
215.376
215.58
215.77
215.905
215.968
215.987
216.061
216.232
216.272
216.19
216.207
216.241
216.308
216.51
216.535
216.49
216.619
216.775
216.868
216.883
216.859
216.856
216.903
216.99
217.089
217.181
217.262
217.336
217.406
217.472
217.535
217.593
217.647
217.696
217.742
217.783
217.821
217.855
217.885
217.912
217.936
217.957
217.976
217.992
218.005
218.017
218.025
218.031
218.035
218.037
218.04
218.049
218.064
218.086
218.112
218.142
218.178
218.221
218.281
218.432
219.247
193.62
205.225
205.763
206.033
206.833
207.652
208.345
208.939
209.467
209.943
210.374
210.765
211.123
211.451
211.755
212.037
212.298
212.543
212.772
212.986
213.188
213.379
213.561
213.736
213.902
214.057
214.198
214.329
214.466
214.631
214.824
215.02
215.175
215.26
215.287
215.35
215.505
215.536
215.457
215.463
215.474
215.506
215.672
215.691
215.643
215.759
215.887
215.944
215.932
215.906
215.916
215.977
216.066
216.156
216.237
216.308
216.376
216.442
216.504
216.561
216.612
216.658
216.699
216.735
216.767
216.795
216.819
216.839
216.857
216.873
216.886
216.898
216.909
216.919
216.929
216.939
216.948
216.957
216.967
216.98
217
217.028
217.065
217.109
217.16
217.218
217.284
217.37
217.561
218.431
193.19
204.605
205.134
205.401
206.188
206.995
207.676
208.261
208.781
209.251
209.676
210.062
210.415
210.74
211.04
211.318
211.577
211.819
212.046
212.259
212.459
212.647
212.827
213.001
213.171
213.335
213.489
213.631
213.769
213.922
214.101
214.292
214.456
214.554
214.587
214.642
214.781
214.803
214.68
214.646
214.595
214.54
214.648
214.611
214.508
214.564
214.626
214.619
214.56
214.509
214.501
214.53
214.57
214.603
214.628
214.65
214.673
214.695
214.715
214.731
214.743
214.753
214.762
214.771
214.781
214.791
214.802
214.816
214.831
214.849
214.869
214.892
214.917
214.945
214.976
215.009
215.044
215.081
215.12
215.164
215.215
215.275
215.343
215.418
215.501
215.591
215.689
215.815
216.048
216.881
192.766
203.993
204.514
204.777
205.552
206.346
207.017
207.593
208.105
208.568
208.987
209.368
209.717
210.038
210.334
210.609
210.866
211.105
211.33
211.542
211.74
211.927
212.105
212.276
212.446
212.618
212.788
212.951
213.105
213.261
213.432
213.615
213.78
213.883
213.915
213.958
214.085
214.094
214.074
213.917
213.624
213.287
212.976
212.709
212.442
212.353
212.283
212.164
212.02
211.903
211.835
211.795
211.763
211.737
211.725
211.733
211.759
211.797
211.842
211.892
211.947
212.006
212.069
212.136
212.205
212.276
212.349
212.423
212.498
212.573
212.649
212.725
212.802
212.878
212.955
213.032
213.109
213.185
213.262
213.341
213.424
213.514
213.61
213.712
213.819
213.931
214.051
214.202
214.453
215.202
192.354
203.4
203.912
204.172
204.934
205.716
206.377
206.944
207.449
207.905
208.318
208.694
209.039
209.355
209.648
209.921
210.175
210.412
210.636
210.846
211.045
211.231
211.407
211.575
211.741
211.914
212.095
212.28
212.46
212.635
212.812
212.995
213.165
213.275
213.307
213.337
213.457
213.442
212.539
211.682
210.631
209.624
209.471
209.032
208.616
208.464
208.389
208.313
208.253
208.242
208.276
208.339
208.421
208.525
208.657
208.811
208.977
209.145
209.309
209.469
209.625
209.777
209.924
210.067
210.205
210.339
210.469
210.596
210.719
210.838
210.953
211.066
211.176
211.283
211.387
211.489
211.588
211.687
211.784
211.883
211.984
212.091
212.201
212.316
212.433
212.554
212.686
212.849
213.098
213.772
191.967
202.842
203.346
203.602
204.353
205.124
205.775
206.334
206.832
207.282
207.689
208.06
208.401
208.714
209.004
209.274
209.526
209.762
209.984
210.194
210.393
210.581
210.757
210.923
211.084
211.25
211.43
211.624
211.826
212.026
212.22
212.415
212.601
212.738
212.791
212.821
212.947
212.751
213.652
211.821
209.486
207.924
205.155
204.316
204.208
204.454
204.759
205.043
205.317
205.595
205.868
206.128
206.382
206.64
206.905
207.169
207.422
207.657
207.875
208.079
208.271
208.453
208.626
208.789
208.945
209.094
209.238
209.376
209.51
209.639
209.764
209.885
210.003
210.117
210.229
210.338
210.444
210.549
210.652
210.755
210.861
210.97
211.083
211.2
211.32
211.444
211.583
211.753
211.997
212.614
191.621
202.344
202.842
203.094
203.835
204.595
205.238
205.789
206.281
206.724
207.127
207.494
207.83
208.14
208.428
208.696
208.946
209.182
209.404
209.614
209.814
210.003
210.182
210.349
210.507
210.664
210.833
211.019
211.225
211.438
211.65
211.861
212.072
212.257
212.373
212.442
212.578
212.286
205.582
200.926
198.651
197.654
200.145
201.221
201.643
202.267
202.941
203.547
204.075
204.537
204.936
205.284
205.602
205.907
206.199
206.472
206.719
206.94
207.14
207.327
207.504
207.675
207.839
207.997
208.149
208.296
208.438
208.575
208.707
208.834
208.957
209.075
209.191
209.303
209.412
209.519
209.624
209.726
209.827
209.929
210.032
210.139
210.249
210.362
210.477
210.597
210.733
210.899
211.136
211.715
191.335
201.933
202.425
202.675
203.408
204.16
204.796
205.341
205.828
206.267
206.665
207.028
207.361
207.669
207.954
208.219
208.469
208.703
208.925
209.136
209.338
209.53
209.713
209.885
210.045
210.198
210.354
210.523
210.713
210.922
211.14
211.361
211.592
211.828
212.031
212.165
212.313
212.15
192.234
185.167
183.765
183.101
196.55
200.546
201.01
201.486
202.142
202.792
203.373
203.882
204.325
204.72
205.086
205.424
205.731
206.004
206.247
206.466
206.669
206.858
207.038
207.21
207.374
207.53
207.68
207.823
207.96
208.091
208.217
208.338
208.455
208.568
208.679
208.787
208.893
208.997
209.1
209.201
209.301
209.402
209.505
209.611
209.72
209.831
209.944
210.064
210.199
210.363
210.591
211.144
191.125
201.632
202.119
202.367
203.095
203.842
204.474
205.016
205.5
205.937
206.334
206.695
207.027
207.332
207.616
207.88
208.127
208.361
208.582
208.793
208.995
209.19
209.377
209.554
209.72
209.876
210.027
210.183
210.357
210.555
210.77
210.996
211.237
211.509
211.785
211.971
212.144
212.11
182.322
173.614
172.912
172.471
194.271
200.421
200.855
201.139
201.69
202.289
202.841
203.334
203.783
204.204
204.601
204.972
205.314
205.623
205.901
206.154
206.391
206.609
206.81
206.998
207.173
207.335
207.486
207.628
207.762
207.888
208.009
208.125
208.239
208.35
208.46
208.569
208.677
208.784
208.891
208.998
209.105
209.213
209.324
209.438
209.554
209.672
209.792
209.92
210.062
210.233
210.469
211.022
190.995
201.445
201.93
202.177
202.902
203.647
204.277
204.82
205.304
205.743
206.142
206.506
206.839
207.147
207.432
207.697
207.945
208.178
208.399
208.61
208.812
209.007
209.195
209.376
209.547
209.707
209.86
210.013
210.182
210.377
210.595
210.825
211.076
211.363
211.667
211.824
211.964
212.049
178.711
169.461
169.064
168.75
194.31
201.371
201.616
201.609
201.915
202.325
202.732
203.122
203.509
203.902
204.298
204.69
205.065
205.414
205.737
206.038
206.317
206.572
206.804
207.013
207.203
207.375
207.532
207.677
207.812
207.94
208.064
208.184
208.303
208.421
208.539
208.658
208.778
208.9
209.023
209.147
209.271
209.398
209.528
209.663
209.802
209.944
210.087
210.236
210.396
210.586
210.851
211.474
190.938
201.363
201.846
202.091
202.815
203.558
204.188
204.731
205.217
205.659
206.061
206.43
206.769
207.083
207.375
207.646
207.9
208.139
208.364
208.579
208.784
208.983
209.174
209.359
209.535
209.698
209.849
209.999
210.166
210.361
210.582
210.796
211.156
211.436
211.694
211.694
211.725
212.069
178.447
169.247
169.043
168.871
199.065
206.71
206.03
205.047
204.548
204.339
204.271
204.3
204.417
204.618
204.883
205.186
205.501
205.812
206.113
206.416
206.586
206.822
207.056
207.268
207.46
207.635
207.798
207.95
208.093
208.231
208.367
208.504
208.641
208.778
208.914
209.052
209.193
209.341
209.495
209.651
209.805
209.96
210.118
210.284
210.462
210.65
210.847
211.058
211.293
211.579
211.982
212.88
190.933
201.357
201.839
202.083
202.805
203.547
204.174
204.716
205.2
205.641
206.044
206.414
206.757
207.076
207.374
207.653
207.917
208.165
208.401
208.627
208.844
209.055
209.259
209.457
209.646
209.82
209.981
210.124
210.273
210.44
210.616
210.773
211.025
211.14
211.178
210.899
211.024
211.492
178.548
169.482
169.362
169.376
202.049
210.841
210.2
209.029
208.303
207.841
207.46
207.136
206.893
206.748
206.695
206.714
206.781
206.883
207.011
207.178
207.248
207.409
207.587
207.76
207.929
208.094
208.258
208.421
208.582
208.741
208.901
209.066
209.236
209.406
209.572
209.732
209.892
210.062
210.248
210.451
210.666
210.884
211.105
211.335
211.593
211.896
212.264
212.697
213.193
213.749
214.4
215.544
190.957
201.392
201.874
202.118
202.839
203.579
204.205
204.744
205.225
205.662
206.061
206.427
206.766
207.083
207.38
207.661
207.928
208.183
208.427
208.663
208.893
209.118
209.34
209.558
209.771
209.969
210.107
210.236
210.343
210.429
210.517
210.509
210.51
210.246
209.79
209.3
210.257
211.171
178.063
168.678
168.505
168.687
202.692
212.279
211.126
209.67
209.017
208.714
208.48
208.264
208.077
207.933
207.833
207.772
207.743
207.747
207.785
207.878
207.888
208.006
208.159
208.323
208.494
208.67
208.851
209.039
209.234
209.431
209.625
209.815
210.008
210.214
210.441
210.683
210.927
211.164
211.396
211.642
211.93
212.28
212.694
213.15
213.609
214.027
214.372
214.637
214.838
215.016
215.247
215.896
190.986
201.433
201.916
202.161
202.884
203.625
204.252
204.79
205.27
205.705
206.101
206.464
206.799
207.11
207.403
207.68
207.943
208.196
208.44
208.678
208.911
209.143
209.375
209.606
209.835
210.048
210.328
210.419
210.388
210.264
209.943
209.621
209.29
208.607
207.639
207.051
208.583
209.55
179.848
172.037
171.841
172.112
204.84
214.085
212.721
212.065
210.87
209.734
208.952
208.441
208.126
207.953
207.889
207.899
207.956
208.044
208.156
208.32
208.413
208.61
208.829
209.046
209.272
209.514
209.762
210.007
210.247
210.489
210.738
211.007
211.289
211.573
211.854
212.145
212.463
212.812
213.169
213.499
213.767
213.959
214.078
214.135
214.141
214.113
214.065
214.013
213.977
213.986
214.085
214.57
191.005
201.46
201.944
202.189
202.914
203.657
204.285
204.826
205.308
205.745
206.142
206.506
206.842
207.154
207.446
207.722
207.985
208.237
208.481
208.719
208.954
209.19
209.427
209.666
209.902
210.115
209.657
209.338
208.844
208.229
208.137
207.646
207.186
206.535
205.706
204.192
201.839
213.901
211.98
209.931
209.048
208.601
208.377
208.257
208.263
208.367
208.539
208.771
209.031
209.313
209.473
209.743
210.05
210.355
210.639
210.91
211.187
211.469
211.737
211.992
212.239
212.463
212.658
212.821
212.952
213.049
213.111
213.14
213.137
213.108
213.058
212.996
212.93
212.865
212.805
212.751
212.707
212.681
212.682
212.729
212.852
213.318
191.009
201.465
201.949
202.195
202.919
203.663
204.292
204.834
205.318
205.756
206.156
206.522
206.86
207.174
207.469
207.748
208.013
208.269
208.517
208.76
209.002
209.246
209.495
209.745
209.992
210.055
211.857
211.194
209.733
208.613
205.76
204.848
204.835
204.965
205.332
204.611
201.354
214.059
212.7
210.863
209.969
209.466
209.137
208.975
208.948
209.027
209.196
209.457
209.724
209.975
210.077
210.257
210.44
210.605
210.755
210.899
211.037
211.168
211.29
211.4
211.495
211.574
211.637
211.686
211.719
211.738
211.743
211.734
211.714
211.686
211.655
211.627
211.604
211.59
211.582
211.58
211.586
211.607
211.653
211.735
211.884
212.352
191.001
201.454
201.937
202.182
202.906
203.649
204.278
204.819
205.302
205.741
206.14
206.507
206.845
207.16
207.455
207.735
208.003
208.261
208.512
208.76
209.008
209.26
209.519
209.78
210.001
209.97
204.822
201.284
199.524
198.792
201.465
202.651
203.37
204.175
205.338
205.305
201.226
214.041
212.819
211.037
210.142
209.598
209.212
208.98
208.883
208.885
208.962
209.139
209.334
209.512
209.543
209.64
209.738
209.822
209.897
209.972
210.048
210.123
210.196
210.264
210.325
210.381
210.431
210.475
210.51
210.536
210.553
210.564
210.569
210.572
210.573
210.576
210.585
210.602
210.627
210.659
210.702
210.76
210.839
210.946
211.109
211.577
190.987
201.434
201.917
202.162
202.885
203.628
204.255
204.796
205.279
205.716
206.115
206.481
206.819
207.134
207.43
207.711
207.979
208.238
208.491
208.741
208.992
209.246
209.506
209.761
209.911
209.972
191.202
184.764
183.654
183.194
197.718
202.155
203.087
203.944
205.376
205.737
201.213
214.058
212.845
210.981
209.999
209.391
208.939
208.642
208.485
208.428
208.474
208.579
208.688
208.805
208.792
208.853
208.92
208.979
209.033
209.088
209.145
209.202
209.261
209.32
209.376
209.43
209.479
209.525
209.567
209.605
209.642
209.676
209.709
209.741
209.775
209.811
209.853
209.902
209.957
210.018
210.089
210.172
210.273
210.394
210.566
211.039
190.975
201.416
201.899
202.144
202.867
203.609
204.236
204.776
205.258
205.694
206.093
206.458
206.795
207.11
207.405
207.685
207.953
208.212
208.464
208.715
208.965
209.218
209.475
209.716
209.797
209.882
180.645
172.148
171.591
171.317
195.005
201.887
202.9
203.638
205.023
205.429
201.362
214.371
213.112
211.303
210.315
209.649
209.12
208.757
208.545
208.445
208.433
208.462
208.509
208.581
208.531
208.558
208.594
208.622
208.646
208.672
208.701
208.733
208.768
208.807
208.847
208.889
208.932
208.975
209.019
209.064
209.109
209.155
209.202
209.25
209.3
209.354
209.413
209.477
209.549
209.626
209.712
209.809
209.92
210.049
210.229
210.714
190.967
201.405
201.888
202.133
202.856
203.598
204.226
204.765
205.247
205.683
206.081
206.445
206.782
207.095
207.389
207.667
207.933
208.189
208.439
208.685
208.932
209.181
209.431
209.655
209.69
209.766
176.438
167.141
166.816
166.677
194.334
202.199
203.068
203.49
204.504
204.56
201.775
215.222
214.001
212.169
211.063
210.276
209.651
209.213