/*--------------------------------*- C++ -*----------------------------------*\
| =========                 |                                                 |
| \\      /  F ield         | OpenFOAM: The Open Source CFD Toolbox           |
|  \\    /   O peration     | Version:  v2012                                 |
|   \\  /    A nd           | Website:  www.openfoam.com                      |
|    \\/     M anipulation  |                                                 |
\*---------------------------------------------------------------------------*/
FoamFile
{
    version     2.0;
    format      ascii;
    class       volScalarField;
    location    "450/air";
    object      ILambda_45_0;
}
// * * * * * * * * * * * * * * * * * * * * * * * * * * * * * * * * * * * * * //

dimensions      [1 0 -3 0 0 0 0];


internalField   nonuniform List<scalar> 
287104
(
166.988
167.009
167.022
167.036
167.049
167.062
167.076
167.089
167.101
167.114
167.126
167.139
167.151
167.163
167.175
167.187
167.199
167.21
167.222
167.234
167.245
167.256
167.268
167.279
167.29
167.301
167.312
167.323
167.334
167.345
167.356
167.367
167.377
167.388
167.398
167.409
167.42
167.43
167.44
167.451
167.461
167.472
167.482
167.493
167.503
167.514
167.524
167.535
167.546
167.557
167.568
167.58
167.591
167.603
167.615
167.628
167.642
167.655
167.67
167.685
167.702
167.72
167.739
167.759
167.782
167.806
167.833
167.863
167.897
167.934
167.975
168.021
168.074
168.134
168.203
168.284
168.38
168.492
168.622
168.775
168.954
169.173
169.458
169.866
170.494
171.492
173.066
175.449
178.846
183.328
166.98
167.001
167.013
167.027
167.04
167.053
167.066
167.079
167.092
167.104
167.116
167.129
167.141
167.153
167.164
167.176
167.188
167.2
167.211
167.223
167.234
167.245
167.257
167.268
167.279
167.29
167.301
167.312
167.323
167.334
167.345
167.356
167.366
167.377
167.388
167.398
167.409
167.419
167.43
167.44
167.451
167.461
167.472
167.482
167.493
167.503
167.514
167.525
167.535
167.547
167.558
167.569
167.581
167.593
167.605
167.618
167.632
167.645
167.66
167.676
167.692
167.71
167.729
167.749
167.771
167.796
167.823
167.852
167.885
167.922
167.963
168.009
168.061
168.12
168.189
168.27
168.364
168.475
168.604
168.755
168.932
169.146
169.425
169.823
170.434
171.406
172.937
175.258
178.567
182.934
166.976
166.996
167.009
167.022
167.035
167.048
167.061
167.073
167.086
167.098
167.11
167.122
167.134
167.146
167.157
167.169
167.181
167.192
167.203
167.215
167.226
167.237
167.249
167.26
167.271
167.282
167.293
167.304
167.315
167.326
167.336
167.347
167.358
167.368
167.379
167.389
167.4
167.41
167.421
167.431
167.441
167.452
167.462
167.473
167.483
167.493
167.504
167.515
167.525
167.536
167.548
167.559
167.57
167.582
167.594
167.607
167.62
167.634
167.648
167.663
167.68
167.697
167.715
167.735
167.757
167.781
167.807
167.835
167.867
167.903
167.942
167.987
168.038
168.096
168.163
168.242
168.335
168.444
168.571
168.72
168.894
169.106
169.38
169.768
170.361
171.303
172.788
175.041
178.264
182.531
166.971
166.991
167.003
167.016
167.029
167.042
167.054
167.067
167.079
167.091
167.103
167.114
167.126
167.138
167.149
167.16
167.172
167.183
167.194
167.206
167.217
167.228
167.239
167.25
167.261
167.272
167.283
167.294
167.305
167.315
167.326
167.337
167.348
167.358
167.369
167.379
167.39
167.4
167.41
167.421
167.431
167.441
167.451
167.462
167.472
167.482
167.493
167.503
167.514
167.525
167.536
167.547
167.559
167.57
167.582
167.595
167.608
167.621
167.635
167.65
167.666
167.683
167.701
167.72
167.741
167.764
167.788
167.816
167.846
167.88
167.917
167.96
168.008
168.063
168.128
168.204
168.293
168.398
168.522
168.667
168.839
169.05
169.328
169.723
170.327
171.276
172.76
174.993
178.166
182.346
166.967
166.986
166.998
167.011
167.024
167.036
167.048
167.06
167.072
167.084
167.095
167.107
167.118
167.13
167.141
167.152
167.163
167.174
167.185
167.196
167.207
167.218
167.229
167.24
167.251
167.262
167.273
167.283
167.294
167.305
167.315
167.326
167.336
167.347
167.357
167.368
167.378
167.388
167.398
167.409
167.419
167.429
167.439
167.449
167.459
167.47
167.48
167.49
167.501
167.511
167.522
167.533
167.544
167.556
167.568
167.58
167.592
167.606
167.619
167.634
167.649
167.665
167.682
167.701
167.721
167.742
167.765
167.791
167.819
167.849
167.884
167.922
167.966
168.017
168.076
168.145
168.228
168.325
168.439
168.572
168.732
168.929
169.194
169.579
170.178
171.127
172.611
174.833
177.968
182.068
166.962
166.981
166.993
167.006
167.018
167.03
167.042
167.054
167.066
167.077
167.089
167.1
167.111
167.122
167.133
167.144
167.155
167.166
167.177
167.187
167.198
167.209
167.219
167.23
167.241
167.251
167.262
167.272
167.283
167.293
167.304
167.314
167.325
167.335
167.345
167.355
167.366
167.376
167.386
167.396
167.406
167.416
167.425
167.435
167.445
167.455
167.465
167.475
167.485
167.495
167.506
167.516
167.527
167.538
167.549
167.561
167.573
167.586
167.599
167.613
167.628
167.644
167.66
167.678
167.697
167.717
167.739
167.762
167.788
167.815
167.845
167.878
167.915
167.957
168.007
168.066
168.137
168.221
168.319
168.433
168.567
168.729
168.946
169.269
169.792
170.657
172.058
174.204
177.272
181.302
166.958
166.977
166.989
167.001
167.013
167.025
167.037
167.049
167.06
167.071
167.082
167.093
167.104
167.115
167.126
167.137
167.147
167.158
167.168
167.179
167.189
167.2
167.21
167.22
167.231
167.241
167.251
167.261
167.272
167.282
167.292
167.302
167.312
167.322
167.332
167.342
167.352
167.362
167.372
167.381
167.391
167.401
167.41
167.42
167.429
167.438
167.448
167.457
167.467
167.476
167.486
167.496
167.506
167.516
167.526
167.537
167.548
167.56
167.573
167.586
167.6
167.616
167.632
167.65
167.669
167.689
167.711
167.734
167.759
167.786
167.813
167.842
167.874
167.907
167.945
167.99
168.043
168.106
168.183
168.272
168.374
168.494
168.646
168.868
169.24
169.894
171.029
172.887
175.7
179.581
166.955
166.973
166.985
166.997
167.009
167.021
167.032
167.044
167.055
167.066
167.077
167.087
167.098
167.109
167.119
167.13
167.14
167.15
167.16
167.17
167.181
167.191
167.201
167.211
167.221
167.231
167.241
167.251
167.261
167.271
167.281
167.291
167.301
167.311
167.32
167.33
167.34
167.349
167.359
167.368
167.377
167.386
167.395
167.404
167.413
167.422
167.43
167.439
167.448
167.456
167.465
167.474
167.483
167.492
167.502
167.512
167.522
167.533
167.545
167.557
167.571
167.586
167.603
167.622
167.643
167.667
167.693
167.722
167.754
167.788
167.825
167.863
167.903
167.943
167.983
168.023
168.065
168.109
168.158
168.213
168.276
168.35
168.444
168.582
168.82
169.256
170.049
171.415
173.596
176.772
166.951
166.97
166.981
166.993
167.005
167.016
167.028
167.039
167.05
167.061
167.072
167.082
167.093
167.103
167.114
167.124
167.135
167.145
167.155
167.165
167.176
167.186
167.196
167.206
167.217
167.227
167.237
167.247
167.258
167.268
167.278
167.288
167.299
167.309
167.319
167.329
167.339
167.349
167.359
167.368
167.378
167.387
167.397
167.406
167.415
167.424
167.433
167.442
167.451
167.46
167.469
167.478
167.487
167.496
167.506
167.516
167.526
167.538
167.55
167.564
167.579
167.596
167.615
167.638
167.664
167.695
167.731
167.773
167.823
167.88
167.947
168.021
168.104
168.192
168.284
168.375
168.461
168.537
168.6
168.644
168.67
168.681
168.692
168.73
168.851
169.139
169.725
170.78
172.49
175.001
166.948
166.966
166.977
166.989
167.001
167.013
167.024
167.035
167.047
167.058
167.07
167.082
167.093
167.105
167.117
167.129
167.141
167.153
167.165
167.177
167.189
167.201
167.213
167.225
167.237
167.249
167.261
167.273
167.286
167.298
167.31
167.323
167.335
167.348
167.361
167.373
167.386
167.399
167.412
167.425
167.437
167.45
167.462
167.475
167.487
167.5
167.512
167.525
167.537
167.549
167.562
167.574
167.587
167.599
167.613
167.626
167.64
167.655
167.671
167.688
167.707
167.728
167.752
167.779
167.812
167.85
167.897
167.953
168.022
168.108
168.212
168.34
168.493
168.672
168.878
169.105
169.344
169.581
169.798
169.973
170.085
170.12
170.081
169.997
169.937
170.014
170.387
171.243
172.767
175.074
166.946
166.963
166.974
166.986
166.998
167.009
167.02
167.032
167.045
167.06
167.076
167.093
167.11
167.127
167.143
167.16
167.176
167.192
167.208
167.224
167.239
167.254
167.269
167.284
167.299
167.313
167.328
167.342
167.356
167.371
167.385
167.4
167.415
167.429
167.444
167.459
167.475
167.49
167.506
167.522
167.537
167.554
167.57
167.586
167.603
167.619
167.636
167.653
167.67
167.688
167.705
167.723
167.741
167.76
167.779
167.799
167.819
167.84
167.863
167.886
167.912
167.94
167.97
168.004
168.043
168.088
168.141
168.205
168.283
168.381
168.504
168.661
168.859
169.108
169.415
169.784
170.214
170.695
171.205
171.709
172.163
172.517
172.729
172.785
172.723
172.658
172.785
173.363
174.664
176.878
166.943
166.961
166.971
166.983
166.995
167.006
167.017
167.029
167.042
167.056
167.072
167.089
167.105
167.122
167.138
167.155
167.171
167.187
167.203
167.218
167.233
167.248
167.263
167.277
167.292
167.306
167.32
167.334
167.347
167.361
167.375
167.389
167.403
167.417
167.431
167.445
167.46
167.475
167.49
167.505
167.52
167.536
167.552
167.568
167.585
167.601
167.619
167.637
167.655
167.674
167.693
167.713
167.734
167.755
167.778
167.801
167.826
167.851
167.879
167.908
167.939
167.972
168.008
168.047
168.091
168.139
168.194
168.257
168.331
168.419
168.527
168.663
168.836
169.057
169.341
169.703
170.154
170.704
171.353
172.089
172.883
173.689
174.45
175.11
175.64
176.071
176.517
177.181
178.322
180.166
166.941
166.958
166.969
166.98
166.992
167.003
167.014
167.026
167.038
167.052
167.068
167.085
167.101
167.117
167.134
167.15
167.166
167.181
167.197
167.212
167.226
167.241
167.255
167.269
167.282
167.295
167.309
167.321
167.334
167.347
167.36
167.372
167.385
167.398
167.41
167.423
167.436
167.449
167.462
167.475
167.488
167.502
167.515
167.529
167.542
167.556
167.57
167.583
167.598
167.612
167.626
167.641
167.656
167.672
167.688
167.704
167.722
167.74
167.76
167.78
167.803
167.827
167.854
167.884
167.917
167.954
167.996
168.043
168.098
168.16
168.233
168.32
168.426
168.556
168.721
168.929
169.197
169.536
169.964
170.493
171.133
171.889
172.758
173.735
174.819
176.022
177.386
178.982
180.898
183.198
166.939
166.956
166.966
166.978
166.989
167
167.011
167.023
167.035
167.049
167.065
167.081
167.097
167.113
167.129
167.145
167.161
167.176
167.191
167.206
167.221
167.235
167.249
167.262
167.275
167.288
167.301
167.314
167.326
167.339
167.351
167.363
167.375
167.388
167.4
167.413
167.425
167.438
167.45
167.463
167.476
167.488
167.501
167.514
167.527
167.54
167.553
167.566
167.58
167.593
167.606
167.62
167.634
167.647
167.662
167.676
167.691
167.707
167.723
167.74
167.758
167.778
167.799
167.823
167.849
167.878
167.911
167.948
167.991
168.039
168.095
168.158
168.231
168.316
168.416
168.533
168.674
168.844
169.051
169.302
169.61
169.987
170.453
171.034
171.771
172.724
173.972
175.613
177.741
180.409
166.937
166.954
166.964
166.976
166.986
166.997
167.008
167.02
167.032
167.046
167.061
167.077
167.093
167.109
167.125
167.141
167.156
167.171
167.186
167.201
167.215
167.229
167.243
167.256
167.269
167.282
167.294
167.307
167.319
167.331
167.343
167.356
167.368
167.38
167.392
167.404
167.417
167.429
167.442
167.454
167.467
167.48
167.493
167.506
167.519
167.532
167.545
167.559
167.572
167.586
167.6
167.614
167.629
167.644
167.659
167.674
167.691
167.707
167.725
167.744
167.764
167.786
167.809
167.835
167.864
167.896
167.933
167.975
168.024
168.081
168.148
168.227
168.322
168.437
168.575
168.742
168.944
169.185
169.47
169.805
170.193
170.638
171.146
171.727
172.404
173.218
174.233
175.527
177.177
179.23
166.935
166.952
166.962
166.973
166.984
166.995
167.006
167.017
167.029
167.043
167.058
167.074
167.089
167.105
167.121
167.136
167.151
167.166
167.181
167.196
167.21
167.224
167.237
167.25
167.263
167.276
167.288
167.301
167.313
167.325
167.337
167.349
167.361
167.373
167.385
167.397
167.41
167.422
167.434
167.447
167.46
167.472
167.485
167.498
167.512
167.525
167.539
167.553
167.567
167.581
167.596
167.611
167.626
167.642
167.658
167.675
167.693
167.711
167.73
167.751
167.773
167.797
167.822
167.851
167.882
167.917
167.957
168.003
168.056
168.118
168.193
168.284
168.397
168.537
168.713
168.934
169.21
169.551
169.966
170.463
171.045
171.715
172.469
173.311
174.251
175.322
176.58
178.108
179.99
182.27
166.934
166.95
166.96
166.971
166.982
166.992
167.003
167.014
167.026
167.04
167.055
167.07
167.086
167.101
167.117
167.132
167.147
167.162
167.176
167.191
167.205
167.218
167.232
167.245
167.257
167.27
167.282
167.294
167.306
167.318
167.33
167.341
167.353
167.365
167.376
167.388
167.4
167.412
167.424
167.436
167.448
167.46
167.473
167.486
167.498
167.512
167.525
167.539
167.553
167.567
167.582
167.597
167.612
167.628
167.644
167.661
167.679
167.698
167.718
167.738
167.76
167.784
167.81
167.838
167.868
167.902
167.939
167.982
168.031
168.088
168.155
168.237
168.339
168.467
168.632
168.843
169.115
169.46
169.891
170.419
171.048
171.778
172.603
173.518
174.521
175.627
176.878
178.341
180.099
182.216
166.932
166.948
166.958
166.969
166.98
166.99
167.001
167.012
167.023
167.037
167.052
167.067
167.082
167.097
167.113
167.128
167.143
167.157
167.171
167.186
167.199
167.213
167.225
167.238
167.25
167.262
167.274
167.285
167.296
167.307
167.318
167.329
167.339
167.349
167.36
167.37
167.38
167.391
167.401
167.412
167.423
167.434
167.445
167.456
167.468
167.48
167.492
167.504
167.517
167.53
167.543
167.557
167.571
167.585
167.599
167.615
167.63
167.647
167.664
167.682
167.701
167.721
167.742
167.765
167.789
167.816
167.846
167.878
167.914
167.955
168.002
168.058
168.125
168.207
168.312
168.446
168.618
168.839
169.118
169.462
169.875
170.358
170.909
171.528
172.23
173.052
174.071
175.403
177.187
179.527
166.931
166.947
166.957
166.967
166.978
166.988
166.998
167.009
167.021
167.034
167.048
167.063
167.078
167.093
167.108
167.123
167.137
167.151
167.165
167.178
167.191
167.203
167.215
167.226
167.237
167.247
167.257
167.267
167.276
167.285
167.294
167.303
167.311
167.32
167.328
167.336
167.345
167.353
167.362
167.371
167.38
167.389
167.399
167.408
167.418
167.428
167.439
167.449
167.46
167.471
167.482
167.493
167.505
167.516
167.528
167.54
167.553
167.566
167.579
167.593
167.607
167.622
167.639
167.656
167.674
167.693
167.715
167.738
167.763
167.791
167.823
167.858
167.898
167.946
168.002
168.072
168.157
168.263
168.393
168.549
168.736
168.957
169.221
169.55
169.985
170.603
171.514
172.851
174.743
177.26
166.929
166.945
166.955
166.965
166.976
166.986
166.996
167.006
167.017
167.029
167.043
167.057
167.071
167.085
167.098
167.111
167.124
167.136
167.147
167.158
167.169
167.178
167.188
167.197
167.205
167.214
167.222
167.229
167.237
167.244
167.252
167.259
167.266
167.273
167.28
167.288
167.295
167.302
167.31
167.317
167.325
167.333
167.342
167.35
167.359
167.368
167.377
167.386
167.396
167.405
167.414
167.423
167.433
167.442
167.452
167.461
167.471
167.481
167.492
167.502
167.514
167.526
167.54
167.554
167.569
167.586
167.604
167.624
167.645
167.668
167.694
167.722
167.754
167.789
167.83
167.877
167.933
167.997
168.071
168.154
168.246
168.349
168.472
168.637
168.894
169.328
170.066
171.265
173.077
175.585
166.928
166.943
166.953
166.964
166.974
166.984
166.994
167.003
167.013
167.022
167.031
167.04
167.049
167.058
167.067
167.076
167.084
167.093
167.102
167.111
167.119
167.128
167.136
167.145
167.153
167.161
167.169
167.177
167.185
167.193
167.201
167.209
167.216
167.224
167.231
167.239
167.246
167.253
167.26
167.267
167.274
167.281
167.288
167.295
167.302
167.309
167.315
167.322
167.329
167.337
167.344
167.351
167.359
167.367
167.375
167.384
167.393
167.403
167.414
167.425
167.437
167.45
167.465
167.481
167.498
167.516
167.537
167.559
167.583
167.608
167.636
167.666
167.699
167.735
167.774
167.819
167.87
167.928
167.992
168.064
168.141
168.223
168.318
168.445
168.648
169.004
169.635
170.695
172.354
174.722
166.927
166.942
166.951
166.962
166.972
166.982
166.992
167.001
167.011
167.02
167.03
167.039
167.048
167.056
167.065
167.073
167.082
167.09
167.098
167.107
167.115
167.123
167.132
167.14
167.149
167.157
167.165
167.174
167.182
167.19
167.198
167.206
167.213
167.221
167.228
167.236
167.243
167.25
167.257
167.264
167.271
167.277
167.284
167.291
167.297
167.304
167.311
167.318
167.324
167.332
167.339
167.346
167.354
167.363
167.372
167.381
167.391
167.402
167.414
167.427
167.441
167.456
167.473
167.491
167.512
167.534
167.558
167.585
167.614
167.645
167.679
167.715
167.755
167.798
167.844
167.896
167.954
168.018
168.09
168.168
168.252
168.344
168.453
168.602
168.835
169.235
169.92
171.038
172.742
175.121
166.925
166.94
166.949
166.96
166.97
166.979
166.989
166.999
167.009
167.019
167.029
167.038
167.048
167.057
167.066
167.074
167.082
167.09
167.098
167.105
167.113
167.121
167.129
167.137
167.145
167.153
167.162
167.171
167.179
167.188
167.197
167.205
167.214
167.222
167.229
167.237
167.244
167.251
167.258
167.265
167.272
167.279
167.286
167.293
167.3
167.307
167.314
167.321
167.328
167.336
167.344
167.352
167.361
167.37
167.381
167.391
167.403
167.416
167.429
167.444
167.461
167.479
167.498
167.52
167.544
167.571
167.6
167.632
167.668
167.706
167.748
167.794
167.844
167.899
167.958
168.024
168.097
168.177
168.266
168.363
168.468
168.584
168.723
168.912
169.207
169.702
170.535
171.879
173.906
176.714
166.924
166.939
166.948
166.958
166.967
166.977
166.986
166.996
167.005
167.015
167.025
167.035
167.045
167.055
167.065
167.075
167.084
167.093
167.101
167.108
167.115
167.122
167.129
167.135
167.142
167.149
167.156
167.164
167.172
167.181
167.19
167.2
167.21
167.219
167.229
167.237
167.245
167.253
167.26
167.267
167.274
167.281
167.287
167.294
167.3
167.307
167.314
167.32
167.328
167.335
167.343
167.351
167.359
167.369
167.378
167.389
167.401
167.414
167.428
167.443
167.461
167.48
167.501
167.524
167.55
167.579
167.611
167.647
167.686
167.729
167.778
167.83
167.889
167.953
168.024
168.102
168.189
168.286
168.392
168.509
168.637
168.778
168.944
169.161
169.481
169.994
170.832
172.161
174.148
176.893
166.923
166.938
166.948
166.957
166.967
166.975
166.983
166.991
166.999
167.006
167.014
167.022
167.031
167.041
167.051
167.062
167.074
167.085
167.096
167.107
167.117
167.126
167.134
167.141
167.148
167.153
167.158
167.163
167.167
167.172
167.178
167.186
167.195
167.207
167.219
167.231
167.243
167.254
167.262
167.269
167.276
167.281
167.287
167.293
167.298
167.303
167.309
167.314
167.32
167.326
167.332
167.338
167.345
167.353
167.361
167.37
167.381
167.392
167.405
167.419
167.436
167.454
167.474
167.498
167.524
167.553
167.585
167.622
167.663
167.708
167.759
167.815
167.877
167.946
168.023
168.108
168.203
168.309
168.427
168.556
168.696
168.851
169.026
169.243
169.544
170
170.724
171.86
173.561
175.93
166.924
166.939
166.948
166.958
166.968
166.976
166.983
166.989
166.993
166.997
166.999
167.002
167.005
167.009
167.015
167.023
167.033
167.046
167.061
167.077
167.095
167.113
167.13
167.147
167.162
167.175
167.185
167.193
167.198
167.201
167.202
167.201
167.202
167.205
167.211
167.221
167.235
167.248
167.259
167.267
167.272
167.275
167.278
167.281
167.284
167.287
167.289
167.292
167.296
167.299
167.303
167.307
167.312
167.318
167.325
167.332
167.341
167.351
167.363
167.377
167.392
167.41
167.43
167.452
167.478
167.507
167.54
167.576
167.617
167.663
167.714
167.771
167.833
167.903
167.981
168.067
168.164
168.271
168.39
168.521
168.663
168.817
168.989
169.193
169.461
169.851
170.455
171.394
172.799
174.767
166.926
166.94
166.948
166.955
166.962
166.967
166.972
166.975
166.976
166.976
166.974
166.972
166.968
166.965
166.962
166.963
166.966
166.974
166.986
167.003
167.025
167.052
167.082
167.115
167.151
167.187
167.224
167.26
167.292
167.32
167.339
167.348
167.346
167.333
167.313
167.29
167.27
167.257
167.252
167.252
167.253
167.254
167.254
167.255
167.256
167.257
167.259
167.261
167.263
167.266
167.269
167.272
167.277
167.282
167.288
167.295
167.303
167.313
167.324
167.337
167.352
167.369
167.389
167.411
167.436
167.465
167.497
167.533
167.573
167.618
167.668
167.724
167.785
167.853
167.929
168.013
168.106
168.21
168.324
168.45
168.587
168.734
168.897
169.085
169.327
169.671
170.195
171.004
172.216
173.918
166.931
166.941
166.942
166.941
166.936
166.928
166.917
166.905
166.894
166.883
166.873
166.865
166.86
166.857
166.856
166.858
166.862
166.87
166.882
166.899
166.92
166.948
166.982
167.023
167.073
167.131
167.199
167.276
167.362
167.451
167.538
167.611
167.659
167.671
167.64
167.567
167.467
167.361
167.275
167.227
167.214
167.221
167.226
167.226
167.228
167.23
167.233
167.236
167.238
167.242
167.245
167.249
167.253
167.258
167.263
167.27
167.278
167.287
167.297
167.31
167.324
167.34
167.359
167.381
167.406
167.434
167.465
167.501
167.541
167.585
167.634
167.688
167.748
167.814
167.886
167.967
168.056
168.155
168.264
168.383
168.511
168.649
168.799
168.972
169.191
169.5
169.97
170.696
171.786
173.318
166.931
166.941
166.938
166.927
166.906
166.873
166.83
166.78
166.727
166.673
166.625
166.585
166.558
166.544
166.544
166.558
166.583
166.617
166.658
166.702
166.749
166.796
166.844
166.894
166.948
167.011
167.085
167.175
167.283
167.408
167.543
167.676
167.79
167.862
167.871
167.805
167.668
167.488
167.311
167.193
167.155
167.178
167.206
167.204
167.208
167.213
167.217
167.221
167.225
167.229
167.232
167.236
167.241
167.245
167.251
167.257
167.264
167.273
167.283
167.295
167.309
167.326
167.344
167.366
167.391
167.419
167.451
167.487
167.527
167.572
167.621
167.676
167.735
167.801
167.873
167.953
168.04
168.136
168.241
168.354
168.476
168.605
168.745
168.903
169.101
169.379
169.804
170.466
171.466
172.881
166.913
166.938
166.95
166.956
166.949
166.923
166.876
166.806
166.714
166.605
166.485
166.365
166.254
166.162
166.096
166.061
166.058
166.088
166.145
166.225
166.319
166.422
166.527
166.631
166.731
166.829
166.927
167.029
167.137
167.253
167.372
167.484
167.575
167.628
167.628
167.572
167.47
167.348
167.241
167.178
167.158
167.171
167.19
167.194
167.2
167.207
167.212
167.218
167.223
167.228
167.232
167.237
167.242
167.247
167.253
167.259
167.267
167.276
167.286
167.299
167.313
167.33
167.35
167.373
167.399
167.429
167.463
167.501
167.543
167.591
167.643
167.701
167.764
167.834
167.91
167.993
168.084
168.183
168.291
168.406
168.527
168.654
168.788
168.935
169.116
169.367
169.753
170.36
171.289
172.617
166.868
166.916
166.97
167.04
167.12
167.199
167.268
167.312
167.322
167.288
167.206
167.077
166.91
166.716
166.511
166.312
166.134
165.991
165.891
165.84
165.837
165.879
165.959
166.07
166.204
166.354
166.516
166.684
166.857
167.031
167.2
167.353
167.476
167.554
167.574
167.534
167.449
167.345
167.256
167.204
167.182
167.186
167.199
167.206
167.214
167.221
167.228
167.235
167.241
167.247
167.252
167.258
167.263
167.269
167.276
167.283
167.292
167.301
167.313
167.326
167.342
167.36
167.382
167.407
167.436
167.468
167.506
167.548
167.595
167.648
167.707
167.772
167.844
167.923
168.009
168.104
168.208
168.322
168.444
168.575
168.712
168.854
168.999
169.153
169.332
169.567
169.919
170.473
171.333
172.586
166.82
166.862
166.945
167.079
167.273
167.524
167.824
168.157
168.497
168.816
169.082
169.267
169.352
169.324
169.183
168.939
168.613
168.23
167.818
167.406
167.018
166.676
166.395
166.183
166.046
165.981
165.986
166.054
166.175
166.338
166.531
166.736
166.934
167.104
167.226
167.291
167.304
167.286
167.265
167.256
167.249
167.249
167.25
167.246
167.253
167.262
167.268
167.275
167.281
167.288
167.294
167.3
167.307
167.314
167.321
167.329
167.339
167.35
167.363
167.378
167.395
167.415
167.439
167.467
167.499
167.536
167.578
167.625
167.679
167.74
167.807
167.882
167.966
168.059
168.161
168.275
168.4
168.538
168.69
168.854
169.03
169.215
169.409
169.614
169.841
170.116
170.485
171.012
171.782
172.885
166.816
166.8
166.842
166.942
167.132
167.429
167.85
168.393
169.047
169.784
170.561
171.326
172.025
172.605
173.023
173.251
173.276
173.104
172.753
172.253
171.64
170.954
170.23
169.504
168.805
168.158
167.582
167.094
166.705
166.42
166.243
166.168
166.184
166.275
166.414
166.57
166.711
166.823
166.932
167.06
167.183
167.281
167.335
167.334
167.323
167.33
167.335
167.34
167.345
167.35
167.355
167.361
167.368
167.375
167.382
167.391
167.402
167.414
167.427
167.443
167.462
167.484
167.51
167.54
167.575
167.615
167.661
167.713
167.772
167.839
167.915
167.999
168.093
168.198
168.315
168.445
168.59
168.751
168.93
169.129
169.346
169.585
169.846
170.136
170.471
170.876
171.389
172.052
172.883
173.846
166.871
166.79
166.738
166.703
166.717
166.813
167.025
167.383
167.907
168.602
169.457
170.441
171.504
172.59
173.636
174.581
175.377
175.988
176.397
176.597
176.596
176.41
176.056
175.554
174.924
174.185
173.357
172.463
171.528
170.581
169.658
168.794
168.03
167.406
166.962
166.726
166.693
166.757
166.651
166.476
166.476
166.626
166.954
167.339
167.453
167.398
167.419
167.417
167.42
167.423
167.426
167.43
167.435
167.44
167.447
167.455
167.465
167.477
167.49
167.506
167.525
167.547
167.573
167.604
167.639
167.679
167.726
167.78
167.84
167.909
167.986
168.073
168.169
168.276
168.395
168.528
168.674
168.837
169.017
169.215
169.434
169.677
169.948
170.262
170.642
171.129
171.783
172.681
173.9
175.437
166.919
166.839
166.743
166.614
166.464
166.31
166.182
166.11
166.132
166.279
166.576
167.037
167.661
168.429
169.314
170.276
171.277
172.279
173.251
174.169
175.018
175.785
176.461
177.035
177.493
177.818
177.994
178.001
177.821
177.44
176.849
176.041
175.017
173.776
172.335
170.768
169.405
169.523
169.833
168.869
167.819
166.584
165.571
166.466
167.641
167.472
167.49
167.49
167.489
167.49
167.49
167.491
167.494
167.497
167.502
167.508
167.516
167.525
167.537
167.551
167.568
167.588
167.612
167.64
167.672
167.71
167.753
167.802
167.858
167.921
167.992
168.071
168.158
168.255
168.361
168.477
168.604
168.743
168.892
169.053
169.226
169.409
169.61
169.837
170.117
170.496
171.051
171.898
173.175
174.995
166.886
166.858
166.807
166.721
166.594
166.425
166.217
165.982
165.737
165.504
165.309
165.176
165.128
165.178
165.333
165.593
165.95
166.394
166.914
167.503
168.153
168.861
169.625
170.44
171.301
172.2
173.13
174.08
175.042
176.008
176.971
177.93
178.891
179.857
180.802
181.546
181.279
176.66
173.423
174.792
175.641
176.65
176.514
170.996
166.831
167.727
167.526
167.562
167.547
167.544
167.54
167.537
167.536
167.535
167.537
167.54
167.544
167.551
167.559
167.57
167.583
167.599
167.618
167.641
167.668
167.699
167.735
167.776
167.822
167.875
167.933
167.998
168.07
168.148
168.233
168.325
168.424
168.531
168.644
168.764
168.889
169.021
169.163
169.325
169.531
169.826
170.283
171.009
172.137
173.788
166.792
166.784
166.783
166.775
166.76
166.731
166.683
166.614
166.522
166.409
166.28
166.143
166.007
165.883
165.778
165.698
165.645
165.618
165.615
165.634
165.673
165.731
165.811
165.912
166.035
166.177
166.331
166.495
166.669
166.857
167.067
167.31
167.597
167.944
168.364
168.859
167.6
167.546
167.546
167.535
167.531
167.527
167.524
167.521
167.52
167.518
167.518
167.519
167.521
167.524
167.529
167.536
167.545
167.556
167.57
167.586
167.606
167.629
167.655
167.686
167.721
167.761
167.806
167.856
167.912
167.974
168.042
168.116
168.197
168.284
168.379
168.48
168.586
168.698
168.819
168.958
169.136
169.394
169.801
170.453
171.47
172.959
166.729
166.687
166.675
166.667
166.673
166.693
166.724
166.766
166.814
166.866
166.917
166.967
167.016
167.066
167.12
167.18
167.248
167.323
167.404
167.484
167.559
167.627
167.69
167.756
167.835
167.935
168.055
168.185
168.305
168.397
168.458
168.508
168.572
168.667
168.805
168.98
167.488
167.46
167.453
167.445
167.44
167.435
167.432
167.428
167.425
167.422
167.42
167.419
167.419
167.42
167.423
167.427
167.434
167.443
167.454
167.468
167.485
167.505
167.529
167.557
167.588
167.624
167.665
167.71
167.76
167.815
167.876
167.943
168.016
168.095
168.182
168.275
168.375
168.48
168.594
168.724
168.89
169.131
169.511
170.12
171.067
172.452
166.754
166.675
166.625
166.57
166.524
166.489
166.469
166.467
166.482
166.512
166.552
166.601
166.656
166.716
166.783
166.859
166.947
167.045
167.148
167.247
167.33
167.386
167.413
167.418
167.423
167.46
167.557
167.723
167.93
168.131
168.283
168.394
168.517
168.665
168.848
169.057
167.406
167.374
167.365
167.355
167.348
167.342
167.338
167.334
167.331
167.329
167.329
167.329
167.331
167.333
167.337
167.343
167.35
167.36
167.371
167.386
167.402
167.422
167.445
167.471
167.5
167.534
167.571
167.613
167.66
167.711
167.767
167.829
167.898
167.973
168.055
168.145
168.241
168.342
168.453
168.578
168.739
168.971
169.336
169.919
170.819
172.121
166.84
166.762
166.694
166.608
166.517
166.426
166.345
166.28
166.238
166.222
166.231
166.264
166.317
166.386
166.468
166.561
166.663
166.77
166.875
166.967
167.034
167.067
167.066
167.049
167.046
167.096
167.225
167.429
167.662
167.884
168.074
168.245
168.427
168.627
168.852
169.081
167.347
167.314
167.305
167.295
167.288
167.282
167.278
167.275
167.273
167.272
167.273
167.274
167.277
167.28
167.285
167.292
167.3
167.31
167.322
167.336
167.353
167.373
167.395
167.421
167.45
167.482
167.519
167.559
167.604
167.654
167.708
167.768
167.835
167.908
167.989
168.076
168.17
168.27
168.378
168.501
168.658
168.886
169.244
169.814
170.691
171.949
166.915
166.873
166.82
166.742
166.644
166.531
166.409
166.291
166.185
166.103
166.052
166.037
166.059
166.114
166.199
166.307
166.432
166.566
166.698
166.815
166.901
166.944
166.942
166.909
166.88
166.899
166.997
167.174
167.385
167.598
167.804
168.011
168.236
168.476
168.727
168.965
167.308
167.275
167.266
167.256
167.248
167.243
167.239
167.236
167.235
167.235
167.237
167.239
167.243
167.247
167.254
167.261
167.27
167.282
167.295
167.31
167.328
167.349
167.372
167.399
167.429
167.463
167.501
167.542
167.588
167.638
167.693
167.754
167.821
167.894
167.974
168.061
168.153
168.252
168.358
168.479
168.635
168.862
169.22
169.789
170.659
171.901
166.933
166.935
166.92
166.889
166.839
166.768
166.678
166.573
166.461
166.351
166.252
166.175
166.127
166.111
166.13
166.181
166.26
166.362
166.478
166.598
166.71
166.798
166.854
166.878
166.886
166.907
166.973
167.096
167.256
167.438
167.635
167.846
168.074
168.313
168.553
168.778
167.288
167.251
167.241