/*--------------------------------*- C++ -*----------------------------------*\
| =========                 |                                                 |
| \\      /  F ield         | OpenFOAM: The Open Source CFD Toolbox           |
|  \\    /   O peration     | Version:  v2012                                 |
|   \\  /    A nd           | Website:  www.openfoam.com                      |
|    \\/     M anipulation  |                                                 |
\*---------------------------------------------------------------------------*/
FoamFile
{
    version     2.0;
    format      ascii;
    class       volScalarField;
    location    "450/air";
    object      ILambda_1_0;
}
// * * * * * * * * * * * * * * * * * * * * * * * * * * * * * * * * * * * * * //

dimensions      [1 0 -3 0 0 0 0];


internalField   nonuniform List<scalar> 
287104
(
208.897
213.118
214.13
215.433
216.593
217.61
218.509
219.31
220.028
220.676
221.265
221.804
222.301
222.76
223.186
223.584
223.956
224.305
224.634
224.945
225.24
225.52
225.787
226.042
226.287
226.522
226.748
226.965
227.175
227.379
227.576
227.767
227.953
228.133
228.309
228.481
228.648
228.813
228.974
229.132
229.286
229.437
229.586
229.733
229.878
230.02
230.16
230.298
230.434
230.569
230.702
230.833
230.962
231.09
231.217
231.342
231.465
231.587
231.708
231.827
231.946
232.062
232.178
232.292
232.404
232.515
232.625
232.733
232.839
232.945
233.049
233.152
233.255
233.356
233.457
233.554
233.648
233.738
233.827
233.919
234.019
234.129
234.245
234.362
234.479
234.6
234.73
234.896
235.231
236.447
217.312
222.457
223.431
224.849
226.104
227.192
228.148
228.993
229.744
230.416
231.021
231.572
232.074
232.535
232.959
233.351
233.715
234.054
234.37
234.667
234.946
235.209
235.458
235.694
235.918
236.132
236.336
236.531
236.718
236.898
237.071
237.238
237.399
237.555
237.705
237.85
237.992
238.132
238.268
238.4
238.528
238.652
238.775
238.898
239.018
239.134
239.249
239.362
239.474
239.583
239.692
239.799
239.905
240.009
240.112
240.214
240.314
240.414
240.512
240.609
240.705
240.8
240.894
240.987
241.079
241.169
241.258
241.346
241.433
241.519
241.603
241.688
241.771
241.854
241.935
242.014
242.089
242.16
242.23
242.304
242.387
242.48
242.581
242.685
242.79
242.899
243.018
243.186
243.6
245.205
215.141
219.955
220.902
222.267
223.47
224.513
225.429
226.238
226.958
227.602
228.182
228.709
229.189
229.63
230.036
230.411
230.759
231.083
231.385
231.669
231.935
232.186
232.423
232.648
232.862
233.066
233.26
233.446
233.623
233.794
233.958
234.117
234.269
234.417
234.559
234.695
234.829
234.962
235.091
235.215
235.336
235.452
235.567
235.683
235.796
235.906
236.013
236.119
236.224
236.327
236.428
236.528
236.627
236.725
236.821
236.916
237.01
237.103
237.194
237.285
237.374
237.463
237.55
237.636
237.722
237.805
237.888
237.969
238.049
238.129
238.207
238.284
238.361
238.438
238.512
238.585
238.653
238.718
238.783
238.85
238.926
239.012
239.105
239.202
239.3
239.402
239.516
239.682
240.106
241.689
213.989
218.676
219.612
220.948
222.127
223.149
224.046
224.84
225.545
226.176
226.745
227.262
227.733
228.165
228.563
228.931
229.272
229.59
229.886
230.164
230.425
230.671
230.904
231.124
231.334
231.533
231.724
231.905
232.079
232.246
232.407
232.562
232.711
232.855
232.993
233.126
233.256
233.386
233.512
233.633
233.75
233.862
233.973
234.087
234.198
234.304
234.408
234.511
234.613
234.713
234.811
234.908
235.004
235.099
235.192
235.284
235.376
235.466
235.554
235.642
235.729
235.815
235.9
235.983
236.066
236.147
236.227
236.306
236.384
236.461
236.537
236.612
236.687
236.761
236.833
236.904
236.971
237.034
237.097
237.164
237.239
237.324
237.416
237.513
237.611
237.714
237.829
237.999
238.426
239.981
213.267
217.898
218.82
220.136
221.297
222.304
223.189
223.97
224.665
225.287
225.848
226.356
226.821
227.247
227.638
228
228.336
228.649
228.94
229.214
229.471
229.713
229.942
230.159
230.365
230.561
230.748
230.926
231.097
231.261
231.418
231.57
231.716
231.857
231.992
232.121
232.247
232.374
232.498
232.615
232.729
232.838
232.946
233.056
233.164
233.267
233.368
233.468
233.566
233.663
233.759
233.853
233.945
234.037
234.127
234.216
234.304
234.391
234.477
234.562
234.646
234.729
234.811
234.892
234.971
235.05
235.127
235.203
235.278
235.352
235.426
235.498
235.571
235.642
235.713
235.781
235.846
235.908
235.969
236.034
236.108
236.192
236.283
236.378
236.476
236.579
236.694
236.862
237.281
238.807
212.551
217.113
218.02
219.316
220.459
221.451
222.322
223.092
223.777
224.389
224.941
225.442
225.899
226.318
226.703
227.06
227.39
227.698
227.985
228.254
228.507
228.745
228.971
229.184
229.386
229.579
229.763
229.939
230.107
230.267
230.422
230.57
230.712
230.85
230.983
231.109
231.232
231.354
231.474
231.587
231.698
231.805
231.908
232.014
232.118
232.217
232.314
232.41
232.504
232.596
232.687
232.777
232.865
232.952
233.038
233.122
233.206
233.288
233.369
233.449
233.528
233.605
233.682
233.757
233.831
233.904
233.976
234.046
234.115
234.183
234.249
234.315
234.381
234.445
234.508
234.569
234.626
234.68
234.734
234.79
234.855
234.929
235.01
235.093
235.179
235.27
235.373
235.521
235.897
237.328
211.831
216.318
217.212
218.489
219.615
220.591
221.449
222.208
222.882
223.484
224.027
224.519
224.969
225.382
225.761
226.112
226.438
226.741
227.024
227.29
227.539
227.774
227.996
228.206
228.405
228.594
228.775
228.947
229.112
229.27
229.421
229.566
229.705
229.838
229.967
230.092
230.211
230.326
230.438
230.547
230.653
230.756
230.855
230.952
231.047
231.139
231.228
231.316
231.401
231.485
231.566
231.646
231.724
231.801
231.877
231.951
232.024
232.095
232.165
232.234
232.301
232.367
232.432
232.495
232.556
232.616
232.675
232.731
232.786
232.84
232.891
232.942
232.991
233.038
233.083
233.126
233.164
233.198
233.231
233.266
233.307
233.357
233.412
233.47
233.53
233.596
233.674
233.789
234.091
235.318
211.123
215.538
216.419
217.676
218.785
219.747
220.592
221.339
222.002
222.594
223.123
223.604
224.044
224.45
224.824
225.171
225.492
225.792
226.073
226.336
226.583
226.816
227.036
227.243
227.44
227.627
227.804
227.974
228.136
228.29
228.437
228.578
228.711
228.838
228.962
229.082
229.194
229.295
229.393
229.49
229.585
229.68
229.769
229.848
229.925
230.004
230.08
230.153
230.224
230.292
230.357
230.421
230.482
230.541
230.599
230.654
230.707
230.758
230.807
230.853
230.898
230.941
230.981
231.02
231.056
231.09
231.122
231.152
231.179
231.205
231.228
231.25
231.27
231.288
231.304
231.317
231.326
231.331
231.335
231.342
231.357
231.38
231.408
231.441
231.478
231.524
231.585
231.674
231.894
232.819
210.427
214.772
215.64
216.878
217.97
218.918
219.75
220.486
221.137
221.709
222.201
222.655
223.079
223.475
223.844
224.189
224.513
224.816
225.102
225.371
225.624
225.863
226.088
226.301
226.5
226.686
226.861
227.027
227.182
227.33
227.468
227.598
227.719
227.833
227.945
228.056
228.156
228.235
228.309
228.39
228.469
228.553
228.631
228.684
228.738
228.799
228.855
228.908
228.958
229.005
229.049
229.092
229.133
229.172
229.209
229.244
229.277
229.307
229.335
229.362
229.387
229.41
229.431
229.45
229.468
229.483
229.497
229.51
229.52
229.53
229.537
229.544
229.549
229.554
229.557
229.557
229.555
229.549
229.544
229.546
229.563
229.588
229.617
229.648
229.685
229.736
229.804
229.895
230.075
230.776
209.743
214.018
214.873
216.092
217.168
218.102
218.922
219.644
220.275
220.789
221.049
221.24
221.493
221.807
222.163
222.54
222.925
223.307
223.679
224.036
224.375
224.694
224.992
225.269
225.523
225.755
225.968
226.164
226.344
226.513
226.67
226.818
226.952
227.073
227.192
227.314
227.423
227.496
227.563
227.646
227.729
227.823
227.911
227.956
228.001
228.063
228.117
228.167
228.212
228.254
228.293
228.329
228.364
228.396
228.425
228.45
228.472
228.491
228.507
228.52
228.531
228.54
228.545
228.549
228.55
228.548
228.545
228.539
228.531
228.522
228.51
228.498
228.484
228.469
228.452
228.433
228.412
228.388
228.367
228.367
228.409
228.469
228.523
228.57
228.616
228.675
228.758
228.873
229.071
229.734
209.07
213.276
214.118
215.319
216.378
217.298
218.106
218.816
219.416
219.72
212.134
210.697
211.027
211.845
212.809
213.788
214.722
215.587
216.371
217.073
217.691
218.228
218.687
219.075
219.396
219.659
219.872
220.044
220.184
220.301
220.401
220.491
220.569
220.639
220.71
220.794
220.869
220.901
220.931
220.99
221.054
221.138
221.223
221.253
221.287
221.349
221.405
221.456
221.503
221.545
221.582
221.615
221.643
221.664
221.677
221.683
221.681
221.671
221.654
221.629
221.596
221.556
221.507
221.451
221.387
221.316
221.238
221.153
221.062
220.965
220.862
220.755
220.643
220.527
220.408
220.286
220.159
220.028
219.891
219.76
222.422
224.46
225.853
226.797
227.436
227.882
228.224
228.532
228.914
229.795
208.407
212.545
213.375
214.558
215.602
216.508
217.303
218
218.579
218.808
210.103
208.404
208.742
209.634
210.693
211.768
212.794
213.742
214.602
215.368
216.041
216.622
217.116
217.527
217.864
218.133
218.344
218.506
218.63
218.727
218.805
218.872
218.932
218.99
219.06
219.158
219.255
219.298
219.344
219.438
219.545
219.69
219.845
219.927
220.019
220.157
220.293
220.43
220.569
220.711
220.856
221.002
221.148
221.292
221.434
221.572
221.708
221.838
221.964
222.083
222.194
222.297
222.39
222.471
222.539
222.594
222.632
222.655
222.66
222.646
222.614
222.564
222.494
222.407
222.301
222.179
222.039
221.884
221.713
221.59
223.985
225.814
227.06
227.904
228.471
228.862
229.169
229.494
230.007
231.199
207.756
211.827
212.645
213.809
214.837
215.73
216.514
217.199
217.766
217.978
209.494
207.837
208.163
209.033
210.069
211.123
212.131
213.064
213.911
214.666
215.33
215.902
216.386
216.788
217.114
217.371
217.569
217.715
217.819
217.893
217.946
217.989
218.025
218.06
218.111
218.2
218.288
218.303
218.316
218.391
218.481
218.617
218.769
218.822
218.883
219.005
219.123
219.244
219.369
219.498
219.63
219.764
219.898
220.03
220.163
220.296
220.429
220.564
220.699
220.835
220.972
221.11
221.249
221.389
221.53
221.671
221.813
221.956
222.097
222.238
222.378
222.516
222.651
222.783
222.91
223.031
223.143
223.246
223.338
223.494
225.694
227.318
228.407
229.15
229.668
230.048
230.375
230.771
231.473
233.106
207.115
211.12
211.926
213.072
214.085
214.964
215.737
216.412
216.97
217.177
208.867
207.242
207.559
208.411
209.427
210.462
211.452
212.369
213.202
213.946
214.598
215.16
215.636
216.029
216.347
216.598
216.791
216.933
217.031
217.095
217.136
217.166
217.19
217.214
217.257
217.345
217.435
217.431
217.417
217.48
217.559
217.691
217.846
217.875
217.908
218.016
218.118
218.224
218.333
218.445
218.556
218.663
218.762
218.855
218.944
219.029
219.112
219.193
219.27
219.344
219.416
219.484
219.55
219.613
219.673
219.73
219.785
219.838
219.888
219.937
219.984
220.031
220.076
220.122
220.167
220.212
220.255
220.296
220.326
220.367
222.538
224.101
225.136
225.859
226.398
226.843
227.268
227.756
228.477
229.974
206.484
210.424
211.218
212.347
213.344
214.211
214.971
215.637
216.186
216.39
208.212
206.611
206.922
207.76
208.76
209.779
210.754
211.657
212.478
213.211
213.853
214.407
214.874
215.26
215.573
215.821
216.013
216.156
216.255
216.317
216.351
216.371
216.386
216.404
216.444
216.538
216.638
216.623
216.592
216.652
216.728
216.866
217.038
217.058
217.076
217.185
217.291
217.403
217.519
217.636
217.748
217.853
217.951
218.047
218.142
218.236
218.327
218.414
218.496
218.572
218.643
218.71
218.773
218.832
218.889
218.941
218.99
219.034
219.074
219.109
219.14
219.165
219.185
219.2
219.208
219.208
219.199
219.179
219.139
219.091
221.173
222.638
223.566
224.175
224.593
224.912
225.211
225.586
226.19
227.482
205.864
209.739
210.521
211.633
212.615
213.469
214.218
214.873
215.415
215.616
207.567
205.99
206.297
207.123
208.108
209.111
210.071
210.961
211.769
212.491
213.124
213.669
214.129
214.507
214.813
215.057
215.25
215.397
215.502
215.567
215.599
215.611
215.616
215.627
215.664
215.764
215.876
215.857
215.813
215.874
215.952
216.099
216.291
216.309
216.32
216.439
216.558
216.688
216.822
216.952
217.071
217.179
217.284
217.39
217.499
217.609
217.716
217.821
217.922
218.022
218.119
218.214
218.308
218.401
218.494
218.586
218.677
218.769
218.86
218.951
219.043
219.134
219.226
219.318
219.409
219.5
219.59
219.679
219.768
219.913
221.991
223.468
224.417
225.047
225.483
225.821
226.147
226.564
227.253
228.836
205.253
209.064
209.836
210.931
211.898
212.738
213.476
214.122
214.655
214.854
206.932
205.382
205.685
206.499
207.469
208.457
209.403
210.28
211.076
211.787
212.41
212.946
213.397
213.768
214.066
214.305
214.496
214.647
214.762
214.836
214.871
214.879
214.875
214.876
214.909
215.013
215.138
215.117
215.064
215.125
215.206
215.361
215.573
215.593
215.603
215.736
215.877
216.031
216.186
216.327
216.45
216.561
216.672
216.789
216.913
217.038
217.161
217.282
217.401
217.519
217.637
217.755
217.873
217.991
218.111
218.232
218.355
218.478
218.604
218.731
218.86
218.991
219.123
219.256
219.389
219.522
219.654
219.784
219.914
220.114
222.173
223.658
224.628
225.275
225.723
226.067
226.388
226.792
227.506
229.19
204.652
208.401
209.161
210.239
211.192
212.019
212.746
213.382
213.908
214.107
206.314
204.792
205.092
205.894
206.85
207.823
208.754
209.616
210.398
211.096
211.707
212.232
212.672
213.032
213.319
213.547
213.731
213.882
214.004
214.089
214.132
214.136
214.121
214.106
214.125
214.223
214.351
214.325
214.257
214.312
214.389
214.544
214.768
214.791
214.801
214.95
215.115
215.293
215.46
215.6
215.713
215.813
215.918
216.033
216.154
216.274
216.39
216.501
216.609
216.714
216.817
216.918
217.017
217.115
217.21
217.304
217.396
217.485
217.571
217.654
217.734
217.808
217.878
217.943
218
218.05
218.091
218.122
218.143
218.214
220.24
221.697
222.638
223.253
223.669
223.974
224.24
224.561
225.135
226.487
204.062
207.749
208.498
209.56
210.498
211.312
212.028
212.655
213.176
213.379
205.72
204.232
204.534
205.327
206.269
207.225
208.139
208.981
209.742
210.414
210.997
211.491
211.897
212.221
212.47
212.658
212.805
212.927
213.03
213.106
213.141
213.13
213.088
213.037
213.019
213.086
213.195
213.148
213.055
213.094
213.16
213.311
213.547
213.584
213.612
213.796
214.003
214.216
214.401
214.542
214.645
214.737
214.834
214.939
215.043
215.138
215.221
215.292
215.355
215.41
215.458
215.5
215.536
215.568
215.594
215.617
215.634
215.647
215.655
215.657
215.654
215.646
215.631
215.61
215.582
215.546
215.502
215.447
215.37
215.274
217.333
218.857
219.875
220.571
221.061
221.423
221.718
222.021
222.485
223.563
203.483
207.109
207.847
208.893
209.816
210.618
211.323
211.943
212.464
212.703
205.153
203.705
204.011
204.791
205.703
206.613
207.46
208.216
208.87
209.42
209.869
210.226
210.497
210.695
210.83
210.918
210.98
211.035
211.092
211.143
211.167
211.148
211.089
211.011
210.959
210.995
211.084
211.025
210.916
210.941
210.998
211.142
211.389
211.454
211.522
211.766
212.042
212.318
212.553
212.733
212.876
213.008
213.142
213.273
213.385
213.47
213.519
213.537
213.531
213.508
213.474
213.431
213.384
213.334
213.281
213.227
213.171
213.113
213.054
212.993
212.929
212.864
212.796
212.725
212.651
212.573
212.489
212.396
212.284
212.163
214.614
216.468
217.731
218.601
219.208
219.642
219.968
220.251
220.604
221.445
202.913
206.479
207.206
208.236
209.145
209.935
210.629
211.241
211.774
212.184
211.508
211.568
211.891
212.278
212.675
213.06
213.423
213.759
214.066
214.345
214.597
214.822
215.024
215.201
215.355
215.491
215.62
215.76
215.921
216.095
216.253
216.359
216.404
216.405
216.417
216.525
216.702
216.695
216.604
216.652
216.707
216.827
217.049
217.026
216.983
217.141
217.317
217.465
217.548
217.571
217.577
217.604
217.663
217.739
217.812
217.874
217.921
217.957
217.985
218.007
218.023
218.034
218.04
218.044
218.045
218.043
218.04
218.034
218.026
218.017
218.006
217.994
217.98
217.965
217.948
217.929
217.907
217.883
217.858
217.847
218.21
218.511
218.731
218.893
219.017
219.116
219.207
219.31
219.493
220.148
202.35
205.856
206.573
207.587
208.482
209.26
209.944
210.549
211.085
211.553
212.062
212.46
212.813
213.14
213.443
213.727
213.991
214.239
214.471
214.689
214.894
215.089
215.272
215.444
215.6
215.743
215.878
216.024
216.196
216.394
216.592
216.748
216.838
216.866
216.884
216.994
217.185
217.193
217.107
217.156
217.204
217.305
217.521
217.488
217.431
217.581
217.735
217.836
217.86
217.831
217.806
217.82
217.875
217.948
218.018
218.078
218.13
218.178
218.223
218.264
218.301
218.335
218.365
218.392
218.415
218.436
218.453
218.469
218.481
218.491
218.499
218.505
218.509
218.511
218.511
218.509
218.504
218.496
218.489
218.489
218.47
218.465
218.473
218.489
218.509
218.537
218.575
218.634
218.786
219.457
201.792
205.239
205.946
206.944
207.825
208.591
209.265
209.861
210.392
210.867
211.326
211.722
212.078
212.406
212.708
212.989
213.25
213.493
213.722
213.936
214.138
214.33
214.512
214.685
214.844
214.989
215.122
215.257
215.414
215.604
215.81
215.991
216.11
216.158
216.176
216.269
216.45
216.458
216.368
216.41
216.445
216.526
216.743
216.725
216.683
216.845
216.994
217.076
217.081
217.054
217.052
217.101
217.187
217.282
217.37
217.446
217.517
217.583
217.647
217.707
217.762
217.814
217.861
217.904
217.944
217.98
218.013
218.042
218.068
218.091
218.112
218.13
218.145
218.158
218.169
218.176
218.181
218.183
218.184
218.187
218.184
218.191
218.207
218.229
218.256
218.288
218.329
218.392
218.578
219.405
201.238
204.625
205.322
206.304
207.172
207.926
208.589
209.177
209.701
210.171
210.593
210.977
211.331
211.657
211.958
212.237
212.496
212.739
212.966
213.179
213.379
213.569
213.75
213.923
214.088
214.239
214.375
214.505
214.647
214.82
215.019
215.212
215.354
215.423
215.444
215.523
215.688
215.691
215.611
215.64
215.653
215.7
215.881
215.866
215.825
215.978
216.102
216.151
216.136
216.112
216.13
216.199
216.293
216.387
216.471
216.547
216.619
216.689
216.756
216.817
216.873
216.923
216.968
217.009
217.045
217.076
217.104
217.127
217.147
217.165
217.179
217.192
217.204
217.214
217.223
217.231
217.239
217.245
217.252
217.262
217.28
217.307
217.342
217.384
217.431
217.485
217.547
217.634
217.864
218.767
200.687
204.015
204.702
205.669
206.523
207.265
207.918
208.497
209.013
209.476
209.894
210.275
210.624
210.946
211.243
211.518
211.775
212.015
212.239
212.45
212.649
212.836
213.015
213.188
213.357
213.518
213.668
213.805
213.943
214.101
214.287
214.478
214.633
214.717
214.743
214.81
214.959
214.953
214.792
214.783
214.742
214.716
214.896
214.846
214.765
214.87
214.939
214.936
214.887
214.851
214.862
214.908
214.963
215.009
215.045
215.078
215.109
215.138
215.163
215.183
215.198
215.21
215.22
215.229
215.238
215.246
215.255
215.265
215.277
215.291
215.306
215.324
215.344
215.366
215.391
215.418
215.447
215.477
215.51
215.548
215.594
215.649
215.714
215.785
215.864
215.949
216.043
216.171
216.442
217.313
200.142
203.412
204.089
205.041
205.881
206.611
207.254
207.824
208.333
208.789
209.203
209.579
209.924
210.241
210.535
210.807
211.061
211.299
211.522
211.731
211.928
212.114
212.29
212.461
212.632
212.803
212.97
213.126
213.276
213.431
213.606
213.791
213.949
214.039
214.064
214.118
214.255
214.238
214.334
214.218
213.981
213.726
213.391
213.159
212.936
212.908
212.853
212.739
212.604
212.499
212.443
212.409
212.379
212.352
212.337
212.338
212.355
212.381
212.413
212.45
212.492
212.537
212.586
212.639
212.695
212.753
212.813
212.874
212.937
213.002
213.067
213.133
213.201
213.269
213.338
213.407
213.477
213.546
213.617
213.69
213.769
213.856
213.949
214.048
214.153
214.262
214.382
214.538
214.825
215.606
199.611
202.825
203.491
204.428
205.256
205.975
206.608
207.169
207.67
208.12
208.528
208.899
209.24
209.553
209.843
210.113
210.365
210.6
210.822
211.03
211.227
211.412
211.586
211.754
211.922
212.096
212.277
212.458
212.632
212.801
212.978
213.16
213.323
213.419
213.439
213.48
213.609
213.544
212.306
211.646
210.787
209.968
210.25
209.789
209.384
209.255
209.152
209.04
208.949
208.911
208.919
208.955
209.009
209.087
209.191
209.32
209.461
209.605
209.749
209.89
210.029
210.166
210.3
210.431
210.559
210.684
210.806
210.925
211.041
211.154
211.264
211.372
211.477
211.58
211.68
211.778
211.875
211.97
212.064
212.161
212.261
212.366
212.476
212.59
212.707
212.828
212.961
213.13
213.412
214.108
199.109
202.268
202.926
203.849
204.663
205.372
205.996
206.549
207.043
207.487
207.889
208.255
208.592
208.902
209.189
209.456
209.706
209.94
210.16
210.368
210.565
210.75
210.924
211.089
211.252
211.421
211.605
211.801
211.999
212.193
212.384
212.576
212.754
212.872
212.906
212.939
213.066
212.907
214.056
211.998
209.864
208.4
205.594
205.112
204.975
205.157
205.369
205.572
205.784
206.014
206.247
206.475
206.703
206.941
207.191
207.442
207.684
207.911
208.123
208.323
208.512
208.692
208.862
209.024
209.178
209.326
209.468
209.606
209.739
209.867
209.991
210.112
210.229
210.343
210.454
210.562
210.668
210.771
210.874
210.977
211.083
211.194
211.308
211.426
211.546
211.672
211.813
211.991
212.263
212.895
198.655
201.766
202.415
203.325
204.129
204.828
205.443
205.989
206.476
206.914
207.311
207.673
208.006
208.313
208.598
208.863
209.111
209.344
209.564
209.772
209.97
210.158
210.334
210.499
210.656
210.816
210.99
211.183
211.391
211.603
211.812
212.02
212.225
212.392
212.481
212.541
212.665
212.086
206.675
203.032
200.877
199.961
201.203
201.582
202.005
202.68
203.294
203.834
204.319
204.751
205.127
205.457
205.765
206.064
206.353
206.625
206.873
207.093
207.296
207.485
207.665
207.837
208.002
208.161
208.314
208.461
208.603
208.74
208.873
209
209.124
209.243
209.359
209.471
209.581
209.688
209.793
209.896
209.997
210.099
210.204
210.312
210.424
210.538
210.654
210.777
210.917
211.091
211.355
211.944
198.275
201.344
201.987
202.887
203.681
204.372
204.981
205.52
206.002
206.435
206.828
207.186
207.515
207.819
208.102
208.365
208.612
208.845
209.065
209.274
209.474
209.664
209.845
210.014
210.172
210.324
210.484
210.659
210.857
211.07
211.287
211.507
211.737
211.962
212.139
212.253
212.381
211.339
191.462
187.863
186.5
186.155
199.223
200.503
200.971
201.721
202.397
203.018
203.583
204.08
204.511
204.894
205.249
205.578
205.877
206.143
206.381
206.595
206.793
206.979
207.156
207.326
207.488
207.644
207.793
207.936
208.073
208.205
208.331
208.452
208.57
208.684
208.795
208.904
209.01
209.114
209.216
209.317
209.417
209.517
209.621
209.727
209.837
209.948
210.061
210.182
210.321
210.492
210.745
211.306
197.988
201.027
201.664
202.557
203.345
204.031
204.635
205.171
205.65
206.08
206.471
206.827
207.154
207.456
207.736
207.998
208.243
208.475
208.694
208.904
209.105
209.298
209.483
209.658
209.821
209.974
210.126
210.286
210.466
210.669
210.886
211.113
211.358
211.629
211.889
212.056
212.207
210.841
178.563
175.322
174.714
174.76
198.321
200.299
200.652
201.32
201.917
202.495
203.039
203.531
203.976
204.39
204.776
205.136
205.465
205.76
206.025
206.266
206.49
206.698
206.893
207.075
207.245
207.404
207.553
207.694
207.827
207.953
208.074
208.19
208.304
208.415
208.524
208.632
208.739
208.845
208.95
209.055
209.159
209.265
209.374
209.486
209.6
209.717
209.836
209.964
210.111
210.29
210.55
211.106
197.804
200.823
201.457
202.345
203.13
203.813
204.416
204.952
205.431
205.863
206.254
206.612
206.941
207.244
207.525
207.786
208.031
208.262
208.481
208.69
208.891
209.085
209.272
209.451
209.62
209.778
209.93
210.085
210.258
210.457
210.675
210.908
211.148
211.438
211.736
211.885
212.029
210.587
173.055
170.012
169.776
170.031
198.394
200.677
200.9
201.424
201.862
202.314
202.762
203.188
203.598
204.005
204.405
204.794
205.161
205.5
205.812
206.101
206.38
206.626
206.849
207.052
207.237
207.405
207.559
207.701
207.835
207.961
208.083
208.202
208.319
208.435
208.551
208.667
208.784
208.901
209.019
209.138
209.258
209.381
209.509
209.642
209.781
209.924
210.07
210.22
210.381
210.573
210.849
211.44
197.716
200.724
201.357
202.242
203.025
203.707
204.31
204.846
205.327
205.762
206.158
206.52
206.854
207.163
207.45
207.717
207.967
208.202
208.424
208.636
208.839
209.035
209.225
209.407
209.58
209.741
209.89
210.041
210.213
210.413
210.639
210.863
211.23
211.498
211.765
211.769
211.84
210.673
172.296
169.407
169.397
169.943
203.469
205.314
204.564
204.221
203.917
203.807
203.838
203.962
204.161
204.429
204.744
205.084
205.427
205.758
206.073
206.382
206.557
206.818
207.052
207.262
207.453
207.627
207.787
207.936
208.077
208.211
208.344
208.476
208.609
208.741
208.874
209.007
209.145
209.288
209.436
209.588
209.741
209.896
210.056
210.222
210.394
210.566
210.736
210.912
211.106
211.355
211.744
212.569
197.701
200.707
201.339
202.223
203.003
203.684
204.285
204.82
205.3
205.735
206.133
206.498
206.837
207.152
207.446
207.721
207.981
208.225
208.457
208.679
208.893
209.099
209.299
209.493
209.677
209.846
210.01
210.153
210.309
210.487
210.668
210.842
211.139
211.269
211.35
211.088
211.217
210.189
172.678
169.879
169.987
170.839
207.519
209.979
209.076
208.477
207.811
207.323
206.95
206.666
206.478
206.392
206.398
206.47
206.585
206.728
206.892
207.086
207.159
207.355
207.542
207.72
207.892
208.059
208.222
208.381
208.537
208.691
208.848
209.009
209.173
209.337
209.494
209.647
209.804
209.974
210.159
210.357
210.556
210.748
210.933
211.123
211.341
211.611
211.955
212.375
212.869
213.439
214.14
215.304
197.728
200.737
201.368
202.252
203.032
203.711
204.31
204.842
205.319
205.75
206.144
206.506
206.843
207.157
207.452
207.731
207.995
208.248
208.49
208.723
208.95
209.173
209.391
209.605
209.812
210.001
210.102
210.229
210.344
210.448
210.591
210.614
210.67
210.437
210.072
209.645
210.52
209.747
171.489
168.527
168.679
169.791
208.594
211.461
209.988
209.395
208.887
208.59
208.358
208.147
207.965
207.826
207.732
207.677
207.658
207.672
207.721
207.82
207.819
207.962
208.114
208.276
208.444
208.614
208.79
208.972
209.16
209.35
209.535
209.714
209.896
210.091
210.304
210.528
210.749
210.959
211.164
211.387
211.66
212
212.413
212.876
213.351
213.798
214.184
214.504
214.773
215.03
215.366
216.12
197.765
200.778
201.411
202.296
203.077
203.757
204.355
204.887
205.362
205.79
206.18
206.538
206.87
207.179
207.47
207.745
208.008
208.259
208.502
208.739
208.972
209.204
209.434
209.662
209.888
210.097
210.49
210.583
210.579
210.497
210.108
209.835
209.545
208.85
207.943
207.641
209.551
208.991
175.151
172.272
172.387
173.734
210.66
214.497
212.293
211.424
210.441
209.561
208.89
208.422
208.132
207.975
207.911
207.908
207.947
208.015
208.11
208.256
208.319
208.52
208.719
208.918
209.131
209.36
209.596
209.828
210.058
210.289
210.528
210.789
211.067
211.351
211.637
211.936
212.262
212.619
212.987
213.334
213.63
213.866
214.042
214.164
214.237
214.268
214.268
214.252
214.245
214.28
214.422
214.949
197.792
200.809
201.442
202.329
203.112
203.793
204.393
204.926
205.403
205.833
206.224
206.583
206.914
207.222
207.512
207.785
208.046
208.296
208.539
208.776
209.011
209.245
209.482
209.718
209.952
210.142
209.33
209.115
208.738
208.245
208.55
208.037
207.556
206.784
205.79
204.397
210.458
212.719
210.793
209.696
208.984
208.499
208.279
208.173
208.195
208.299
208.464
208.683
208.93
209.199
209.338
209.629
209.933
210.237
210.524
210.8
211.084
211.372
211.647
211.911
212.169
212.408
212.62
212.802
212.956
213.084
213.186
213.262
213.309
213.324
213.309
213.272
213.22
213.163
213.103
213.046
212.996
212.963
212.959
213.006
213.147
213.628
197.8
200.818
201.452
202.338
203.122
203.804
204.406
204.94
205.419
205.851
206.244
206.605
206.938
207.249
207.541
207.817
208.08
208.334
208.58
208.822
209.062
209.305
209.552
209.8
210.038
210.186
212.209
211.241
209.902
208.815
205.873
205.343
205.282
205.229
205.35
204.345
209.613
213.168
211.561
210.559
209.83
209.316
209.013
208.892
208.897
209
209.194
209.473
209.742
209.992
210.088
210.313
210.519
210.706
210.879
211.044
211.206
211.361
211.505
211.636
211.752
211.849
211.927
211.986
212.027
212.049
212.054
212.042
212.016
211.98
211.94
211.902
211.871
211.847
211.831
211.82
211.819
211.833
211.876
211.959
212.127
212.604
197.793
200.809
201.442
202.328
203.111
203.793
204.394
204.929
205.407
205.839
206.233
206.594
206.928
207.24
207.533
207.81
208.076
208.332
208.582
208.829
209.077
209.328
209.587
209.846
210.053
209.827
206.102
203.481
201.823
201.18
202.481
202.932
203.647
204.437
205.476
205.114
209.437
213.21
211.811
210.883
210.15
209.589
209.222
209.032
208.97
208.999
209.101
209.307
209.515
209.696
209.718
209.848
209.954
210.045
210.128
210.211
210.293
210.374
210.451
210.521
210.583
210.638
210.688
210.73
210.762
210.783
210.794
210.798
210.796
210.791
210.786
210.783
210.788
210.8
210.821
210.849
210.888
210.942
211.02
211.13
211.311
211.788
197.776
200.79
201.423
202.309
203.091
203.772
204.372
204.906
205.384
205.815
206.208
206.569
206.904
207.216
207.509
207.787
208.053
208.311
208.563
208.813
209.064
209.319
209.58
209.832
209.966
209.248
190.761
187.735
186.659
186.562
200.622
202.147
203.095
204.203
205.638
205.695
209.419
213.205
211.835
210.81
209.996
209.377
208.944
208.687
208.563
208.528
208.593
208.718
208.839
208.959
208.934
209.019
209.087
209.146
209.202
209.261
209.32
209.38
209.441
209.501
209.558
209.611
209.661
209.706
209.747
209.784
209.817
209.848
209.877
209.904
209.933
209.965
210.003
210.048
210.1
210.159
210.227
210.309
210.41
210.534
210.725
211.204
197.759
200.772
201.405
202.29
203.071
203.751
204.351
204.884
205.361
205.792
206.184
206.545
206.878
207.19
207.483
207.761
208.027
208.285
208.537
208.788
209.039
209.293
209.551
209.786
209.841
208.683
177.13
174.073
173.629
173.928
199.442
201.824
202.78
203.913
205.375
205.541
209.563
213.452
212.018
211.04
210.197
209.516
209.011
208.694
208.515
208.436
208.446
208.49
208.547
208.622
208.56
208.613
208.651
208.682
208.711
208.743
208.778
208.816
208.857
208.901
208.946
208.991
209.036
209.082
209.127
209.172
209.217
209.263
209.308
209.355
209.403
209.455
209.513
209.577
209.647
209.724
209.81
209.907
210.019
210.151
210.351
210.839
197.748
200.759
201.392
202.277
203.059
203.739
204.339
204.872
205.348
205.779
206.17
206.529
206.862
207.173
207.464
207.741
208.005
208.26
208.51
208.758
209.006
209.257
209.507
209.724
209.725
208.335
170.891
167.833
167.71
168.237
199.136
201.889
202.724
203.655
204.82
204.731
210.001
214.186
212.659
211.79