/*--------------------------------*- C++ -*----------------------------------*\
| =========                 |                                                 |
| \\      /  F ield         | OpenFOAM: The Open Source CFD Toolbox           |
|  \\    /   O peration     | Version:  v2012                                 |
|   \\  /    A nd           | Website:  www.openfoam.com                      |
|    \\/     M anipulation  |                                                 |
\*---------------------------------------------------------------------------*/
FoamFile
{
    version     2.0;
    format      ascii;
    class       volScalarField;
    location    "450/air";
    object      k;
}
// * * * * * * * * * * * * * * * * * * * * * * * * * * * * * * * * * * * * * //

dimensions      [0 2 -2 0 0 0 0];


internalField   nonuniform List<scalar> 
287104
(
0.0834012
0.071704
0.0633095
0.056992
0.0520818
0.0481709
0.0449943
0.0423715
0.0401759
0.0383158
0.0367237
0.0353485
0.0341512
0.0331013
0.0321748
0.0313524
0.0306185
0.0299605
0.0293678
0.0288318
0.0283452
0.0279018
0.0274965
0.0271248
0.026783
0.0264677
0.0261761
0.0259058
0.0256546
0.0254205
0.0252019
0.0249973
0.0248053
0.0246247
0.0244545
0.0242936
0.0241411
0.0239963
0.0238583
0.0237265
0.0236004
0.0234792
0.0233625
0.0232499
0.0231409
0.0230351
0.0229323
0.0228322
0.0227344
0.0226389
0.0225454
0.0224537
0.0223638
0.0222756
0.022189
0.0221038
0.0220202
0.0219381
0.0218573
0.021778
0.0217001
0.0216236
0.0215485
0.0214747
0.0214023
0.0213312
0.0212613
0.0211927
0.0211253
0.0210589
0.0209937
0.0209293
0.0208658
0.0208031
0.0207409
0.0206791
0.0206175
0.0205559
0.0204941
0.0204316
0.0203681
0.0203031
0.0202359
0.0201654
0.0200902
0.0200076
0.0199145
0.0197993
0.0196653
0.0193611
0.0833979
0.0716976
0.0633005
0.0569812
0.0520695
0.0481575
0.0449799
0.0423564
0.0401602
0.0382997
0.0367072
0.0353319
0.0341345
0.0330847
0.0321584
0.0313362
0.0306026
0.0299449
0.0293526
0.0288169
0.0283307
0.0278877
0.0274828
0.0271116
0.0267702
0.0264554
0.0261644
0.0258947
0.0256442
0.0254108
0.025193
0.0249893
0.0247983
0.0246188
0.0244497
0.02429
0.0241389
0.0239954
0.0238589
0.0237287
0.023604
0.0234844
0.0233693
0.0232583
0.0231508
0.0230466
0.0229452
0.0228464
0.0227499
0.0226556
0.0225631
0.0224725
0.0223834
0.022296
0.02221
0.0221254
0.0220422
0.0219603
0.0218798
0.0218006
0.0217227
0.0216462
0.0215709
0.021497
0.0214243
0.0213529
0.0212827
0.0212137
0.0211458
0.0210791
0.0210133
0.0209485
0.0208844
0.0208211
0.0207583
0.0206959
0.0206337
0.0205713
0.0205087
0.0204454
0.0203809
0.0203149
0.0202466
0.020175
0.0200987
0.0200151
0.0199212
0.0198054
0.0196712
0.0193703
0.0833965
0.0716948
0.0632967
0.0569764
0.0520639
0.0481512
0.044973
0.0423489
0.0401522
0.0382912
0.0366985
0.035323
0.0341256
0.0330758
0.0321496
0.0313275
0.0305942
0.0299367
0.0293446
0.0288092
0.0283232
0.0278805
0.0274759
0.027105
0.026764
0.0264496
0.026159
0.0258898
0.0256398
0.0254071
0.02519
0.0249871
0.024797
0.0246184
0.0244504
0.0242918
0.0241419
0.0239997
0.0238646
0.0237357
0.0236125
0.0234944
0.0233808
0.0232713
0.0231654
0.0230626
0.0229628
0.0228655
0.0227706
0.0226777
0.0225867
0.0224975
0.0224099
0.0223238
0.0222392
0.022156
0.0220741
0.0219937
0.0219146
0.0218368
0.0217603
0.0216852
0.0216114
0.0215389
0.0214678
0.0213979
0.0213293
0.021262
0.0211958
0.0211307
0.0210667
0.0210037
0.0209415
0.02088
0.0208191
0.0207586
0.0206983
0.0206379
0.0205772
0.0205157
0.0204532
0.020389
0.0203225
0.0202528
0.0201785
0.020097
0.0200055
0.0198928
0.0197623
0.0194702
0.0833952
0.0716918
0.0632922
0.0569705
0.0520567
0.0481428
0.0449634
0.0423383
0.0401406
0.0382789
0.0366856
0.0353097
0.0341121
0.0330623
0.0321361
0.0313142
0.0305809
0.0299236
0.0293316
0.0287963
0.0283104
0.0278678
0.0274633
0.0270925
0.0267516
0.0264374
0.0261471
0.0258782
0.0256286
0.0253964
0.0251799
0.0249776
0.0247883
0.0246107
0.0244437
0.0242863
0.0241376
0.0239967
0.023863
0.0237356
0.0236139
0.0234974
0.0233853
0.0232773
0.0231729
0.0230717
0.0229732
0.0228773
0.0227836
0.0226918
0.0226019
0.0225136
0.0224268
0.0223415
0.0222576
0.0221749
0.0220936
0.0220135
0.0219347
0.0218572
0.021781
0.021706
0.0216323
0.0215599
0.0214887
0.0214188
0.0213501
0.0212825
0.0212161
0.0211508
0.0210864
0.0210229
0.0209602
0.0208981
0.0208365
0.0207751
0.0207138
0.0206521
0.0205899
0.0205267
0.020462
0.0203954
0.0203262
0.0202535
0.0201759
0.0200911
0.0199962
0.0198804
0.0197469
0.0194534
0.0833939
0.0716892
0.0632883
0.0569656
0.0520506
0.0481356
0.0449551
0.0423289
0.0401303
0.0382677
0.0366737
0.0352974
0.0340997
0.0330499
0.0321238
0.031302
0.030569
0.0299118
0.0293201
0.028785
0.0282992
0.0278568
0.0274524
0.0270818
0.0267411
0.0264272
0.0261372
0.0258686
0.0256195
0.0253879
0.0251721
0.0249707
0.0247824
0.0246059
0.0244401
0.0242841
0.0241369
0.0239977
0.0238656
0.02374
0.0236202
0.0235055
0.0233954
0.0232893
0.0231867
0.0230873
0.0229906
0.0228964
0.0228043
0.0227142
0.0226257
0.0225389
0.0224535
0.0223694
0.0222867
0.0222052
0.0221249
0.0220459
0.0219682
0.0218916
0.0218163
0.0217422
0.0216694
0.0215979
0.0215276
0.0214585
0.0213905
0.0213238
0.0212581
0.0211934
0.0211297
0.0210667
0.0210045
0.0209428
0.0208815
0.0208203
0.0207589
0.0206971
0.0206344
0.0205705
0.0205048
0.0204367
0.0203658
0.0202911
0.0202115
0.0201248
0.0200283
0.0199116
0.019778
0.0194873
0.0833927
0.0716865
0.0632842
0.0569601
0.0520438
0.0481273
0.0449454
0.0423178
0.0401179
0.0382543
0.0366597
0.0352832
0.0340856
0.0330362
0.0321104
0.031289
0.0305563
0.0298993
0.0293076
0.0287725
0.0282868
0.0278443
0.0274399
0.0270693
0.0267287
0.0264149
0.0261251
0.025857
0.0256084
0.0253775
0.0251627
0.0249624
0.0247754
0.0246004
0.0244364
0.0242823
0.0241373
0.0240005
0.023871
0.0237481
0.0236311
0.0235193
0.0234122
0.0233091
0.0232096
0.0231133
0.0230197
0.0229285
0.0228395
0.0227523
0.0226668
0.0225828
0.0225003
0.0224191
0.0223392
0.0222606
0.0221832
0.022107
0.0220321
0.0219586
0.0218863
0.0218153
0.0217458
0.0216775
0.0216106
0.0215451
0.0214808
0.0214179
0.0213562
0.0212956
0.0212361
0.0211776
0.0211199
0.021063
0.0210066
0.0209505
0.0208944
0.0208381
0.0207811
0.0207229
0.0206631
0.0206011
0.0205367
0.0204691
0.0203976
0.0203204
0.0202353
0.0201331
0.0200169
0.0197568
0.0833915
0.0716838
0.0632802
0.0569546
0.0520368
0.0481187
0.044935
0.0423054
0.0401034
0.0382377
0.0366416
0.0352643
0.0340665
0.0330172
0.0320919
0.031271
0.0305386
0.0298821
0.0292907
0.0287558
0.0282702
0.0278279
0.0274236
0.0270532
0.0267129
0.0263995
0.0261103
0.025843
0.0255955
0.0253659
0.0251527
0.0249544
0.0247698
0.0245975
0.0244365
0.0242859
0.0241446
0.0240118
0.0238866
0.0237683
0.0236561
0.0235494
0.0234474
0.0233492
0.0232545
0.0231628
0.0230739
0.0229874
0.0229031
0.0228207
0.02274
0.0226609
0.0225832
0.0225068
0.0224318
0.022358
0.0222856
0.0222144
0.0221447
0.0220763
0.0220093
0.0219438
0.0218799
0.0218175
0.0217566
0.0216974
0.0216397
0.0215837
0.0215292
0.0214763
0.021425
0.0213751
0.0213267
0.0212795
0.0212335
0.0211885
0.0211443
0.0211005
0.0210568
0.0210126
0.0209673
0.0209205
0.0208721
0.0208219
0.0207695
0.0207139
0.0206542
0.0205849
0.0205096
0.0203156
0.0833903
0.0716812
0.0632761
0.056949
0.0520295
0.0481095
0.0449237
0.0422919
0.0400874
0.0382198
0.036623
0.0352464
0.0340498
0.0330016
0.0320772
0.0312568
0.0305245
0.0298675
0.0292754
0.0287394
0.0282526
0.0278089
0.0274033
0.0270316
0.0266903
0.0263763
0.0260869
0.0258198
0.025573
0.0253448
0.0251335
0.0249378
0.0247558
0.0245865
0.0244289
0.024282
0.0241448
0.0240163
0.0238956
0.0237818
0.0236741
0.0235717
0.0234738
0.0233799
0.0232893
0.0232016
0.0231164
0.0230333
0.0229521
0.0228726
0.0227945
0.0227179
0.0226427
0.0225688
0.0224964
0.0224253
0.0223556
0.0222874
0.0222207
0.0221555
0.0220919
0.0220298
0.0219694
0.0219106
0.0218533
0.0217977
0.0217437
0.0216913
0.0216403
0.0215908
0.0215427
0.0214959
0.0214504
0.0214059
0.0213623
0.0213196
0.0212773
0.0212351
0.0211925
0.0211488
0.0211032
0.0210554
0.0210056
0.0209539
0.0209001
0.0208438
0.0207851
0.0207223
0.0206709
0.0205692
0.0833891
0.0716785
0.0632719
0.056943
0.0520214
0.0480988
0.0449097
0.0422733
0.0400625
0.0381873
0.0365946
0.0352347
0.0340599
0.033032
0.0321223
0.0313093
0.0305771
0.0299139
0.0293104
0.0287597
0.0282561
0.0277948
0.027372
0.0269843
0.0266287
0.0263023
0.0260028
0.0257278
0.0254753
0.0252432
0.0250297
0.0248331
0.024652
0.024485
0.0243308
0.024188
0.0240554
0.0239318
0.0238158
0.0237061
0.0236017
0.0235018
0.0234056
0.0233126
0.0232221
0.0231339
0.0230477
0.0229635
0.0228812
0.0228006
0.0227217
0.0226444
0.0225685
0.022494
0.0224211
0.0223495
0.0222795
0.022211
0.0221441
0.0220789
0.0220152
0.0219533
0.021893
0.0218343
0.0217774
0.0217222
0.0216686
0.0216168
0.0215666
0.021518
0.0214711
0.0214257
0.0213817
0.0213392
0.021298
0.021258
0.021219
0.0211806
0.0211423
0.0211025
0.0210596
0.0210145
0.0209685
0.0209218
0.0208739
0.0208243
0.0207729
0.0207181
0.0206729
0.0205981
0.0833879
0.0716759
0.0632677
0.056937
0.0520134
0.0480883
0.0448959
0.0422554
0.0400388
0.0381598
0.0376065
0.037337
0.0369237
0.0362922
0.0354841
0.0345677
0.0336046
0.0326408
0.0317076
0.0308245
0.0300029
0.0292481
0.0285614
0.0279416
0.0273855
0.0268889
0.0264466
0.0260523
0.0256993
0.0253809
0.0250898
0.0248182
0.0245843
0.0243894
0.024224
0.0240808
0.0239541
0.0238395
0.0237338
0.0236348
0.0235404
0.0234493
0.0233605
0.0232732
0.0231902
0.0231126
0.0230402
0.0229726
0.022909
0.0228488
0.0227913
0.0227363
0.0226831
0.0226317
0.0225819
0.0225337
0.0224869
0.0224417
0.0223979
0.0223556
0.0223147
0.0222752
0.022237
0.0222003
0.0221649
0.0221308
0.0220981
0.0220668
0.0220368
0.0220082
0.021981
0.0219552
0.0219309
0.0219081
0.0218866
0.0218665
0.0218476
0.0218294
0.0218115
0.0217911
0.021675
0.0215384
0.0214065
0.0212865
0.0211788
0.0210815
0.0209924
0.0209068
0.0208339
0.0207331
0.0833868
0.0716732
0.0632633
0.0569307
0.0520044
0.0480754
0.0448763
0.0422242
0.0399759
0.0382121
0.118873
0.142475
0.142302
0.133936
0.123704
0.113907
0.105261
0.0978935
0.0917284
0.0866315
0.0824645
0.0791005
0.0764264
0.0743417
0.0727552
0.0715836
0.0707497
0.0701825
0.0698178
0.0695981
0.0694755
0.0694093
0.0693833
0.0693966
0.0694414
0.0695047
0.0695745
0.0696424
0.0697044
0.0697592
0.0698086
0.0698564
0.0698994
0.0699383
0.0699721
0.0700051
0.0700457
0.0701017
0.0701808
0.0702892
0.0704306
0.0706077
0.0708226
0.071077
0.0713705
0.0717028
0.0720747
0.0724873
0.0729414
0.0734371
0.0739741
0.0745518
0.0751696
0.0758264
0.076521
0.0772518
0.078017
0.0788147
0.0796427
0.0804982
0.0813781
0.0822793
0.0831988
0.0841346
0.0850862
0.0860549
0.0870502
0.0880927
0.0893079
0.0904357
0.0578099
0.0419536
0.0334114
0.0284709
0.0254735
0.0235939
0.0223871
0.021591
0.0210639
0.0206402
0.0833856
0.0716707
0.0632593
0.0569249
0.0519966
0.0480651
0.0448629
0.0422068
0.0399532
0.038184
0.118866
0.14252
0.142285
0.133778
0.123371
0.113386
0.104554
0.0970106
0.0906827
0.0854389
0.0811427
0.0776689
0.0749061
0.072755
0.0711255
0.0699343
0.0691034
0.0685601
0.0682367
0.0680723
0.068013
0.0680129
0.0680347
0.0680496
0.0680367
0.0679812
0.0678728
0.0677051
0.0674744
0.0671799
0.0668222
0.0664037
0.065937
0.0654275
0.0648806
0.0643032
0.0637026
0.0630858
0.0624581
0.0618238
0.0611876
0.0605542
0.0599282
0.059314
0.0587158
0.0581386
0.0575878
0.057069
0.0565865
0.0561453
0.0557516
0.0554122
0.0551338
0.0549229
0.0547859
0.0547287
0.054757
0.0548755
0.0550879
0.055397
0.0558045
0.0563107
0.0569153
0.0576163
0.0584112
0.0592982
0.0602828
0.0613696
0.062658
0.06391
0.0444869
0.0342848
0.0284337
0.02487
0.0226146
0.0211534
0.0201925
0.0195391
0.0190804
0.018614
0.0833845
0.0716681
0.0632553
0.0569193
0.0519889
0.048055
0.0448494
0.0421888
0.0399288
0.0381515
0.118637
0.142285
0.142103
0.133651
0.123284
0.11332
0.104496
0.0969491
0.0906136
0.0853621
0.0810626
0.0775933
0.0748461
0.0727244
0.0711398
0.0700101
0.0692573
0.0688075
0.0685914
0.0685458
0.0686146
0.0687499
0.0689122
0.0690706
0.0692025
0.0692924
0.0693301
0.069309
0.0692262
0.0690812
0.0688753
0.0686108
0.0682916
0.0679223
0.0675082
0.0670555
0.0665706
0.0660597
0.0655286
0.0649829
0.0644274
0.0638658
0.0633013
0.0627357
0.06217
0.0616041
0.0610368
0.0604661
0.0598919
0.059314
0.0587314
0.0581428
0.0575473
0.0569442
0.0563333
0.0557148
0.0550894
0.0544584
0.0538236
0.0531873
0.0525527
0.0519235
0.0513048
0.0507026
0.0501243
0.0495797
0.0490847
0.0486519
0.0483641
0.0480101
0.033832
0.0265973
0.0225375
0.0200813
0.0185042
0.0174411
0.016694
0.0161292
0.0156798
0.0151114
0.0833834
0.0716657
0.0632516
0.0569142
0.0519823
0.0480467
0.0448392
0.0421765
0.0399143
0.0381349
0.118558
0.142203
0.142032
0.133587
0.12322
0.113252
0.104419
0.0968641
0.0905201
0.0852618
0.0809575
0.0774864
0.0747408
0.0726247
0.0710501
0.0699349
0.0692015
0.0687759
0.0685886
0.0685761
0.0686816
0.0688568
0.0690621
0.0692666
0.0694472
0.0695881
0.0696781
0.0697098
0.0696791
0.0695845
0.0694262
0.0692061
0.0689279
0.0685962
0.0682182
0.0678021
0.0673573
0.0668927
0.066417
0.0659381
0.0654629
0.0649975
0.0645645
0.0641648
0.0637947
0.06345
0.0631273
0.0628243
0.0625395
0.0622735
0.0620279
0.0618039
0.0616014
0.0614198
0.0612588
0.0611181
0.0609969
0.0608939
0.0608071
0.0607342
0.0606729
0.0606208
0.0605752
0.0605335
0.060494
0.0604571
0.0604309
0.0604313
0.0605664
0.060874
0.0431885
0.0345046
0.0297191
0.0268116
0.024879
0.0234761
0.0223673
0.0214627
0.0207275
0.0199146
0.0833824
0.0716634
0.063248
0.0569094
0.0519763
0.0480392
0.0448302
0.0421657
0.0399015
0.0381199
0.118461
0.14208
0.141908
0.13347
0.12311
0.113147
0.104317
0.0967622
0.0904171
0.0851569
0.080851
0.0773792
0.0746345
0.0725213
0.070952
0.0698449
0.069122
0.0687094
0.0685374
0.0685423
0.0686671
0.0688634
0.0690916
0.0693206
0.0695271
0.0696948
0.0698116
0.0698689
0.0698608
0.069784
0.0696366
0.069419
0.069134
0.0687861
0.068383
0.0679347
0.0674517
0.0669446
0.0664232
0.0658965
0.065372
0.0648557
0.0643526
0.063866
0.0633986
0.0629517
0.0625258
0.0621212
0.0617444
0.0614014
0.0610888
0.0608025
0.060539
0.060296
0.0600721
0.0598673
0.0596833
0.0595221
0.059385
0.0592731
0.059188
0.0591318
0.059107
0.0591166
0.0591647
0.0592579
0.0594106
0.0596437
0.0600664
0.0607221
0.043316
0.0348799
0.0303322
0.0276631
0.0259738
0.0248219
0.0239698
0.0232665
0.0225988
0.0217352
0.0833813
0.0716612
0.0632447
0.0569051
0.051971
0.048033
0.044823
0.0421575
0.0398922
0.0381095
0.118393
0.141984
0.141799
0.133353
0.122988
0.113022
0.104189
0.096632
0.0902857
0.0850252
0.0807201
0.0772501
0.0745087
0.0723999
0.0708364
0.0697361
0.069021
0.068617
0.0684542
0.0684685
0.0686031
0.0688097
0.0690489
0.06929
0.06951
0.0696923
0.0698244
0.0698961
0.0698993
0.069828
0.0696771
0.0694446
0.0691317
0.0687428
0.0682867
0.0677754
0.067222
0.0666393
0.0660394
0.0654326
0.0648273
0.0642299
0.063645
0.0630757
0.0625239
0.0619902
0.0614748
0.060977
0.0604955
0.0600291
0.0595762
0.0591354
0.058705
0.0582834
0.0578687
0.0574595
0.0570545
0.0566524
0.0562519
0.0558517
0.0554512
0.05505
0.0546477
0.0542447
0.0538422
0.0534424
0.0530522
0.0526747
0.0523736
0.0519552
0.0370357
0.0296619
0.025666
0.0233111
0.0217989
0.0207323
0.0199031
0.0191811
0.0185103
0.0176345
0.0833803
0.071659
0.0632416
0.0569012
0.0519665
0.048028
0.0448176
0.0421519
0.0398867
0.0381038
0.118357
0.141921
0.14171
0.133242
0.122859
0.112878
0.104035
0.0964713
0.0901215
0.0848608
0.0805582
0.0770934
0.0743591
0.0722591
0.0707052
0.0696145
0.0689084
0.0685117
0.0683543
0.068372
0.0685082
0.0687154
0.0689556
0.0691993
0.0694251
0.0696172
0.069763
0.0698508
0.0698693
0.0698079
0.0696564
0.0694082
0.0690619
0.0686216
0.0680982
0.0675072
0.0668656
0.0661898
0.0654947
0.0647927
0.0640934
0.0634036
0.0627281
0.0620694
0.0614286
0.0608053
0.0601984
0.0596065
0.0590276
0.0584598
0.057901
0.0573494
0.0568028
0.0562596
0.055718
0.0551766
0.0546341
0.0540896
0.0535426
0.0529928
0.0524403
0.051886
0.0513315
0.0507791
0.0502328
0.0496981
0.0491854
0.0487007
0.0483126
0.0478139
0.0338343
0.026807
0.0229272
0.0206083
0.0191172
0.0180862
0.0173197
0.0166886
0.0161423
0.0154234
0.0833793
0.071657
0.0632387
0.0568977
0.0519625
0.0480237
0.0448133
0.0421477
0.0398826
0.0380993
0.118295
0.141804
0.141555
0.133066
0.122675
0.112695
0.103858
0.0963033
0.0899651
0.0847182
0.080432
0.076987
0.0742762
0.0722032
0.0706792
0.0696199
0.0689451
0.0685784
0.0684488
0.0684928
0.0686555
0.068892
0.0691673
0.0694555
0.0697379
0.0699998
0.0702276
0.0704051
0.0705135
0.0705316
0.0704378
0.0702167
0.0698631
0.069383
0.0687938
0.0681205
0.0673899
0.0666274
0.0658547
0.065089
0.0643427
0.0636238
0.0629367
0.0622831
0.0616626
0.0610733
0.0605124
0.0599779
0.0594678
0.0589806
0.0585149
0.0580694
0.0576434
0.0572365
0.0568486
0.0564803
0.0561326
0.0558068
0.0555047
0.0552285
0.0549806
0.054764
0.0545821
0.054439
0.0543402
0.0542924
0.054309
0.0544004
0.0546569
0.0549087
0.0388449
0.0307778
0.0263263
0.0236775
0.0219985
0.0208721
0.0200735
0.0194601
0.0189568
0.0183554
0.0833784
0.071655
0.0632361
0.0568947
0.0519595
0.0480213
0.0448123
0.0421492
0.0398884
0.0381111
0.118393
0.141858
0.141531
0.132972
0.122533
0.112534
0.103707
0.0961963
0.0899373
0.0848074
0.0806769
0.0774243
0.0749378
0.0731132
0.0718519
0.0710597
0.0706481
0.0705355
0.0706493
0.0709278
0.0713205
0.0717883
0.072302
0.07284
0.0733854
0.0739221
0.0744298
0.0748797
0.0752342
0.0754475
0.0754736
0.0752797
0.0748555
0.0742158
0.0733975
0.0724513
0.0714307
0.0703857
0.0693587
0.0683823
0.067479
0.0666626
0.0659394
0.0653096
0.0647695
0.0643125
0.0639337
0.0636284
0.0633903
0.0632117
0.063085
0.0630037
0.0629627
0.0629582
0.0629877
0.06305
0.0631444
0.063271
0.0634299
0.0636216
0.0638467
0.0641059
0.0644002
0.0647315
0.065103
0.0655208
0.0660008
0.0665657
0.0673628
0.0684611
0.0477148
0.0372527
0.0313745
0.0277965
0.0254837
0.0239159
0.0228081
0.021984
0.0213322
0.0206765
0.0833774
0.0716531
0.0632335
0.0568917
0.0519566
0.0480188
0.0448108
0.0421494
0.0398917
0.0381163
0.118222
0.141568
0.141286
0.132855
0.122669
0.113078
0.104831
0.0980636
0.0926905
0.0885542
0.0854815
0.0833032
0.081862
0.0810153
0.0806366
0.0806173
0.0808662
0.08131
0.0818913
0.0825675
0.0833081
0.0840927
0.0849082
0.085746
0.0865991
0.0874575
0.0883023
0.0890993
0.089795
0.090314
0.0905685
0.0904834
0.0900155
0.0891635
0.0879682
0.0865004
0.0848452
0.0830918
0.0813245
0.0796184
0.0780358
0.0766252
0.0754203
0.0744409
0.0736936
0.0731717
0.0729007
0.0728688
0.0730299
0.073332
0.0737303
0.0741909
0.0746903
0.0752135
0.0757513
0.0762988
0.0768537
0.077415
0.077983
0.0785581
0.0791406
0.0797313
0.0803309
0.0809409
0.0815646
0.0822089
0.0828916
0.0836455
0.0846215
0.0857207
0.0562574
0.0418171
0.0339449
0.0293138
0.0264363
0.0245737
0.0233283
0.0224678
0.0218594
0.0213595
0.0833765
0.0716513
0.0632311
0.0568893
0.0519548
0.0480189
0.0448156
0.042164
0.0399363
0.0380443
0.0367438
0.0356314
0.0345094
0.0334836
0.0325376
0.0316655
0.0308639
0.03013
0.0294603
0.0288511
0.0282983
0.0277981
0.0273463
0.026939
0.0265726
0.0262435
0.0259484
0.0256844
0.0254489
0.0252396
0.0250545
0.0248922
0.0247516
0.0246321
0.0245337
0.0244567
0.0244014
0.0243676
0.0243539
0.0243566
0.0243694
0.0243846
0.0243942
0.0243914
0.0243718
0.0243318
0.0242708
0.0241906
0.0240937
0.0239833
0.0238629
0.0237362
0.0236066
0.0234771
0.0233504
0.0232286
0.0231134
0.0230061
0.0229073
0.0228172
0.0227355
0.0226617
0.0225951
0.0225349
0.0224804
0.0224308
0.0223855
0.0223439
0.0223056
0.02227
0.0222369
0.022206
0.0221769
0.0221497
0.0221239
0.0220996
0.0220765
0.0220542
0.0220325
0.0220087
0.0219
0.0217725
0.0216485
0.0215346
0.0214316
0.0213382
0.021253
0.0211724
0.0211051
0.0210074
0.0833756
0.0716494
0.0632286
0.0568864
0.0519519
0.0480163
0.044814
0.042164
0.0399391
0.038049
0.0364313
0.0350364
0.0338224
0.0327567
0.0318142
0.030975
0.0302235
0.0295471
0.0289357
0.028381
0.0278762
0.0274158
0.0269951
0.0266102
0.026258
0.0259357
0.0256409
0.0253719
0.025127
0.0249049
0.0247049
0.0245261
0.0243685
0.0242324
0.0241186
0.0240288
0.0239648
0.0239275
0.0239167
0.0239287
0.023955
0.0239849
0.0240078
0.0240151
0.024002
0.0239668
0.0239101
0.0238337
0.0237405
0.0236336
0.0235164
0.0233923
0.023264
0.023134
0.0230042
0.0228764
0.022752
0.0226321
0.0225175
0.0224089
0.0223067
0.022211
0.022122
0.0220396
0.0219636
0.0218938
0.02183
0.0217717
0.0217187
0.0216707
0.0216272
0.0215879
0.0215524
0.0215204
0.0214916
0.0214655
0.0214417
0.0214198
0.0213989
0.0213774
0.0213535
0.0213276
0.0213012
0.0212744
0.0212471
0.0212187
0.0211891
0.021156
0.0211299
0.021061
0.0833747
0.0716475
0.063226
0.0568835
0.0519489
0.0480138
0.0448127
0.0421649
0.039944
0.038059
0.0364439
0.035048
0.0338309
0.0327612
0.0318143
0.0309707
0.0302147
0.0295337
0.0289174
0.0283576
0.0278472
0.0273808
0.0269536
0.0265619
0.0262022
0.0258721
0.0255693
0.0252918
0.0250383
0.0248077
0.024599
0.024412
0.0242468
0.0241042
0.0239859
0.0238949
0.0238351
0.0238104
0.0238232
0.0238695
0.0239372
0.02401
0.0240719
0.0241108
0.0241202
0.0240986
0.0240473
0.0239692
0.0238687
0.02375
0.0236186
0.0234785
0.0233331
0.0231844
0.0230358
0.0228899
0.0227489
0.0226143
0.0224873
0.0223686
0.0222588
0.022158
0.0220663
0.0219837
0.0219098
0.0218444
0.0217872
0.0217377
0.0216955
0.0216601
0.0216311
0.0216078
0.0215899
0.0215766
0.0215674
0.0215617
0.0215587
0.0215577
0.0215577
0.0215577
0.0215562
0.0215525
0.0215465
0.0215378
0.0215256
0.0215087
0.0214857
0.0214516
0.0214098
0.0212794
0.0833737
0.0716455
0.0632232
0.05688
0.0519449
0.0480094
0.0448079
0.0421599
0.0399385
0.0380525
0.036435
0.0350351
0.0338134
0.032739
0.0317874
0.0309392
0.0301786
0.0294931
0.0288723
0.0283078
0.0277927
0.0273214
0.0268891
0.0264922
0.0261273
0.0257918
0.0254836
0.0252008
0.0249419
0.0247057
0.0244915
0.0242989
0.0241282
0.0239806
0.0238587
0.0237672
0.0237128
0.0237044
0.0237516
0.0238526
0.0239906
0.0241401
0.0242736
0.0243716
0.0244256
0.0244343
0.0244004
0.0243295
0.0242279
0.0241028
0.0239636
0.0238147
0.0236608
0.0235058
0.023353
0.0232052
0.0230647
0.0229334
0.0228125
0.0227032
0.022606
0.0225214
0.0224493
0.0223896
0.0223416
0.0223049
0.0222785
0.0222613
0.0222523
0.0222503
0.0222538
0.0222618
0.0222727
0.0222852
0.0222982
0.0223104
0.0223205
0.0223276
0.0223303
0.0223278
0.0223186
0.0223021
0.0222774
0.0222442
0.0222018
0.022149
0.0220845
0.0220023
0.0219044
0.021705
0.0833728
0.0716436
0.0632204
0.0568763
0.0519405
0.0480045
0.0448024
0.0421539
0.039932
0.0380452
0.0364261
0.0350236
0.0337985
0.03272
0.0317637
0.0309103
0.0301442
0.0294528
0.0288259
0.0282551
0.0277336
0.0272557
0.0268169
0.0264134
0.026042
0.0257002
0.0253857
0.0250967
0.0248317
0.0245893
0.0243687
0.0241693
0.0239911
0.0238357
0.0237058
0.0236083
0.0235535
0.0235595
0.0236596
0.0238725
0.0241824
0.0245384
0.0248765
0.0251567
0.0253624
0.0254919
0.0255521
0.0255539
0.0255095
0.0254304
0.0253391
0.0252463
0.025158
0.025079
0.0250122
0.0249595
0.0249215
0.0248978
0.024887
0.0248873
0.0248961
0.0249109
0.0249289
0.0249478
0.0249652
0.0249792
0.0249882
0.024991
0.0249867
0.0249746
0.0249543
0.0249258
0.0248888
0.0248436
0.0247902
0.0247287
0.0246594
0.0245824
0.0244977
0.0244052
0.0243049
0.0241965
0.02408
0.0239552
0.0238217
0.0236784
0.0235241
0.0233522
0.0231646
0.0228783
0.0833719
0.0716416
0.0632174
0.0568724
0.0519356
0.0479984
0.0447953
0.0421454
0.0399218
0.0380328
0.0364109
0.0350048
0.0337755
0.0326922
0.0317308
0.030872
0.0301001
0.0294027
0.0287695
0.0281921
0.0276638
0.027179
0.026733
0.0263224
0.0259439
0.025595
0.0252736
0.0249779
0.024706
0.0244567
0.0242286
0.0240209
0.0238332
0.0236665
0.0235233
0.0234124
0.0233474
0.0233658
0.0236114
0.0242288
0.0252115
0.0263648
0.0274717
0.0284382
0.0292322
0.02986
0.0303444
0.0307125
0.0309895
0.0311968
0.0313411
0.03147
0.031577
0.031654
0.0316952
0.0316972
0.0316594
0.0315833
0.031472
0.0313295
0.0311604
0.0309691
0.0307602
0.0305374
0.0303043
0.0300639
0.0298187
0.0295707
0.0293217
0.0290729
0.0288254
0.0285797
0.0283364
0.0280958
0.027858
0.0276228
0.0273902
0.0271596
0.0269308
0.0267032
0.0264761
0.0262489
0.026021
0.0257915
0.0255594
0.0253231
0.0250806
0.0248249
0.0245559
0.0241979
0.083371
0.0716396
0.0632143
0.0568683
0.0519304
0.047992
0.0447875
0.0421361
0.0399106
0.0380194
0.0363947
0.0349853
0.033752
0.0326641
0.0316976
0.030833
0.0300549
0.0293507
0.0287102
0.0281251
0.0275886
0.0270953
0.0266408
0.0262214
0.0258342
0.0254769
0.0251472
0.0248434
0.0245636
0.0243062
0.0240693
0.0238517
0.0236518
0.0234693
0.0233044
0.0231662
0.023069
0.0230951
0.0240344
0.0266304
0.0306065
0.0348437
0.0385091
0.0413895
0.0434655
0.0448389
0.0456387
0.0459891
0.045998
0.0457547
0.0453295
0.0447444
0.0440484
0.0432736
0.04245
0.0416031
0.0407527
0.0399138
0.0390966
0.0383078
0.0375512
0.0368289
0.0361412
0.0354876
0.034867
0.0342779
0.0337185
0.0331873
0.0326824
0.0322022
0.0317449
0.0313091
0.0308939
0.0304987
0.0301204
0.0297565
0.029405
0.0290641
0.0287322
0.0284079
0.0280897
0.0277765
0.0274677
0.0271643
0.0268644
0.0265652
0.026264
0.0259535
0.0256312
0.0252301
0.0833702
0.0716377
0.0632113
0.0568642
0.051925
0.0479853
0.0447791
0.0421258
0.0398981
0.0380042
0.0363762
0.034963
0.0337253
0.0326325
0.0316603
0.0307895
0.0300045
0.0292928
0.0286442
0.0280505
0.0275048
0.0270019
0.0265374
0.0261079
0.0257108
0.0253437
0.0250046
0.0246918
0.0244032
0.024137
0.0238912
0.0236639
0.0234525
0.0232548
0.0230671
0.022897
0.0227494
0.0228672
0.0276277
0.0387402
0.0520415
0.0626157
0.0689577
0.0717332
0.0719081
0.0704509
0.0680978
0.0653451
0.0624971
0.0597214
0.0570914
0.0546346
0.0523679
0.0503023
0.0484321
0.0467427
0.0452161
0.0438331
0.0425757
0.0414279
0.040376
0.0394099
0.0385226
0.0377069
0.0369491
0.0362401
0.0355738
0.0349455
0.0343518
0.0337898
0.0332568
0.0327505
0.0322686
0.0318091
0.0313697
0.0309485
0.0305434
0.0301527
0.0297746
0.0294073
0.0290494
0.0286992
0.0283552
0.0280158
0.0276789
0.0273415
0.0269992
0.0266438
0.0262868
0.02587
0.0833694
0.0716359
0.0632085
0.0568602
0.0519198
0.0479786
0.0447707
0.0421153
0.0398853
0.0379886
0.0363573
0.0349403
0.033698
0.0326
0.0316219
0.0307445
0.029952
0.029232
0.0285743
0.0279705
0.0274141
0.0268997
0.0264234
0.0259819
0.0255727
0.0251939
0.0248438
0.0245206
0.0242221
0.0239465
0.0236916
0.0234551
0.0232334
0.0230225
0.0228109
0.0225987
0.0223457
0.0229065
0.0428374
0.0735414
0.0976089
0.108742
0.109157
0.103524
0.0954503
0.0870476
0.0793178
0.0726124
0.0669616
0.0622601
0.0583624
0.0551234
0.0524151
0.0501279
0.0481721
0.0464793
0.0450018
0.0437177
0.042568
0.0415183
0.0405483
0.0396453
0.0388005
0.0380075
0.0372614
0.036558
0.0358941
0.0352668
0.0346734
0.0341115
0.0335786
0.0330724
0.0325907
0.032131
0.0316911
0.031269
0.0308626
0.03047
0.0300896
0.02972
0.0293597
0.0290075
0.0286624
0.0283228
0.0279869
0.0276523
0.0273141
0.0269639
0.0265752
0.0261416
0.0833688
0.0716344
0.0632061
0.0568566
0.0519149
0.0479721
0.0447625
0.042105
0.0398724
0.0379727
0.036338
0.0349168
0.0336698
0.0325662
0.0315817
0.030697
0.0298963
0.0291671
0.028499
0.0278838
0.0273149
0.0267872
0.0262968
0.0258409
0.0254176
0.0250252
0.0246624
0.0243276
0.0240186
0.0237336
0.0234709
0.0232298
0.0230089
0.0228077
0.0226159
0.0224339
0.0222044
0.022826
0.0446902
0.0782021
0.104253
0.115099
0.114963
0.10858
0.0995154
0.0900388
0.0812905
0.0736977
0.0673192
0.0620539
0.0577421
0.0542216
0.0513462
0.0490187
0.0471052
0.0454843
0.0440779
0.0428331
0.0417134
0.0406934
0.0397553
0.0388861
0.0380768
0.0373201
0.0366108
0.0359444
0.0353173
0.0347261
0.0341679
0.0336396
0.0331385
0.0326618
0.0322066
0.0317706
0.0313512
0.0309462
0.0305536
0.0301719
0.0297998
0.0294361
0.0290802
0.0287317
0.0283901
0.0280549
0.0277252
0.0273995
0.0270734
0.02674
0.0263695
0.0259388
0.0833683
0.0716332
0.063204
0.0568535
0.0519106
0.0479663
0.0447549
0.0420952
0.0398601
0.0379574
0.036319
0.0348936
0.0336417
0.0325323
0.0315411
0.0306486
0.0298389
0.0290993
0.0284195
0.0277911
0.0272076
0.026664
0.0261568
0.0256835
0.0252429
0.0248342
0.0244566
0.0241086
0.023788
0.0234928
0.0232224
0.0229795
0.0227689
0.0226019
0.02248
0.022419
0.0223238
0.02295
0.0439957
0.0772745
0.103674
0.114906
0.114993
0.108823
0.0999537
0.0906596
0.0820594
0.0745591
0.0682076
0.0628951
0.0584684
0.0547924
0.0517871
0.0492749
0.0471385
0.0452961
0.0436883
0.0422707
0.0410095
0.0398784
0.0388571
0.0379293
0.0370821
0.036305
0.0355893
0.0349277
0.0343136
0.0337413
0.0332054
0.0327009
0.032223
0.0317673
0.0313297
0.0309066
0.030495
0.0300925
0.0296972
0.0293082
0.0289249
0.0285474
0.028176
0.0278114
0.0274541
0.0271045
0.0267624
0.0264266
0.0260935
0.0257577
0.0253891
0.0249914
0.083368
0.0716324
0.0632025
0.0568511
0.0519069
0.0479612
0.044748
0.0420862
0.0398485
0.0379428
0.0363008
0.034871
0.033614
0.0324985
0.0315002
0.0305993
0.0297799
0.029029
0.028336
0.0276926
0.027092
0.0265296
0.0260021
0.0255078
0.0250463
0.0246181
0.0242237
0.0238615
0.0235287
0.0232228
0.0229451
0.0227052
0.0225215
0.0224365
0.0224908
0.0227594
0.0230032
0.023652
0.0417944
0.0720104
0.0970186
0.108726
0.109742
0.104522
0.0967998
0.0887705
0.0813649
0.0748576
0.0692287
0.0643632
0.060136
0.0564754
0.0533098
0.0505335
0.0480806
0.0459056
0.043974
0.0422573
0.0407306
0.0393715
0.0381601
0.0370782
0.0361096
0.0352398
0.0344556
0.0337453
0.0330981
0.0325041
0.031954
0.0314394
0.0309526
0.0304868
0.030036
0.0295953
0.0291607
0.0287294
0.0282995
0.0278701
0.0274406
0.0270113
0.0265829
0.0261572
0.025737
0.0253259
0.0249305
0.0245538
0.0242095
0.023887
0.0235689
0.0232058
0.0833678
0.0716318
0.0632014
0.0568492
0.051904
0.0479569
0.044742
0.0420781
0.0398379
0.0379292
0.0362836
0.0348495
0.0335872
0.0324656
0.03146
0.0305503
0.0297204
0.028957
0.0282494
0.0275887
0.0269684
0.0263835
0.0258312
0.0253108
0.0248234
0.0243715
0.0239578
0.0235814
0.0232377
0.0229241
0.0226452
0.0224249
0.0223127
0.0224267
0.0229295
0.024047
0.02497
0.0254978
0.02649
0.0302835
0.0372645
0.0447218
0.0510687
0.0561372
0.0596528
0.0616352
0.0622941
0.0618944
0.0606937
0.0589247
0.056788
0.0544508
0.0520697
0.0497329
0.0474928
0.0453846
0.0434288
0.0416351
0.0400037
0.0385298
0.0372041
0.0360153
0.0349507
0.0339973
0.0331421
0.0323721
0.0316746
0.0310374
0.0304485
0.0298966
0.0293713
0.0288634
0.0283649
0.0278689
0.0273704