/*--------------------------------*- C++ -*----------------------------------*\
| =========                 |                                                 |
| \\      /  F ield         | OpenFOAM: The Open Source CFD Toolbox           |
|  \\    /   O peration     | Version:  v2012                                 |
|   \\  /    A nd           | Website:  www.openfoam.com                      |
|    \\/     M anipulation  |                                                 |
\*---------------------------------------------------------------------------*/
FoamFile
{
    version     2.0;
    format      ascii;
    class       volScalarField;
    location    "450/air";
    object      nut;
}
// * * * * * * * * * * * * * * * * * * * * * * * * * * * * * * * * * * * * * //

dimensions      [0 2 -1 0 0 0 0];


internalField   nonuniform List<scalar> 
287104
(
0.00648531
0.00601335
0.0056504
0.00536107
0.00512493
0.00492875
0.00476347
0.00462255
0.00450119
0.00439576
0.00430346
0.00422212
0.00415
0.00408571
0.00402813
0.00397631
0.0039295
0.00388705
0.00384841
0.00381313
0.00378081
0.00375112
0.00372378
0.00369853
0.00367515
0.00365346
0.00363328
0.00361447
0.00359691
0.00358046
0.00356504
0.00355054
0.00353688
0.00352398
0.00351178
0.00350021
0.00348921
0.00347873
0.00346872
0.00345913
0.00344992
0.00344106
0.0034325
0.00342422
0.00341618
0.00340837
0.00340076
0.00339333
0.00338607
0.00337895
0.00337197
0.00336511
0.00335837
0.00335175
0.00334523
0.00333881
0.0033325
0.00332628
0.00332016
0.00331414
0.00330822
0.00330239
0.00329665
0.00329102
0.00328547
0.00328001
0.00327465
0.00326937
0.00326418
0.00325906
0.00325401
0.00324904
0.00324412
0.00323925
0.00323441
0.00322961
0.00322481
0.00322
0.00321517
0.00321028
0.00320531
0.00320021
0.00319493
0.00318938
0.00318344
0.00317691
0.00316953
0.00316037
0.00314969
0.00312527
0.00648518
0.00601308
0.00564999
0.00536056
0.00512432
0.00492807
0.00476271
0.00462173
0.00450031
0.00439483
0.00430249
0.00422112
0.00414898
0.00408469
0.0040271
0.00397528
0.00392848
0.00388603
0.00384741
0.00381214
0.00377984
0.00375018
0.00372286
0.00369763
0.00367428
0.00365261
0.00363247
0.0036137
0.00359617
0.00357978
0.00356441
0.00354997
0.00353638
0.00352356
0.00351144
0.00349995
0.00348905
0.00347867
0.00346876
0.00345928
0.00345019
0.00344144
0.003433
0.00342483
0.00341692
0.00340922
0.00340172
0.00339439
0.00338722
0.00338019
0.00337329
0.00336652
0.00335985
0.00335328
0.00334681
0.00334044
0.00333416
0.00332797
0.00332187
0.00331586
0.00330994
0.00330411
0.00329837
0.00329272
0.00328715
0.00328168
0.00327629
0.00327099
0.00326576
0.00326061
0.00325553
0.00325052
0.00324556
0.00324064
0.00323577
0.00323091
0.00322607
0.00322121
0.00321631
0.00321136
0.00320631
0.00320113
0.00319576
0.00319013
0.00318411
0.0031775
0.00317006
0.00316086
0.00315016
0.00312601
0.00648513
0.00601296
0.00564983
0.00536034
0.00512405
0.00492774
0.00476234
0.00462132
0.00449986
0.00439435
0.00430198
0.00422059
0.00414844
0.00408414
0.00402654
0.00397474
0.00392794
0.0038855
0.00384688
0.00381163
0.00377935
0.00374969
0.00372239
0.00369718
0.00367385
0.00365221
0.0036321
0.00361336
0.00359587
0.00357952
0.0035642
0.00354981
0.00353628
0.00352353
0.00351148
0.00350008
0.00348927
0.00347898
0.00346917
0.0034598
0.00345081
0.00344217
0.00343384
0.00342579
0.00341799
0.00341041
0.00340302
0.00339581
0.00338876
0.00338184
0.00337506
0.00336839
0.00336183
0.00335537
0.00334901
0.00334274
0.00333657
0.00333049
0.0033245
0.0033186
0.00331279
0.00330708
0.00330145
0.00329592
0.00329048
0.00328513
0.00327987
0.0032747
0.00326961
0.00326459
0.00325965
0.00325478
0.00324997
0.00324521
0.00324049
0.00323579
0.00323109
0.00322639
0.00322165
0.00321686
0.00321196
0.00320694
0.00320172
0.00319624
0.00319038
0.00318396
0.00317672
0.00316778
0.00315739
0.00313401
0.00648507
0.00601283
0.00564962
0.00536006
0.00512369
0.00492731
0.00476183
0.00462074
0.00449921
0.00439364
0.00430123
0.0042198
0.00414762
0.0040833
0.0040257
0.00397389
0.00392709
0.00388465
0.00384603
0.00381078
0.00377849
0.00374884
0.00372153
0.00369633
0.003673
0.00365137
0.00363127
0.00361255
0.00359508
0.00357876
0.00356348
0.00354914
0.00353566
0.00352297
0.003511
0.00349968
0.00348895
0.00347876
0.00346906
0.00345979
0.00345091
0.00344239
0.00343417
0.00342624
0.00341855
0.00341107
0.00340379
0.00339668
0.00338972
0.00338289
0.00337619
0.00336959
0.0033631
0.0033567
0.00335039
0.00334417
0.00333804
0.00333199
0.00332603
0.00332015
0.00331436
0.00330866
0.00330305
0.00329752
0.00329208
0.00328673
0.00328146
0.00327627
0.00327117
0.00326613
0.00326117
0.00325627
0.00325142
0.00324661
0.00324183
0.00323706
0.00323229
0.00322749
0.00322264
0.0032177
0.00321265
0.00320743
0.003202
0.00319628
0.00319017
0.00318348
0.00317597
0.00316678
0.00315615
0.00313264
0.00648503
0.00601272
0.00564945
0.00535983
0.00512339
0.00492694
0.00476139
0.00462023
0.00449863
0.004393
0.00430053
0.00421907
0.00414687
0.00408253
0.00402493
0.00397312
0.00392632
0.00388389
0.00384528
0.00381003
0.00377775
0.0037481
0.0037208
0.0036956
0.00367228
0.00365066
0.00363058
0.00361188
0.00359445
0.00357816
0.00356293
0.00354865
0.00353524
0.00352263
0.00351074
0.00349952
0.0034889
0.00347883
0.00346925
0.00346011
0.00345137
0.00344298
0.00343491
0.00342711
0.00341956
0.00341223
0.00340508
0.0033981
0.00339126
0.00338456
0.00337797
0.00337148
0.00336509
0.00335879
0.00335258
0.00334645
0.0033404
0.00333444
0.00332856
0.00332276
0.00331705
0.00331142
0.00330588
0.00330042
0.00329505
0.00328977
0.00328457
0.00327944
0.0032744
0.00326942
0.00326451
0.00325966
0.00325485
0.00325008
0.00324533
0.00324058
0.00323582
0.00323101
0.00322613
0.00322115
0.00321602
0.0032107
0.00320515
0.00319929
0.00319303
0.00318619
0.00317857
0.00316933
0.00315871
0.00313546
0.00648498
0.00601261
0.00564927
0.00535957
0.00512305
0.00492652
0.00476088
0.00461962
0.00449794
0.00439222
0.00429971
0.00421822
0.00414601
0.00408169
0.00402409
0.00397229
0.0039255
0.00388307
0.00384446
0.00380921
0.00377692
0.00374726
0.00371995
0.00369474
0.00367142
0.00364981
0.00362974
0.00361107
0.00359367
0.00357743
0.00356226
0.00354805
0.00353474
0.00352224
0.00351048
0.0034994
0.00348893
0.00347903
0.00346963
0.00346069
0.00345216
0.00344399
0.00343614
0.00342857
0.00342125
0.00341415
0.00340723
0.00340048
0.00339387
0.00338739
0.00338103
0.00337477
0.0033686
0.00336252
0.00335653
0.00335062
0.0033448
0.00333906
0.0033334
0.00332784
0.00332237
0.00331698
0.0033117
0.0033065
0.00330141
0.00329641
0.0032915
0.00328668
0.00328195
0.00327731
0.00327274
0.00326824
0.0032638
0.00325941
0.00325506
0.00325073
0.00324639
0.00324203
0.00323761
0.0032331
0.00322846
0.00322364
0.00321862
0.00321335
0.00320777
0.00320172
0.00319505
0.00318702
0.00317785
0.0031572
0.00648493
0.0060125
0.00564909
0.00535931
0.00512271
0.00492608
0.00476033
0.00461894
0.00449713
0.00439127
0.00429865
0.00421709
0.00414485
0.00408052
0.00402293
0.00397115
0.00392437
0.00388195
0.00384335
0.0038081
0.00377581
0.00374615
0.00371885
0.00369365
0.00367034
0.00364875
0.00362871
0.00361009
0.00359276
0.00357662
0.00356155
0.00354749
0.00353434
0.00352203
0.00351049
0.00349965
0.00348946
0.00347985
0.00347077
0.00346217
0.00345399
0.00344619
0.00343872
0.00343152
0.00342455
0.0034178
0.00341124
0.00340484
0.0033986
0.00339248
0.00338649
0.00338059
0.00337479
0.00336909
0.00336347
0.00335794
0.00335251
0.00334716
0.0033419
0.00333674
0.00333169
0.00332673
0.00332189
0.00331716
0.00331254
0.00330803
0.00330364
0.00329937
0.00329522
0.00329118
0.00328725
0.00328344
0.00327973
0.00327611
0.00327259
0.00326913
0.00326574
0.00326237
0.00325901
0.00325561
0.00325212
0.00324851
0.00324478
0.0032409
0.00323685
0.00323254
0.00322791
0.00322253
0.00321669
0.00320153
0.00648488
0.00601239
0.00564891
0.00535905
0.00512235
0.00492561
0.00475973
0.0046182
0.00449623
0.00439025
0.00429755
0.00421601
0.00414383
0.00407955
0.00402201
0.00397024
0.00392346
0.00388101
0.00384235
0.00380701
0.00377463
0.00374487
0.00371747
0.00369217
0.00366879
0.00364714
0.00362708
0.00360847
0.00359118
0.00357512
0.00356019
0.0035463
0.00353334
0.00352124
0.00350994
0.00349937
0.00348947
0.00348017
0.00347142
0.00346315
0.0034553
0.00344782
0.00344066
0.00343377
0.00342711
0.00342066
0.00341437
0.00340824
0.00340223
0.00339633
0.00339053
0.00338483
0.00337923
0.00337372
0.0033683
0.00336298
0.00335776
0.00335264
0.00334762
0.00334272
0.00333792
0.00333323
0.00332866
0.00332421
0.00331988
0.00331566
0.00331155
0.00330756
0.00330369
0.00329992
0.00329625
0.00329268
0.00328919
0.00328579
0.00328246
0.00327919
0.00327595
0.00327271
0.00326945
0.00326609
0.00326258
0.00325891
0.00325507
0.00325109
0.00324693
0.00324258
0.00323804
0.00323318
0.0032292
0.0032213
0.00648484
0.00601228
0.00564872
0.00535876
0.00512195
0.00492506
0.00475899
0.00461719
0.00449484
0.00438838
0.00429589
0.00421532
0.00414445
0.00408143
0.00402484
0.00397358
0.00392684
0.00388402
0.00384464
0.00380836
0.00377486
0.00374393
0.00371534
0.00368894
0.00366455
0.00364203
0.00362123
0.00360203
0.00358431
0.00356795
0.00355283
0.00353885
0.00352592
0.00351396
0.00350288
0.00349259
0.003483
0.00347405
0.00346561
0.00345763
0.00345001
0.0034427
0.00343565
0.00342882
0.00342216
0.00341565
0.00340929
0.00340306
0.00339696
0.00339097
0.0033851
0.00337934
0.00337368
0.00336811
0.00336265
0.00335728
0.00335202
0.00334687
0.00334184
0.00333691
0.0033321
0.00332742
0.00332285
0.00331841
0.00331408
0.00330989
0.00330581
0.00330186
0.00329803
0.00329433
0.00329074
0.00328727
0.00328391
0.00328065
0.0032775
0.00327443
0.00327143
0.00326849
0.00326555
0.00326249
0.00325919
0.00325573
0.00325219
0.00324858
0.00324489
0.00324106
0.00323709
0.00323285
0.00322935
0.00322355
0.00648479
0.00601217
0.00564853
0.00535848
0.00512156
0.00492452
0.00475826
0.00461621
0.00449351
0.0043868
0.00435488
0.00433925
0.00431517
0.00427812
0.00423022
0.00417524
0.00411667
0.00405721
0.00399879
0.00394271
0.00388981
0.00384057
0.00379522
0.00375381
0.00371627
0.00368243
0.00365202
0.00362469
0.00360006
0.00357769
0.00355712
0.00353782
0.0035211
0.00350711
0.00349519
0.00348485
0.00347567
0.00346734
0.00345965
0.00345242
0.00344552
0.00343885
0.00343233
0.00342591
0.0034198
0.00341407
0.00340872
0.00340371
0.003399
0.00339453
0.00339027
0.00338617
0.00338221
0.00337838
0.00337467
0.00337106
0.00336757
0.00336419
0.00336091
0.00335774
0.00335467
0.00335171
0.00334884
0.00334608
0.00334342
0.00334086
0.0033384
0.00333604
0.00333379
0.00333163
0.00332958
0.00332764
0.00332582
0.0033241
0.00332249
0.00332098
0.00331956
0.00331819
0.00331686
0.00331533
0.0033065
0.00329609
0.00328601
0.0032768
0.00326853
0.00326105
0.00325418
0.00324756
0.00324193
0.00323411
0.00648475
0.00601206
0.00564834
0.00535819
0.00512111
0.00492386
0.00475722
0.00461451
0.00448997
0.00438981
0.00774259
0.00847647
0.00847132
0.00821854
0.00789838
0.00757915
0.00728583
0.00702624
0.0068014
0.00660974
0.00644882
0.00631592
0.00620825
0.00612299
0.00605731
0.00600834
0.00597324
0.00594926
0.00593378
0.00592444
0.00591922
0.0059164
0.00591529
0.00591584
0.00591774
0.00592043
0.00592339
0.00592627
0.0059289
0.00593122
0.00593331
0.00593534
0.00593715
0.0059388
0.00594023
0.00594162
0.00594333
0.0059457
0.00594904
0.00595362
0.00595959
0.00596706
0.00597612
0.00598682
0.00599916
0.0060131
0.00602867
0.00604589
0.0060648
0.00608537
0.00610757
0.00613138
0.00615674
0.00618359
0.00621187
0.00624148
0.00627234
0.00630436
0.00633743
0.00637142
0.0064062
0.00644164
0.0064776
0.006514
0.00655082
0.00658809
0.00662617
0.00666583
0.00671174
0.00675407
0.00540015
0.00460038
0.00410543
0.00378978
0.00358475
0.00344999
0.00336062
0.00330035
0.00325985
0.00322692
0.0064847
0.00601195
0.00564815
0.00535791
0.00512073
0.00492334
0.00475651
0.00461356
0.0044887
0.00438819
0.00774237
0.0084778
0.0084708
0.00821368
0.00788772
0.0075618
0.00726133
0.00699448
0.00676252
0.00656409
0.00639693
0.0062585
0.00614619
0.0060573
0.00598908
0.00593872
0.00590334
0.00588009
0.00586621
0.00585914
0.00585659
0.00585659
0.00585753
0.00585818
0.00585763
0.00585524
0.00585058
0.00584335
0.00583339
0.00582065
0.00580515
0.00578694
0.00576657
0.00574426
0.00572021
0.0056947
0.00566804
0.00564054
0.00561241
0.00558384
0.00555503
0.00552621
0.00549757
0.00546931
0.00544166
0.00541483
0.00538909
0.00536474
0.00534198
0.00532107
0.00530234
0.00528612
0.00527276
0.0052626
0.00525596
0.00525315
0.00525443
0.00526004
0.00527015
0.00528485
0.00530419
0.00532815
0.00535663
0.00538949
0.00542653
0.00546757
0.00551278
0.00556227
0.00562037
0.00567624
0.00473593
0.00415767
0.00378638
0.00354122
0.00337689
0.00326602
0.00319102
0.00313902
0.003102
0.0030639
0.00648466
0.00601184
0.00564798
0.00535765
0.00512035
0.00492282
0.00475579
0.00461257
0.00448733
0.00438632
0.00773491
0.00847079
0.00846539
0.00820979
0.00788494
0.00755962
0.0072593
0.00699227
0.00675994
0.00656114
0.00639377
0.00625546
0.00614372
0.00605602
0.00598969
0.00594194
0.00590991
0.00589069
0.00588143
0.00587948
0.00588243
0.00588823
0.00589518
0.00590196
0.00590759
0.00591143
0.00591304
0.00591215
0.00590862
0.00590244
0.00589364
0.00588232
0.00586862
0.00585274
0.00583488
0.00581529
0.00579424
0.00577197
0.00574874
0.00572476
0.00570026
0.00567538
0.00565026
0.00562498
0.00559958
0.00557406
0.00554837
0.0055224
0.00549615
0.00546961
0.00544272
0.00541542
0.00538767
0.00535942
0.00533065
0.00530137
0.0052716
0.0052414
0.00521085
0.00518005
0.00514915
0.00511833
0.00508785
0.00505801
0.0050292
0.00500192
0.004977
0.0049551
0.00494049
0.00492243
0.00413217
0.00366391
0.00337284
0.00318386
0.00305635
0.00296727
0.00290296
0.00285331
0.00281313
0.00276151
0.00648462
0.00601174
0.00564781
0.00535741
0.00512003
0.00492239
0.00475525
0.0046119
0.00448651
0.00438537
0.00773233
0.00846835
0.00846327
0.00820781
0.00788289
0.00755733
0.00725665
0.0069892
0.00675645
0.00655728
0.00638962
0.00625114
0.0061394
0.00605187
0.0059859
0.00593875
0.00590753
0.00588933
0.00588131
0.00588078
0.0058853
0.00589281
0.00590159
0.00591032
0.00591803
0.00592403
0.00592786
0.00592922
0.00592791
0.00592389
0.00591715
0.00590777
0.00589589
0.00588169
0.00586547
0.00584756
0.00582835
0.00580823
0.00578754
0.00576665
0.00574584
0.00572539
0.00570629
0.00568861
0.00567219
0.00565685
0.00564246
0.00562891
0.00561615
0.00560421
0.00559316
0.00558306
0.00557393
0.00556573
0.00555846
0.0055521
0.00554664
0.005542
0.00553811
0.00553487
0.00553217
0.00552991
0.00552797
0.00552624
0.00552463
0.00552317
0.00552222
0.00552253
0.00552901
0.00554336
0.00466899
0.00417323
0.00387312
0.00367897
0.00354414
0.00344306
0.00336107
0.003292
0.003235
0.00317107
0.00648458
0.00601164
0.00564765
0.00535718
0.00511973
0.00492201
0.00475477
0.00461131
0.00448579
0.0043845
0.00772916
0.00846469
0.00845958
0.00820421
0.00787937
0.00755383
0.0072531
0.00698552
0.00675261
0.00655324
0.00638542
0.00624682
0.00613503
0.00604756
0.00598177
0.00593492
0.00590413
0.00588648
0.00587912
0.00587933
0.00588468
0.00589309
0.00590285
0.00591262
0.00592143
0.00592856
0.00593353
0.00593597
0.00593563
0.00593237
0.0059261
0.00591684
0.00590469
0.00588981
0.00587254
0.00585326
0.00583242
0.00581046
0.0057878
0.00576481
0.00574183
0.00571912
0.0056969
0.00567533
0.00565453
0.00563456
0.00561547
0.00559728
0.00558027
0.00556473
0.00555053
0.00553749
0.00552547
0.00551435
0.00550408
0.00549467
0.00548618
0.00547872
0.00547236
0.00546716
0.0054632
0.00546055
0.00545935
0.00545971
0.00546185
0.00546606
0.00547298
0.00548358
0.00550283
0.00553264
0.00467295
0.00419329
0.00391032
0.00373421
0.00361828
0.003537
0.00347562
0.0034241
0.0033744
0.00330895
0.00648454
0.00601155
0.0056475
0.00535698
0.00511947
0.00492169
0.00475439
0.00461086
0.00448527
0.0043839
0.00772695
0.00846184
0.00845633
0.00820062
0.00787547
0.00754964
0.00724864
0.00698082
0.0067477
0.00654817
0.00638024
0.00624161
0.00612986
0.00604249
0.00597689
0.0059303
0.00589982
0.00588253
0.00587554
0.00587616
0.00588194
0.00589079
0.00590102
0.00591131
0.00592069
0.00592845
0.00593407
0.00593712
0.00593726
0.00593423
0.00592782
0.00591793
0.00590458
0.00588795
0.00586839
0.00584638
0.00582247
0.00579719
0.00577104
0.00574447
0.00571784
0.00569144
0.00566547
0.00564008
0.00561535
0.00559133
0.00556804
0.00554544
0.00552349
0.00550214
0.00548132
0.00546098
0.00544103
0.00542142
0.00540205
0.00538286
0.0053638
0.0053448
0.0053258
0.00530673
0.00528755
0.00526825
0.00524883
0.00522928
0.00520966
0.00519007
0.00517085
0.00515215
0.00513708
0.00511612
0.00431888
0.00386481
0.00359473
0.00342545
0.00331201
0.00322945
0.00316364
0.0031051
0.00304967
0.00297579
0.0064845
0.00601146
0.00564737
0.0053568
0.00511925
0.00492143
0.00475411
0.00461056
0.00448496
0.00438358
0.00772578
0.00845996
0.00845368
0.00819722
0.00787135
0.00754485
0.00724328
0.00697501
0.00674156
0.00654184
0.00637384
0.00623527
0.0061237
0.00603661
0.00597136
0.00592512
0.005895
0.00587801
0.00587126
0.00587202
0.00587786
0.00588675
0.00589703
0.00590744
0.00591708
0.00592526
0.00593146
0.0059352
0.00593598
0.00593338
0.00592694
0.00591637
0.0059016
0.00588276
0.00586029
0.00583481
0.00580702
0.00577761
0.0057472
0.00571633
0.0056854
0.00565474
0.00562455
0.00559495
0.005566
0.0055377
0.00551001
0.00548286
0.00545617
0.00542987
0.00540385
0.00537804
0.00535234
0.00532667
0.00530096
0.00527513
0.00524911
0.00522288
0.0051964
0.00516965
0.00514265
0.00511544
0.00508808
0.00506071
0.00503354
0.00500683
0.00498115
0.00495681
0.00493735
0.00491221
0.00413227
0.00367831
0.00340189
0.00322549
0.00310689
0.00302229
0.00295796
0.00290404
0.00285664
0.00279306
0.00648446
0.00601137
0.00564724
0.00535663
0.00511905
0.00492121
0.00475388
0.00461032
0.00448473
0.00438332
0.00772376
0.00845647
0.00844905
0.0081918
0.00786545
0.00753872
0.00723711
0.00696894
0.00673571
0.00653634
0.00636885
0.00623097
0.00612029
0.00603428
0.00597026
0.00592536
0.00589657
0.00588087
0.00587532
0.00587721
0.00588419
0.00589431
0.00590608
0.00591838
0.0059304
0.00594153
0.00595119
0.00595871
0.0059633
0.00596407
0.00596011
0.00595075
0.00593576
0.00591533
0.00589017
0.00586129
0.00582979
0.00579673
0.00576303
0.00572945
0.00569653
0.00566464
0.005634
0.0056047
0.00557675
0.00555006
0.00552456
0.00550014
0.00547673
0.00545429
0.00543274
0.00541206
0.00539221
0.00537318
0.00535499
0.00533767
0.00532128
0.00530589
0.00529161
0.00527856
0.00526686
0.00525667
0.00524817
0.00524156
0.00523712
0.0052352
0.00523642
0.0052413
0.00525422
0.00526698
0.00443012
0.0039435
0.00364733
0.00345913
0.00333438
0.00324806
0.00318549
0.00313666
0.00309606
0.00304694
0.00648442
0.00601129
0.00564712
0.00535649
0.0051189
0.00492109
0.00475382
0.00461041
0.00448506
0.004384
0.00772695
0.00845809
0.00844832
0.00818891
0.00786091
0.00753332
0.00723186
0.00696507
0.00673467
0.00653978
0.00637854
0.00624864
0.00614749
0.0060722
0.00601959
0.00598632
0.00596897
0.00596421
0.00596902
0.00598078
0.00599732
0.00601696
0.00603845
0.00606088
0.00608353
0.00610574
0.00612668
0.00614518
0.00615971
0.00616844
0.00616952
0.0061616
0.00614423
0.00611793
0.00608412
0.0060448
0.00600209
0.00595805
0.00591445
0.0058727
0.00583381
0.00579845
0.00576695
0.00573939
0.00571565
0.00569549
0.00567874
0.00566521
0.00565464
0.00564671
0.00564109
0.0056375
0.00563571
0.00563555
0.00563692
0.00563977
0.00564406
0.0056498
0.005657
0.00566568
0.00567585
0.00568754
0.0057008
0.00571569
0.00573234
0.00575101
0.00577237
0.00579736
0.00583258
0.00588061
0.00490918
0.00433762
0.00398065
0.00374677
0.00358749
0.00347538
0.00339396
0.00333214
0.00328248
0.00323192
0.00648438
0.00601121
0.005647
0.00535635
0.00511876
0.00492096
0.00475375
0.00461042
0.00448524
0.0043843
0.00772135
0.00844943
0.008441
0.00818529
0.00786525
0.00755154
0.00727095
0.00703235
0.00683699
0.00668271
0.00656575
0.00648156
0.00642525
0.00639194
0.00637699
0.00637623
0.00638607
0.00640357
0.00642642
0.0064529
0.00648178
0.00651224
0.00654374
0.00657595
0.00660858
0.00664126
0.00667326
0.00670331
0.00672944
0.00674886
0.00675838
0.00675521
0.00673774
0.00670579
0.00666072
0.00660494
0.00654148
0.00647358
0.00640441
0.00633693
0.00627369
0.00621679
0.00616777
0.00612765
0.00609686
0.00607526
0.00606403
0.00606274
0.00606945
0.006082
0.0060985
0.00611751
0.00613807
0.00615953
0.00618152
0.00620384
0.00622639
0.00624914
0.00627209
0.00629526
0.00631866
0.00634232
0.00636627
0.00639056
0.00641531
0.00644078
0.00646766
0.0064972
0.00653519
0.00657768
0.00532844
0.00459376
0.00413869
0.0038459
0.00365218
0.00352112
0.00343072
0.00336687
0.003321
0.00328291
0.00648435
0.00601113
0.0056469
0.00535624
0.00511867
0.00492097
0.004754
0.00461122
0.00448775
0.00438015
0.00430464
0.00423897
0.0041717
0.00410923
0.00405077
0.00399611
0.00394521
0.00389803
0.00385446
0.0038144
0.00377768
0.00374415
0.00371359
0.00368584
0.00366069
0.00363795
0.00361744
0.00359899
0.00358246
0.00356769
0.00355459
0.00354306
0.00353303
0.0035245
0.00351745
0.00351193
0.00350796
0.00350553
0.00350454
0.00350473
0.00350566
0.00350675
0.00350744
0.00350724
0.00350583
0.00350295
0.00349856
0.00349278
0.00348577
0.00347778
0.00346904
0.00345983
0.00345037
0.0034409
0.00343161
0.00342265
0.00341416
0.00340624
0.00339892
0.00339223
0.00338616
0.00338066
0.00337569
0.00337119
0.0033671
0.00336338
0.00335998
0.00335685
0.00335396
0.00335127
0.00334877
0.00334643
0.00334423
0.00334217
0.00334022
0.00333839
0.00333664
0.00333496
0.00333334
0.00333156
0.00332333
0.00331366
0.00330424
0.00329557
0.00328771
0.00328059
0.00327408
0.00326793
0.00326279
0.00325531
0.00648431
0.00601105
0.00564678
0.0053561
0.00511853
0.00492084
0.00475391
0.00461122
0.0044879
0.00438042
0.00428629
0.00420344
0.00412997
0.00406439
0.00400549
0.00395231
0.00390407
0.00386014
0.00381999
0.0037832
0.0037494
0.00371831
0.00368967
0.00366328
0.00363895
0.00361655
0.00359594
0.00357703
0.00355972
0.00354396
0.0035297
0.00351691
0.00350559
0.00349578
0.00348757
0.00348107
0.00347643
0.00347372
0.00347294
0.00347381
0.00347572
0.00347788
0.00347954
0.00348007
0.00347912
0.00347657
0.00347246
0.00346691
0.00346012
0.00345232
0.00344376
0.00343466
0.00342523
0.00341565
0.00340607
0.0033966
0.00338736
0.00337843
0.00336988
0.00336175
0.00335407
0.00334688
0.00334017
0.00333394
0.00332819
0.00332289
0.00331803
0.00331359
0.00330955
0.00330587
0.00330253
0.00329952
0.00329679
0.00329434
0.00329212
0.00329012
0.0032883
0.00328662
0.00328503
0.00328339
0.00328157
0.00327962
0.00327762
0.00327559
0.00327353
0.00327139
0.00326917
0.00326668
0.00326472
0.00325946
0.00648428
0.00601098
0.00564667
0.00535596
0.00511838
0.00492071
0.00475384
0.00461127
0.00448818
0.004381
0.00428704
0.00420413
0.00413049
0.00406467
0.0040055
0.00395203
0.0039035
0.00385926
0.00381878
0.00378163
0.00374745
0.00371594
0.00368684
0.00365995
0.00363509
0.00361212
0.00359091
0.00357138
0.00355344
0.00353703
0.00352213
0.00350872
0.00349682
0.00348652
0.00347796
0.00347136
0.00346701
0.00346521
0.00346615
0.00346951
0.00347442
0.00347971
0.00348419
0.003487
0.00348768
0.00348612
0.0034824
0.00347675
0.00346944
0.00346081
0.00345123
0.00344098
0.00343032
0.00341938
0.00340841
0.00339761
0.00338713
0.00337711
0.00336763
0.00335874
0.00335049
0.0033429
0.00333598
0.00332973
0.00332412
0.00331915
0.00331479
0.00331101
0.00330778
0.00330506
0.00330282
0.00330103
0.00329964
0.0032986
0.00329789
0.00329744
0.00329721
0.00329713
0.00329714
0.00329715
0.00329706
0.00329681
0.00329639
0.00329576
0.00329488
0.00329363
0.00329193
0.00328938
0.00328622
0.00327625
0.00648424
0.00601089
0.00564655
0.0053558
0.00511818
0.00492048
0.00475359
0.00461099
0.00448787
0.00438063
0.00428651
0.00420336
0.00412942
0.00406329
0.0040038
0.00395002
0.00390117
0.00385661
0.0038158
0.00377831
0.00374378
0.0037119
0.00368242
0.00365514
0.00362988
0.00360651
0.00358489
0.00356495
0.00354659
0.00352976
0.00351442
0.00350058
0.00348826
0.00347758
0.00346873
0.00346207
0.00345811
0.00345749
0.00346093
0.00346828
0.0034783
0.00348912
0.00349875
0.00350581
0.00350969
0.00351031
0.00350788
0.00350277
0.00349545
0.00348642
0.00347635
0.00346554
0.00345433
0.00344301
0.00343181
0.00342095
0.0034106
0.00340089
0.00339194
0.00338382
0.00337659
0.00337027
0.00336488
0.00336041
0.00335681
0.00335404
0.00335204
0.00335074
0.00335004
0.00334987
0.00335012
0.00335069
0.00335149
0.00335242
0.00335339
0.0033543
0.00335506
0.0033556
0.00335583
0.00335566
0.00335502
0.00335382
0.00335202
0.00334958
0.00334645
0.00334253
0.00333774
0.0033316
0.00332425
0.00330917
0.0064842
0.00601081
0.00564642
0.00535563
0.00511797
0.00492023
0.0047533
0.00461066
0.00448751
0.00438021
0.00428599
0.00420267
0.00412851
0.00406211
0.00400231
0.00394818
0.00389894
0.00385397
0.00381274
0.0037748
0.0037398
0.00370744
0.00367748
0.0036497
0.00362395
0.00360009
0.003578
0.00355758
0.00353874
0.00352143
0.0035056
0.00349123
0.00347834
0.00346705
0.00345759
0.00345048
0.00344647
0.00344691
0.00345422
0.00346973
0.00349218
0.00351778
0.00354193
0.00356182
0.00357635
0.00358547
0.0035897
0.00358983
0.00358672
0.00358116
0.00357474
0.00356821
0.00356199
0.00355642
0.00355171
0.003548
0.00354534
0.00354369
0.00354296
0.00354301
0.00354366
0.00354473
0.00354603
0.00354737
0.00354859
0.00354957
0.00355018
0.00355034
0.00354999
0.00354909
0.00354761
0.00354554
0.00354288
0.00353963
0.00353581
0.00353143
0.00352648
0.00352099
0.00351496
0.00350837
0.00350122
0.00349348
0.00348515
0.0034762
0.0034666
0.00345627
0.0034451
0.00343261
0.00341892
0.00339786
0.00648417
0.00601073
0.00564628
0.00535544
0.00511773
0.00491992
0.00475292
0.0046102
0.00448693
0.00437949
0.00428509
0.00420154
0.00412711
0.00406038
0.00400024
0.00394573
0.00389609
0.00385069
0.003809
0.00377059
0.00373509
0.00370222
0.00367172
0.00364341
0.00361712
0.00359272
0.00357009
0.00354914
0.00352978
0.00351192
0.00349551
0.0034805
0.00346687
0.00345473
0.00344426
0.00343613
0.00343135
0.00343271
0.00345071
0.00349552
0.0035657
0.00364634
0.00372208
0.00378698
0.00383948
0.00388048
0.00391183
0.00393549
0.00395322
0.00396645
0.00397565
0.00398387
0.00399068
0.0039956
0.00399826
0.00399844
0.00399611
0.00399135
0.00398434
0.00397533
0.00396459
0.00395239
0.00393901
0.00392468
0.00390962
0.00389402
0.00387804
0.00386181
0.00384544
0.00382902
0.00381261
0.00379627
0.00378003
0.00376392
0.00374793
0.00373208
0.00371634
0.0037007
0.00368513
0.00366959
0.00365404
0.00363843
0.00362271
0.00360682
0.00359069
0.00357419
0.00355718
0.00353914
0.00352006
0.00349447
0.00648413
0.00601064
0.00564615
0.00535525
0.00511747
0.00491959
0.00475251
0.00460969
0.00448631
0.00437872
0.00428414
0.00420037
0.00412567
0.00405864
0.00399814
0.00394324
0.00389316
0.00384728
0.00380507
0.0037661
0.00373001
0.00369651
0.00366538
0.00363641
0.00360947
0.00358442
0.00356116
0.00353958
0.00351959
0.0035011
0.003484
0.00346822
0.00345366
0.0034403
0.00342819
0.00341802
0.00341084
0.00341276
0.00348147
0.00366467
0.00392871
0.00419183
0.00440678
0.0045686
0.00468176
0.00475515
0.00479738
0.00481578
0.00481627
0.00480356
0.00478124
0.00475035
0.00471332
0.00467175
0.00462713
0.00458078
0.00453376
0.00448687
0.00444071
0.00439567
0.00435203
0.00430992
0.00426944
0.00423058
0.00419334
0.00415768
0.00412352
0.00409081
0.00405947
0.00402944
0.00400065
0.00397302
0.00394653
0.00392118
0.00389678
0.0038732
0.0038503
0.00382799
0.00380616
0.00378473
0.0037636
0.00374267
0.00372185
0.00370132
0.00368092
0.00366049
0.0036398
0.00361835
0.00359593
0.00356781
0.0064841
0.00601056
0.00564601
0.00535505
0.0051172
0.00491924
0.00475206
0.00460912
0.0044856
0.00437784
0.00428305
0.00419903
0.00412404
0.00405667
0.00399579
0.00394045
0.0038899
0.00384349
0.0038007
0.0037611
0.00372434
0.00369014
0.00365826
0.00362854
0.00360084
0.00357504
0.00355104
0.00352876
0.00350808
0.0034889
0.00347109
0.00345454
0.00343907
0.00342455
0.0034107
0.0033981
0.00338713
0.00339589
0.00373266
0.00442003
0.00512292
0.00561931
0.00589701
0.00601451
0.00602185
0.00596053
0.00586016
0.00574052
0.00561406
0.00548801
0.00536584
0.00524914
0.00513914
0.00503679
0.00494229
0.00485534
0.0047754
0.00470179
0.00463383
0.0045709
0.00451243
0.00445803
0.0044074
0.00436036
0.00431621
0.00427449
0.00423492
0.00419726
0.00416137
0.0041271
0.00409436
0.00406302
0.00403299
0.00400416
0.00397642
0.00394967
0.0039238
0.00389871
0.00387428
0.00385042
0.00382703
0.00380402
0.00378127
0.00375868
0.0037361
0.00371334
0.00369008
0.00366571
0.00364096
0.00361189
0.00648407
0.00601049
0.00564589
0.00535487
0.00511695
0.0049189
0.00475162
0.00460855
0.00448488
0.00437695
0.00428194
0.00419766
0.00412237
0.00405465
0.00399337
0.00393757
0.00388649
0.0038395
0.00379606
0.00375574
0.00371819
0.00368315
0.00365039
0.00361977
0.00359115
0.00356446
0.00353961
0.0035165
0.00349504
0.0034751
0.00345656
0.00343926
0.00342297
0.0034074
0.00339171
0.0033759
0.00335695
0.00339881
0.00464793
0.00608995
0.00701605
0.00740534
0.00741947
0.0072255
0.00693803
0.00662561
0.00632459
0.00605135
0.00581112
0.0056034
0.00542518
0.00527249
0.00514134
0.00502791
0.00492883
0.00484141
0.00476379
0.00469522
0.00463299
0.00457542
0.00452158
0.00447085
0.00442287
0.00437734
0.00433406
0.00429286
0.0042536
0.00421617
0.00418046
0.00414636
0.00411379
0.00408263
0.00405276
0.00402409
0.00399648
0.00396983
0.00394402
0.00391895
0.0038945
0.0038706
0.00384716
0.00382409
0.00380132
0.00377875
0.00375627
0.00373369
0.00371069
0.00368668
0.00365984
0.00362955
0.00648405
0.00601043
0.00564578
0.0053547
0.00511671
0.00491857
0.00475118
0.00460799
0.00448416
0.00437603
0.0042808
0.00419625
0.00412064
0.00405255
0.00399083
0.00393453
0.00388288
0.00383523
0.00379105
0.00374991
0.00371146
0.00367543
0.00364164
0.00360994
0.00358024
0.0035525
0.00352666
0.00350264
0.00348033
0.00345962
0.00344042
0.00342271
0.0034064
0.00339147
0.00337719
0.00336357
0.00334632
0.00339284
0.00474741
0.00628
0.00725094
0.00761879
0.00761429
0.0073999
0.0070843
0.00673855
0.00640281
0.00609644
0.00582662
0.00559409
0.00539621
0.0052291
0.00508852
0.00497179
0.00487372
0.00478907
0.00471437
0.00464724
0.00458602
0.00452951
0.0044769
0.00442759
0.00438116
0.0043373
0.00429577