/*--------------------------------*- C++ -*----------------------------------*\
| =========                 |                                                 |
| \\      /  F ield         | OpenFOAM: The Open Source CFD Toolbox           |
|  \\    /   O peration     | Version:  v2012                                 |
|   \\  /    A nd           | Website:  www.openfoam.com                      |
|    \\/     M anipulation  |                                                 |
\*---------------------------------------------------------------------------*/
FoamFile
{
    version     2.0;
    format      ascii;
    class       volScalarField;
    location    "450/air";
    object      qin;
}
// * * * * * * * * * * * * * * * * * * * * * * * * * * * * * * * * * * * * * //

dimensions      [1 0 -3 0 0 0 0];


internalField   uniform 0;

boundaryField
{
    inlet
    {
        type            calculated;
        value           nonuniform List<scalar> 
3200
(
582.286
586.442
584.752
583.457
582.376
581.343
580.325
579.313
578.304
577.3
576.304
575.321
574.35
573.393
572.449
571.515
570.59
569.678
568.779
567.896
567.024
566.161
565.304
564.453
563.611
562.784
561.988
561.246
560.589
560.047
559.643
559.388
559.277
559.276
559.321
559.35
559.34
559.308
559.273
559.243
559.21
559.172
559.136
559.112
559.095
559.077
559.059
559.038
559.015
558.991
558.965
558.938
558.912
558.889
558.87
558.849
558.811
558.741
558.625
558.464
558.277
558.098
557.956
557.866
557.806
557.732
557.586
557.337
556.999
556.636
556.349
556.229
556.324
556.606
556.973
557.273
557.309
556.822
555.398
549.782
572.937
584.683
584.333
582.693
581.307
580.092
578.984
577.934
576.912
575.917
574.958
574.041
573.16
572.293
571.412
570.501
569.569
568.638
567.727
566.842
565.98
565.135
564.306
563.489
562.688
561.908
561.163
560.474
559.865
559.36
558.98
558.74
558.639
558.639
558.678
558.707
558.713
558.707
558.699
558.687
558.667
558.64
558.617
558.605
558.599
558.59
558.579
558.566
558.55
558.532
558.513
558.493
558.474
558.458
558.446
558.438
558.428
558.409
558.374
558.323
558.265
558.215
558.188
558.184
558.182
558.137
558.001
557.735
557.337
556.841
556.31
555.805
555.355
554.942
554.481
553.82
552.784
551.344
549.292
542.757
563.934
579.467
582.098
581.191
580.018
578.872
577.766
576.72
575.738
574.818
573.954
573.13
572.319
571.494
570.637
569.749
568.848
567.957
567.082
566.217
565.35
564.474
563.599
562.739
561.909
561.13
560.417
559.784
559.247
558.821
558.517
558.339
558.273
558.282
558.319
558.347
558.359
558.362
558.361
558.357
558.348
558.336
558.329
558.332
558.339
558.346
558.352
558.356
558.359
558.36
558.362
558.365
558.37
558.379
558.393
558.411
558.428
558.436
558.427
558.392
558.332
558.248
558.144
558.009
557.816
557.519
557.067
556.431
555.617
554.683
553.721
552.83
552.07
551.423
550.773
549.968
549.014
548.135
546.48
539.712
557.107
573.478
578.916
579.252
578.661
577.875
576.932
575.919
574.917
573.96
573.069
572.213
571.342
570.438
569.52
568.612
567.733
566.878
566.022
565.139
564.183
563.163
562.132
561.148
560.257
559.488
558.856
558.356
557.984
557.733
557.594
557.549
557.573
557.628
557.681
557.716
557.736
557.749
557.759
557.769
557.779
557.79
557.809
557.838
557.873
557.912
557.953
557.995
558.037
558.078
558.117
558.152
558.18
558.197
558.197
558.176
558.125
558.036
557.898
557.7
557.437
557.108
556.713
556.252
555.716
555.088
554.355
553.524
552.636
551.763
550.986
550.353
549.839
549.345
548.749
548.063
547.55
547.212
545.155
537.982
552.02
567.724
575.297
576.826
576.696
576.269
575.604
574.743
573.779
572.776
571.792
570.82
569.828
568.808
567.779
566.775
565.821
564.913
564.018
563.095
562.096
561.042
560.009
559.076
558.302
557.708
557.281
556.986
556.792
556.673
556.617
556.609
556.635
556.676
556.716
556.751
556.783
556.813
556.843
556.875
556.911
556.954
557.008
557.071
557.142
557.217
557.292
557.363
557.425
557.473
557.5
557.499
557.464
557.387
557.261
557.081
556.841
556.537
556.167
555.73
555.234
554.69
554.118
553.539
552.965
552.404
551.857
551.328
550.824
550.35
549.893
549.418
548.873
548.23
547.564
547.123
547.124
546.851
543.855
536.701
547.926
562.024
571.059
573.758
573.97
573.789
573.444
572.893
572.17
571.325
570.329
569.175
567.958
566.751
565.562
564.405
563.317
562.321
561.407
560.514
559.657
558.874
558.154
557.511
557.004
556.658
556.437
556.278
556.131
555.978
555.829
555.705
555.625
555.59
555.593
555.624
555.672
555.727
555.784
555.843
555.904
555.972
556.046
556.124
556.198
556.264
556.315
556.344
556.342
556.304
556.222
556.091
555.907
555.668
555.376
555.033
554.646
554.222
553.767
553.293
552.813
552.352
551.935
551.587
551.318
551.117
550.946
550.751
550.468
550.044
549.453
548.715
547.909
547.18
546.747
546.812
547.151
546.376
542.382
535.754
544.495
556.514
566.411
570.407
571.08
571.113
571.079
570.893
570.533
570.056
569.223
567.906
566.383
564.922
563.56
562.275
561.098
560.073
559.215
558.417
557.796
557.443
557.176
556.854
556.532
556.29
556.112
555.932
555.699
555.414
555.118
554.862
554.684
554.592
554.57
554.595
554.645
554.707
554.768
554.824
554.874
554.919
554.957
554.984
554.993
554.977
554.929
554.847
554.725
554.564
554.362
554.122
553.849
553.548
553.23
552.902
552.576
552.26
551.96
551.684
551.443
551.251
551.126
551.072
551.066
551.055
550.956
550.682
550.171
549.422
548.513
547.588
546.829
546.415
546.482
546.965
547.173
545.52
540.842
535.081
541.849
551.701
561.863
567.212
568.553
568.81
569.047
569.187
569.14
569.037
568.502
567.203
565.488
563.83
562.351
561.006
559.809
558.804
558.02
557.297
556.82
556.773
556.855
556.737
556.439
556.122
555.839
555.546
555.205
554.824
554.452
554.144
553.932
553.818
553.776
553.776
553.794
553.816
553.832
553.834
553.82
553.789
553.741
553.674
553.586
553.475
553.338
553.179
552.999
552.803
552.598
552.389
552.182
551.984
551.8
551.638
551.503
551.398
551.321
551.271
551.245
551.242
551.251
551.25
551.189
551.001
550.614
549.988
549.147
548.188
547.269
546.556
546.184
546.231
546.674
547.2
546.862
544.306
539.391
534.619
540.008
547.849
557.684
564.27
566.451
566.923
567.359
567.794
567.991
568.102
567.828
566.731
565.065
563.377
561.886
560.555
559.374
558.381
557.624
556.92
556.442
556.457
556.681
556.664
556.338
555.9
555.482
555.087
554.681
554.268
553.882
553.562
553.33
553.182
553.093
553.033
552.982
552.932
552.876
552.807
552.722
552.62
552.504
552.379
552.25
552.117
551.985
551.856
551.734
551.623
551.527
551.447
551.385
551.339
551.312
551.306
551.325
551.365
551.417
551.464
551.484
551.452
551.34
551.116
550.745
550.204
549.492
548.652
547.775
546.98
546.387
546.077
546.089
546.42
546.947
547.189
546.137
542.887
538.125
534.301
538.716
544.836
553.827
561.385
564.569
565.284
565.793
566.493
566.969
567.194
567.033
566.14
564.648
563.06
561.657
560.424
559.319
558.362
557.608
556.907
556.352
556.236
556.41
556.426
556.102
555.595
555.082
554.613
554.169
553.739
553.34
552.996
552.722
552.517
552.364
552.241
552.13
552.027
551.928
551.829
551.728
551.624
551.522
551.429
551.349
551.283
551.231
551.193
551.171
551.163
551.168
551.185
551.213
551.252
551.304
551.37
551.447
551.522
551.57
551.555
551.438
551.187
550.786
550.239
549.57
548.822
548.056
547.341
546.744
546.316
546.084
546.062
546.26
546.656
547.049
546.834
545.079
541.419
537.069
534.069
537.733
542.491
550.232
558.353
562.674
563.774
564.21
565.027
565.834
566.266
566.179
565.385
563.997
562.473
561.157
560.079
559.16
558.355
557.682
557.026
556.404
556.076
556.064
556.033
555.728
555.206
554.635
554.105
553.619
553.163
552.742
552.369
552.058
551.812
551.622
551.471
551.346
551.239
551.15
551.074
551.008
550.959
550.936
550.941
550.962
550.989
551.015
551.043
551.074
551.104
551.132
551.159
551.193
551.241
551.302
551.368
551.418
551.419
551.332
551.116
550.743
550.21
549.549
548.819
548.096
547.447
546.922
546.539
546.288
546.148
546.108
546.19
546.425
546.763
546.899
546.153
543.799
540.006
536.212
533.882
536.998
540.741
546.957
555.103
560.565
562.306
562.611
563.269
564.307
565.109
565.259
564.568
563.174
561.558
560.18
559.197
558.527
558.02
557.569
557.051
556.438
555.937
555.695
555.545
555.237
554.724
554.126
553.552
553.033
552.563
552.138
551.764
551.449
551.199
551.009
550.87
550.766
550.69
550.633
550.591
550.568
550.577
550.626
550.703
550.785
550.853
550.903
550.942
550.975
551.001
551.018
551.03
551.044
551.064
551.077
551.061
550.979
550.795
550.479
550.017
549.421
548.736
548.033
547.394
546.885
546.538
546.34
546.245
546.197
546.165
546.17
546.269
546.487
546.696
546.486
545.193
542.399
538.711
535.521
533.709
536.465
539.498
544.097
551.69
558.086
560.744
561.053
561.307
562.29
563.455
564.041
563.633
562.295
560.519
558.92
557.872
557.379
557.193
557.039
556.733
556.23
555.677
555.266
554.985
554.654
554.163
553.572
552.987
552.465
552.01
551.611
551.264
550.971
550.735
550.558
550.436
550.36
550.316
550.286
550.269
550.278
550.313
550.347
550.353
550.334
550.309
550.302
550.317
550.35
550.396
550.452
550.51
550.552
550.546
550.461
550.274
549.975
549.564
549.052
548.464
547.843
547.248
546.743
546.378
546.172
546.103
546.115
546.142
546.142
546.122
546.14
546.253
546.423
546.429
545.808
544.01
540.967
537.567
534.961
533.53
535.978
538.577
541.679
548.236
555.149
558.878
559.526
559.383
560.01
561.289
562.313
562.37
561.303
559.494
557.649
556.384
555.875
555.854
555.918
555.828
555.523
555.073
554.633
554.291
553.963
553.523
552.973
552.406
551.899
551.472
551.111
550.801
550.532
550.308
550.136
550.023
549.968
549.95
549.944
549.961
550.01
550.025
549.901
549.615
549.26
548.975
548.831
548.807
548.855
548.953
549.108
549.3
549.457
549.482
549.316
548.962
548.479
547.939
547.402
546.906
546.479
546.145
545.924
545.82
545.817
545.875
545.941
545.973
545.966
545.964
546.021
546.14
546.204
545.928
544.872
542.671
539.573
536.581
534.492
533.333
535.376
537.799
539.691
544.908
551.797
556.536
557.942
557.739
557.929
558.981
560.184
560.689
560.082
558.503
556.598
555.125
554.43
554.314
554.372
554.373
554.24
553.962
553.612
553.316
553.066
552.737
552.28
551.76
551.268
550.853
550.513
550.228
549.979
549.767
549.605
549.506
549.475
549.485
549.515
549.588
549.669
549.578
549.136
548.37
547.54
546.937
546.662
546.618
546.672
546.796
547.032
547.375
547.709
547.864
547.734
547.346
546.829
546.328
545.943
545.709
545.612
545.62
545.699
545.814
545.936
546.044
546.126
546.191
546.27
546.396
546.555
546.647
546.475
545.752
544.131
541.486
538.353
535.722
534.006
533.043
534.609
537.073
538.115
541.892
548.207
553.662
556.125
556.347
556.242
556.787
557.765
558.486
558.407
557.396
555.864
554.479
553.63
553.228
553.001
552.828
552.654
552.416
552.126
551.908
551.794
551.654
551.374
550.962
550.508
550.094
549.75
549.468
549.236
549.049
548.915
548.849
548.85
548.884
548.957
549.087
549.129
548.789
547.893
546.611
545.392
544.632
544.38
544.399
544.457
544.535
544.748
545.152
545.629
545.967
546.018
545.796
545.444
545.131
544.955
544.926
545.003
545.13
545.265
545.387
545.485
545.558
545.618
545.693
545.819
545.993
546.139
546.105
545.69
544.644
542.714
539.968
537.11
534.97
533.601
532.786
533.743
536.39
536.925
539.337
544.636
550.336
553.867
554.873
554.703
554.612
555.003
555.602
555.948
555.725
555.003
554.131
553.363
552.696
552.069
551.534
551.092
550.693
550.328
550.113
550.102
550.168
550.131
549.915
549.572
549.199
548.863
548.589
548.379
548.226
548.121
548.072
548.07
548.093
548.186
548.325
548.216
547.49
546.095
544.42
543.067
542.429
542.418
542.62
542.709
542.691
542.768
543.082
543.566
544.027
544.304
544.372
544.324
544.276
544.291
544.374
544.491
544.612
544.72
544.806
544.874
544.933
545.004
545.123
545.299
545.479
545.532
545.3
544.621
543.288
541.139
538.426
535.939
534.264
533.156
532.473
532.835
535.704
536.001
537.246
541.272
546.708
551.059
553.014
553.074
552.473
552.148
552.326
552.797
553.215
553.357
553.184
552.72
552.001
551.143
550.334
549.629
549.013
548.488
548.167
548.139
548.318
548.499
548.526
548.38
548.136
547.882
547.672
547.517
547.39
547.259
547.128
547.012
546.935
546.982
547.062
546.733
545.613
543.83
541.98
540.728
540.378
540.691
541.117
541.265
541.148
541.032
541.137
541.477
541.932
542.379
542.773
543.118
543.416
543.653
543.815
543.913
543.975
544.026
544.08
544.138
544.21
544.321
544.49
544.683
544.792
544.672
544.208
543.283
541.715
539.437
536.872
534.81
533.542
532.62
532.068
531.873
534.914
535.15
535.496
538.22
543.001
547.818
550.751
551.401
550.69
549.828
549.474
549.725
550.345
550.98
551.322
551.204
550.654
549.86
549.041
548.258
547.523
546.856
546.371
546.201
546.34
546.615
546.831
546.899
546.85
546.766
546.703
546.642
546.51
546.245
545.88
545.501
545.224
545.164
545.146
544.637
543.285
541.371
539.589
538.55
538.433
538.927
539.464
539.635
539.432
539.139
539.023
539.17
539.539
540.083
540.777
541.554
542.283
542.826
543.126
543.228
543.231
543.223
543.245
543.305
543.412
543.575
543.774
543.919
543.874
543.534
542.849
541.719
539.968
537.643
535.321
533.696
532.752
531.952
531.533
530.771
533.908
534.202
533.946
535.524
539.427
544.339
548.154
549.7
549.363
548.325
547.535
547.385
547.807
548.464
548.961
549.059
548.767
548.246
547.637
546.969
546.249
545.513
544.879
544.516
544.497
544.723
545
545.198
545.312
545.407
545.511
545.534
545.328
544.823
544.116
543.41
542.931
542.788
542.719
542.158
540.822
539.07
537.561
536.753
536.7
537.118
537.55
537.637
537.356
536.969
536.75
536.8
537.113
537.706
538.607
539.737
540.87
541.751
542.247
542.406
542.379
542.317
542.306
542.377
542.53
542.738
542.918
542.933
542.674
542.116
541.254
539.957
538.061
535.767
533.763
532.555
531.843
531.114
530.829
529.392
532.593
533.06
532.487
533.107
535.892
540.372
544.77
547.423
547.988
547.239
546.257
545.714
545.728
546.048
546.331
546.39
546.266
546.07
545.82
545.491
545.01
544.377
543.712
543.201
542.981
543.037
543.217
543.373
543.477
543.591
543.697
543.625
543.174
542.327
541.306
540.445
540.023
540.06
540.155
539.74
538.637
537.25
536.137
535.552
535.425
535.546
535.66
535.569
535.291
535.052
535.041
535.259
535.635
536.197
537.051
538.193
539.423
540.45
541.084
541.326
541.323
541.252
541.237
541.331
541.511
541.684
541.709
541.471
540.959
540.225
539.223
537.752
535.743
533.612
532.054
531.249
530.675
529.981
529.833
527.988
531.214
531.899
531.254
531.214
532.842
536.359
540.714
544.239
545.948
545.892
545.05
544.306
543.957
543.863
543.771
543.584
543.401
543.344
543.376
543.484
543.454
543.156
542.665
542.154
541.794
541.649
541.637
541.619
541.548
541.466
541.326
540.924
540.087
538.914
537.766
537.053
537.009
537.495
537.964
537.847
537.058
536.035
535.257
534.846
534.65
534.503
534.32
534.096
533.963
534.112
534.58
535.177
535.696
536.136
536.667
537.408
538.286
539.094
539.652
539.919
539.983
539.985
540.036
540.163
540.294
540.287
540.026
539.503
538.807
537.966
536.815
535.148
533.11
531.308
530.264
529.771
529.231
528.562
528.532
526.875
530.039
530.9
530.318
529.968
530.724
533.122
536.857
540.688
543.351
544.164
543.755
543.057
542.515
542.133
541.757
541.324
540.939
540.754
540.785
541.14
541.516
541.626
541.45
541.104
540.741
540.477
540.306
540.121
539.855
539.511
539.029
538.233
537.031
535.636
534.491
534.013
534.355
535.254
536.092
536.309
535.846
535.126
534.58
534.302
534.135
533.932
533.662
533.429
533.46
533.946
534.81
535.716
536.348
536.665
536.86
537.124
537.497
537.886
538.187
538.366
538.469
538.572
538.712
538.843
538.848
538.607
538.106
537.444
536.707
535.795
534.456
532.621
530.69
529.31
528.697
528.35
527.771
527.133
527.186
525.913
528.926
529.928
529.458
529.031
529.259
530.677
533.507
537.121
540.371
542.042
542.274
541.84
541.258
540.711
540.182
539.615
539.045
538.607
538.378
538.664
539.191
539.575
539.717
539.651
539.46
539.243
539.03
538.744
538.309
537.711
536.91
535.8
534.364
532.861
531.743
531.399
531.928
533.025
534.094
534.625
534.542
534.174
533.876
533.752
533.705
533.618
533.442
533.265
533.331
533.861
534.791
535.762
536.425
536.695
536.725
536.697
536.689
536.692
536.69
536.707
536.784
536.933
537.099
537.163
537.01
536.61
536.054
535.454
534.768
533.753
532.202
530.289
528.605
527.663
527.341
527.005
526.36
525.772
525.877
524.939
527.775
528.921
528.588
528.219
528.217
528.933
530.832
533.856
537.248
539.591
540.551
540.569
540.096
539.467
538.849
538.237
537.583
536.935
536.372
536.365
536.756
537.174
537.508
537.743
537.86
537.861
537.724
537.37
536.747
535.892
534.846
533.587
532.133
530.698
529.669
529.389
529.932
531.022
532.155
532.915
533.214
533.25
533.254
533.314
533.415
533.498
533.486
533.37
533.328
533.614
534.277
535.072
535.681
535.97
535.999
535.883
535.686
535.445
535.223
535.099
535.116
535.226
535.302
535.213
534.911
534.479
534.043
533.603
532.943
531.769
530.051
528.217
526.895
526.342
526.165
525.756
525.06
524.541
524.674
523.923
526.615
527.932
527.756
527.491
527.441
527.736
528.839
531.083
534.204
536.901
538.522
539.112
538.908
538.287
537.599
536.962
536.31
535.596
534.822
534.512
534.631
534.887
535.228
535.652
536.061
536.317
536.28
535.84
535.006
533.93
532.782
531.613
530.419
529.297
528.504
528.311
528.791
529.726
530.744
531.555
532.093
532.449
532.717
532.935
533.136
533.334
533.453
533.394
533.224
533.188
533.46
533.962
534.46
534.774
534.864
534.761
534.512
534.189
533.901
533.742
533.72
533.733
533.633
533.344
532.932
532.547
532.254
531.887
531.116
529.741
527.972
526.387
525.487
525.239
525.1
524.599
523.895
523.466
523.616
522.928
525.532
527.041
527.022
526.841
526.807
526.881
527.396
528.852
531.411
534.095
536.167
537.35
537.57
537.101
536.393
535.727
535.112
534.461
533.677
533.221
533.117
533.144
533.33
533.731
534.228
534.579
534.538
533.978
532.989
531.85
530.836
530.033
529.363
528.771
528.351
528.284
528.648
529.315
530.049
530.689
531.216
531.668
532.044
532.323
532.539
532.754
532.928
532.932
532.738
532.523
532.51
532.755
533.123
533.431
533.566
533.503
533.285
533.011
532.797
532.704
532.678
532.582
532.302
531.858
531.401
531.064
530.784
530.273
529.229
527.655
525.97
524.747
524.251
524.206
524.046
523.485
522.836
522.523
522.704
522.018
524.577
526.27
526.387
526.233
526.2
526.175
526.318
527.113
528.982
531.34
533.578
535.262
536.024
535.896
535.293
534.619
534.03
533.486
532.828
532.401
532.212
532.058
532.003
532.169
532.472
532.656
532.457
531.776
530.778
529.813
529.181
528.937
528.911
528.907
528.875
528.914
529.116
529.453
529.816
530.139
530.443
530.757
531.053
531.277
531.438
531.6
531.763
531.832
531.735
531.552
531.458
531.561
531.817
532.085
532.238
532.227
532.095
531.938
531.848
531.83
531.79
531.601
531.224
530.753
530.339
530.011
529.576
528.729
527.336
525.633
524.14
523.292
523.102
523.144
522.927
522.352
521.813
521.64
521.889
521.219
523.74
525.585
525.8
525.617
525.545
525.481
525.437
525.769
526.977
528.818
530.943
532.953
534.283
534.663
534.324
533.703
533.103
532.613
532.091
531.778
531.625
531.384
531.093
530.906
530.813
530.636
530.187
529.437
528.59
527.978
527.836
528.143
528.655
529.1
529.349
529.447
529.503
529.568
529.621
529.643
529.665
529.73
529.831
529.927
530.006
530.1
530.229
530.349
530.391
530.353
530.317
530.376
530.547
530.759
530.917
530.969
530.939
530.89
530.866
530.841
530.736
530.491
530.142
529.793
529.497
529.134
528.442
527.217
525.55
523.854
522.623
522.087
522.058
522.071
521.762
521.193
520.783
520.75
521.1
520.523
522.984
524.929
525.208
524.961
524.824
524.748
524.654
524.726
525.409
526.684
528.488
530.601
532.4
533.341
533.382
532.875
532.229
531.696
531.232
531.025
530.964
530.724
530.262
529.732
529.209
528.647
527.98
527.25
526.64
526.392
526.628
527.256
528.023
528.667
529.059
529.226
529.266
529.25
529.183
529.054
528.885
528.732
528.634
528.594
528.599
528.65
528.755
528.902
529.04
529.123
529.158
529.199
529.295
529.441
529.588
529.688
529.724
529.707
529.641
529.516
529.319
529.083
528.877
528.739
528.572
528.134
527.183
525.691
523.95
522.436
521.51
521.201
521.204
521.098
520.665
520.089
519.782
519.851
520.295
519.909
522.266
524.261
524.58
524.266
524.06
523.989
523.923
523.899
524.235
525.01
526.381
528.362
530.405
531.796
532.217
531.859
531.163
530.526
530.048
529.906
529.948
529.766
529.218
528.442
527.598
526.773
526.014
525.389
525.007
524.979
525.328
525.946
526.647
527.267
527.734
528.059
528.287
528.432
528.468
528.367
528.148
527.881
527.65
527.508
527.463
527.498
527.6
527.753
527.914
528.029
528.068
528.063
528.073
528.136
528.235
528.32
528.337
528.253
528.069
527.822
527.586
527.45
527.457
527.521
527.41
526.846
525.698
524.128
522.543
521.36
520.764
520.622
520.591
520.335
519.772
519.169
518.913
519.021
519.498
519.35
521.561
523.568
523.923
523.565
523.307
523.247
523.239
523.221
523.374
523.774
524.685
526.321
528.304
529.89
530.575
530.371
529.676
528.975
528.485
528.401
528.545
528.446
527.882
526.975
525.964
525.046
524.331
523.859
523.63
523.632
523.832
524.176
524.609
525.105
525.658
526.25
526.828
527.302
527.584
527.629
527.463
527.179
526.893
526.696
526.62
526.651
526.758
526.904
527.04
527.113
527.096
527.012
526.924
526.877
526.867
526.842
526.734
526.51
526.205
525.913
525.76
525.821
526.044
526.215
526.039
525.301
524.039
522.564
521.296
520.519
520.243
520.236
520.169
519.795
519.137
518.514
518.27
518.36
518.782
518.818
520.858
522.855
523.261
522.893
522.606
522.556
522.602
522.631
522.716
522.87
523.351
524.492
526.116
527.591
528.363
528.308
527.727
527.097
526.689
526.698
526.943
526.927
526.382
525.433
524.381
523.494
522.902
522.58
522.421
522.325
522.253
522.243
522.384
522.773
523.445
524.332
525.279
526.096
526.637
526.852
526.786
526.549
526.272
526.061
525.968
525.99
526.092
526.221
526.317
526.33
526.242
526.077
525.887
525.706
525.526
525.304
524.997
524.618
524.256
524.048
524.102
524.41
524.791
524.944
524.593
523.664
522.368
521.094
520.193
519.796
519.783
519.884
519.806
519.376
518.691
518.086
517.852
517.903
518.207
518.304
520.167
522.15
522.626
522.28
521.981
521.933
522.008
522.079
522.151
522.158
522.272
522.858
523.924
525.048
525.755
525.857
525.528
525.147
524.947
525.102
525.44
525.486
524.969
524.028
523.007
522.205
521.738
521.522
521.377
521.162
520.862
520.598
520.561
520.91
521.684
522.766
523.938
524.957
525.66
526.005
526.049
525.902
525.687
525.504
525.409
525.414
525.495
525.597
525.658
525.627
525.488
525.26
524.973
524.644
524.262
523.809
523.299
522.814
522.494
522.473
522.791
523.313
523.75
523.774
523.204
522.128
520.876
519.84
519.261
519.14
519.291
519.45
519.368
518.93
518.279
517.744
517.55
517.579
517.759
517.805
519.498
521.47
522.033
521.729
521.426
521.367
521.442
521.525
521.592
521.51
521.34
521.409
521.874
522.548
523.118
523.397
523.431
523.437
523.543
523.869
524.276
524.352
523.863
522.963
522.009
521.296
520.916
520.751
520.597
520.318
519.931
519.596
519.527
519.88
520.669
521.756
522.914
523.922
524.644
525.054
525.202
525.176
525.07
524.956
524.886
524.882
524.937
525.011
525.044
524.986
524.813
524.529
524.146
523.668
523.096
522.454
521.819
521.328
521.138
521.34
521.873
522.495
522.864
522.697
521.94
520.81
519.683
518.882
518.534
518.557
518.757
518.903
518.791
518.352
517.763
517.331
517.207
517.248
517.348
517.327
518.86
520.82
521.478
521.227
520.919
520.837
520.886
520.948
520.99
520.847
520.483
520.161
520.127
520.399
520.841
521.309
521.74
522.177
522.609
523.092
523.531
523.609
523.152
522.327
521.47
520.844
520.512
520.352
520.187
519.914
519.574
519.314
519.308
519.659
520.346
521.244
522.173
522.982
523.598
524.007
524.238
524.343
524.372
524.364
524.353
524.368
524.418
524.477
524.492
524.409
524.194
523.836
523.341
522.726
522.02
521.293
520.664
520.284
520.277
520.659
521.279
521.842
522.028
521.656
520.796
519.729
518.797
518.214
518.009
518.069
518.227
518.293
518.103
517.636
517.097
516.764
516.716
516.79
516.867
516.867
518.252
520.2
520.951
520.753
520.437
520.324
520.334
520.349
520.345
520.155
519.687
519.138
518.791
518.795
519.158
519.791
520.566
521.379
522.091
522.689
523.125
523.191
522.782
522.067
521.341
520.811
520.511
520.337
520.162
519.933
519.698
519.564
519.631
519.936
520.434
521.034
521.624
522.142
522.581
522.939
523.211
523.417
523.574
523.687
523.767
523.844
523.931
524.008
524.02
523.904
523.616
523.145
522.515
521.78
521.018
520.332
519.846
519.671
519.856
520.327
520.878
521.23
521.155
520.604
519.737
518.834
518.142
517.758
517.643
517.685
517.756
517.702
517.397
516.868
516.346
516.077
516.083
516.183
516.274
516.406
517.651
519.58
520.42
520.276
519.949
519.799
519.762
519.718
519.653
519.429
518.935
518.32
517.852
517.734
518.055
518.782
519.771
520.834
521.738
522.409
522.833
522.898
522.562
521.99
521.423
521.006
520.743
520.553
520.363
520.164
520.008
519.958
520.049
520.266
520.555
520.864
521.137
521.386
521.649
521.919
522.171
522.41
522.645
522.856
523.037
523.205
523.364
523.487
523.51
523.357
522.978
522.376
521.614
520.802
520.068
519.531
519.279
519.344
519.675
520.123
520.47
520.512
520.155
519.475
518.681
518
517.561
517.359
517.317
517.342
517.335
517.165
516.743
516.143
515.617
515.377
515.4
515.499
515.604
516.011
517.14
519.053
519.967
519.868
519.531
519.352
519.278
519.185
519.068
518.826
518.357
517.774
517.31
517.164
517.458
518.207
519.288
520.486
521.505
522.222
522.637
522.704
522.439
522.002
521.587
521.285
521.069
520.875
520.669
520.476
520.347
520.317
520.382
520.502
520.625
520.724
520.775
520.833
520.961
521.141
521.328
521.537
521.791
522.069
522.35
522.629
522.895
523.096
523.148
522.959
522.479
521.735
520.841
519.97
519.295
518.939
518.937
519.228
519.661
520.026
520.124
519.847
519.24
518.48
517.792
517.329
517.111
517.061
517.085
517.111
517.056
516.798
516.276
515.609
515.063
514.821
514.828
514.902
514.999
515.343
516.317
518.18
519.204
519.191
518.844
518.607
518.465
518.295
518.099
517.836
517.443
517.004
516.676
516.574
516.787
517.376
518.314
519.449
520.496
521.277
521.764
521.939
521.835
521.596
521.372
521.207
521.051
520.848
520.587
520.314
520.09
519.949
519.892
519.886
519.898
519.91
519.911
519.943
520.015
520.073
520.104
520.163
520.307
520.542
520.843
521.168
521.47
521.685
521.73
521.519
521.012
520.264
519.424
518.694
518.253
518.184
518.441
518.858
519.207
519.273
518.947
518.277
517.448
516.698
516.203
516.004
516.029
516.167
516.338
516.47
516.462
516.195
515.654
515.01
514.522
514.311
514.289
514.31
514.357
)
;
    }
    outlet
    {
        type            calculated;
        value           nonuniform List<scalar> 
3200
(
620.111
620.012
615.877
612.965
610.316
607.374
603.836
599.879
596.855
595.428
595.671
597.729
599.894
595.387
592.511
594.41
594.616
590.743
586.82
583.954
582.231
581.36
581.258
580.271
578.255
575.963
573.956
572.313
571.024
570.188
570.015
570.674
572.747
576.24
576.26
574.597
573.043
571.821
570.849
570.182
569.797
569.655
569.674
569.722
569.643
569.379
569.005
568.602
568.208
567.875
567.693
567.789
568.351
569.658
571.946
574.535
575.634
575.934
576.095
576.185
576.193
576.146
576.078
576.029
576.031
576.1
576.226
576.36
576.427
576.363
576.165
575.863
575.533
575.282
575.207
575.363
575.726
576.272
577.273
577.666
601.198
613.621
612.125
609.504
606.966
604.212
601.045
597.637
595.002
593.706
593.82
595.41
597.01
593.667
591.127
592.008
592.076
588.961
585.425
582.653
580.902
579.895
579.494
578.481
576.632
574.49
572.548
570.944
569.703
568.922
568.776
569.418
571.251
573.917
574.096
572.84
571.477
570.326
569.406
568.759
568.369
568.196
568.162
568.147
568.018
567.721
567.32
566.891
566.483
566.156
565.999
566.127
566.697
567.925
569.96
572.209
573.301
573.66
573.815
573.882
573.872
573.81
573.73
573.675
573.678
573.756
573.89
574.025
574.085
574.008
573.799
573.504
573.214
573.028
572.993
573.038
573.015
572.936
572.407
567.095
586.675
605.679
608.138
606.77
604.789
602.356
599.499
596.455
593.988
592.619
592.431
593.473
594.524
592.035
589.861
589.954
589.778
587.351
584.31
581.674
579.898
578.742
578.058
577.002
575.336
573.406
571.608
570.094
568.905
568.127
567.908
568.4
569.816
571.786
572.126
571.318
570.247
569.248
568.413
567.793
567.387
567.168
567.072
566.998
566.834
566.536
566.152
565.756
565.4
565.138
565.038
565.188
565.725
566.829
568.6
570.539
571.621
572.078
572.289
572.381
572.386
572.329
572.245
572.175
572.156
572.206
572.314
572.432
572.496
572.455
572.303
572.066
571.778
571.446
571.016
570.428
569.825
569.472
567.871
560.128
576.519
597.453
603.205
603.288
602.213
600.454
598.065
595.348
592.994
591.6
591.128
591.615
592.156
590.204
588.427
588.125
587.732
585.73
583.082
580.565
578.845
577.697
576.886
575.816
574.305
572.577
570.925
569.487
568.307
567.477
567.16
567.495
568.562
570.034
570.427
569.939
569.128
568.289
567.544
566.956
566.542
566.291
566.154
566.049
565.884
565.619
565.292
564.961
564.669
564.447
564.346
564.461
564.941
565.942
567.505
569.2
570.243
570.766
571.038
571.177
571.216
571.178
571.096
571.017
570.986
571.032
571.15
571.295
571.396
571.378
571.187
570.789
570.169
569.33
568.334
567.425
567.032
566.872
564.055
555.401
569.443
590.024
598.268
599.524
599.103
597.995
596.213
594.024
592.018
590.795
590.018
589.813
589.872
588.379
586.966
586.379
585.734
583.978
581.674
579.289
577.695
576.704
575.911
574.861
573.463
571.862
570.277
568.845
567.644
566.788
566.435
566.669
567.469
568.568
568.945
568.65
568.015
567.292
566.624
566.083
565.698
565.463
565.334
565.241
565.106
564.889
564.61
564.314
564.036
563.802
563.67
563.759
564.222
565.151
566.541
568.035
569.031
569.589
569.901
570.08
570.159
570.154
570.098
570.04
570.033
570.109
570.252
570.396
570.432
570.242
569.747
568.926
567.836
566.628
565.58
565.107
565.333
564.886
560.545
552.057
564.29
583.407
593.558
595.844
595.702
594.951
593.692
592.134
590.713
589.897
588.96
588.122
587.782
586.66
585.483
584.608
583.686
582.088
580.145
577.977
576.535
575.747
575.054
574.051
572.731
571.201
569.632
568.181
566.973
566.137
565.793
565.946
566.516
567.309
567.615
567.41
566.88
566.242
565.65
565.185
564.876
564.707
564.631
564.581
564.484
564.291
564.009
563.686
563.371
563.108
562.972
563.087
563.565
564.426
565.646
566.969
567.916
568.484
568.814
569.021
569.144
569.193
569.193
569.185