/*--------------------------------*- C++ -*----------------------------------*\
| =========                 |                                                 |
| \\      /  F ield         | OpenFOAM: The Open Source CFD Toolbox           |
|  \\    /   O peration     | Version:  v2012                                 |
|   \\  /    A nd           | Website:  www.openfoam.com                      |
|    \\/     M anipulation  |                                                 |
\*---------------------------------------------------------------------------*/
FoamFile
{
    version     2.0;
    format      ascii;
    class       volScalarField;
    location    "450/air";
    object      qr;
}
// * * * * * * * * * * * * * * * * * * * * * * * * * * * * * * * * * * * * * //

dimensions      [1 0 -3 0 0 0 0];


internalField   uniform 0;

boundaryField
{
    inlet
    {
        type            calculated;
        value           nonuniform List<scalar> 
3200
(
73.7745
77.9309
76.2411
74.9452
73.8644
72.832
71.8139
70.8015
69.7925
68.7885
67.7932
66.8092
65.8386
64.8819
63.9379
63.0039
62.0792
61.1662
60.268
59.3847
58.513
57.6498
56.793
55.942
55.0994
54.2727
53.4767
52.7351
52.0782
51.536
51.1315
50.8768
50.7662
50.7651
50.8097
50.8383
50.8287
50.7964
50.7618
50.7314
50.6992
50.661
50.6251
50.6006
50.5834
50.566
50.5473
50.5267
50.5042
50.4797
50.4534
50.4262
50.4002
50.3778
50.3589
50.3375
50.3001
50.2297
50.1136
49.9526
49.766
49.5863
49.445
49.3543
49.295
49.2202
49.0749
48.8261
48.4873
48.1246
47.8372
47.7182
47.8131
48.0942
48.4614
48.7613
48.7972
48.3102
46.8871
41.271
64.426
76.1712
75.8214
74.1812
72.7952
71.5807
70.4724
69.4224
68.4007
67.4054
66.4462
65.5298
64.6491
63.7819
62.9007
61.9901
61.0576
60.1264
59.2161
58.3309
57.4682
56.6239
55.7944
54.978
54.1764
53.3967
52.6521
51.9629
51.3535
50.8482
50.4682
50.2287
50.1272
50.1275
50.1671
50.1955
50.2014
50.196
50.1872
50.1754
50.1559
50.1288
50.1057
50.0941
50.0874
50.0787
50.0681
50.0548
50.0389
50.0209
50.0015
49.9815
49.9625
49.9465
49.9348
49.9263
49.9163
49.8973
49.8627
49.812
49.7538
49.7039
49.6766
49.6727
49.6702
49.6261
49.4895
49.2238
48.8255
48.3301
47.7991
47.2932
46.8438
46.4305
45.9697
45.3088
44.2727
42.8328
40.7802
34.2456
55.423
70.9555
73.5871
72.6796
71.5068
70.3604
69.2545
68.2087
67.227
66.3067
65.4428
64.619
63.8079
62.9825
62.1254
61.2375
60.3371
59.4455
58.5708
57.706
56.8382
55.9629
55.088
54.2272
53.3981
52.6189
51.9056
51.2728
50.7358
50.3097
50.006
49.8278
49.7615
49.7712
49.8079
49.8361
49.8479
49.8504
49.8494
49.8457
49.8372
49.8251
49.818
49.8205
49.8275
49.8343
49.8402
49.8446
49.8473
49.8492
49.8509
49.8536
49.8586
49.8676
49.8815
49.8993
49.9166
49.9252
49.9156
49.8811
49.8203
49.7369
49.6326
49.4981
49.3048
49.0072
48.5558
47.9194
47.106
46.1718
45.21
44.3188
43.5592
42.912
42.262
41.4568
40.5029
39.6233
37.9686
31.2006
48.596
64.9667
70.405
70.7411
70.1501
69.3638
68.4208
67.4073
66.406
65.449
64.5576
63.7015
62.8303
61.9271
61.0086
60.1009
59.2212
58.3663
57.5111
56.6273
55.6718
54.6514
53.6202
52.6363
51.7452
50.9772
50.3443
49.8449
49.4729
49.2217
49.0822
49.038
49.0615
49.1165
49.1697
49.205
49.2247
49.2372
49.2477
49.2577
49.2673
49.2788
49.2978
49.3266
49.3618
49.4006
49.4419
49.4841
49.5261
49.5671
49.6059
49.6407
49.6686
49.6853
49.6859
49.6643
49.6135
49.5243
49.3862
49.1889
48.926
48.5962
48.2015
47.7407
47.2046
46.5767
45.8435
45.0124
44.1244
43.2518
42.475
41.8412
41.3278
40.8334
40.2375
39.5513
39.0388
38.701
36.6441
29.4703
43.5086
59.2124
66.7855
68.3143
68.185
67.7578
67.093
66.2315
65.2675
64.2643
63.2805
62.3091
61.3169
60.2964
59.2674
58.2635
57.3095
56.402
55.507
54.5841
53.5844
52.5304
51.4974
50.5645
49.7903
49.1965
48.7692
48.475
48.2803
48.1618
48.1053
48.0982
48.124
48.1643
48.2046
48.2401
48.2718
48.302
48.3321
48.3638
48.3996
48.4429
48.4965
48.5602
48.631
48.7058
48.781
48.8519
48.9137
48.9612
48.9882
48.9879
48.953
48.8761
48.7501
48.5695
48.3293
48.0256
47.6554
47.219
46.7222
46.1785
45.607
45.0273
44.4536
43.8924
43.3457
42.8169
42.313
41.8385
41.382
40.9072
40.3619
39.7186
39.0529
38.612
38.6123
38.3396
35.3437
28.1899
39.4145
53.5131
62.5479
65.2468
65.4587
65.2777
64.9327
64.3816
63.6582
62.8132
61.8179
60.6639
59.4466
58.2398
57.051
55.8937
54.8057
53.8101
52.8952
52.0029
51.1454
50.3628
49.643
48.9999
48.4927
48.1468
47.9256
47.7664
47.6194
47.4663
47.3172
47.1941
47.1136
47.0787
47.082
47.1128
47.1603
47.2156
47.273
47.3313
47.3929
47.4608
47.5351
47.6122
47.6869
47.7532
47.804
47.8323
47.8308
47.7924
47.7105
47.5796
47.3957
47.157
46.8643
46.5217
46.1348
45.7104
45.2559
44.7814
44.3022
43.8407
43.424
43.076
42.8071
42.6055
42.4348
42.2395
41.9566
41.5327
40.9418
40.2039
39.3974
38.6688
38.2354
38.301
38.6398
37.8651
33.871
27.2427
35.984
48.0024
57.9002
61.8953
62.5689
62.6021
62.568
62.382
62.022
61.545
60.7119
59.3947
57.8712
56.4103
55.0489
53.7633
52.5869
51.5621
50.7034
49.9056
49.2845
48.9313
48.6648
48.3428
48.0208
47.7785
47.6009
47.4202
47.1876
46.9031
46.6069
46.3511
46.1728
46.0802
46.0583
46.0834
46.1342
46.1954
46.2565
46.3122
46.3622
46.4073
46.4457
46.4726
46.4814
46.4653
46.4181
46.3354
46.214
46.0522
45.8503
45.6105
45.3372
45.037
44.7183
44.391
44.0651
43.7489
43.449
43.1728
42.9312
42.7401
42.6151
42.5603
42.5545
42.5434
42.445
42.171
41.66
40.9111
40.0012
39.0763
38.3175
37.9038
37.9709
38.454
38.6619
37.0091
32.3303
26.5695
33.3379
43.19
53.3519
58.7011
60.0413
60.2984
60.5361
60.6752
60.6291
60.5256
59.9902
58.6918
56.977
55.3182
53.8393
52.4947
51.2978
50.2923
49.509
48.7854
48.3088
48.2621
48.3435
48.2256
47.9281
47.6108
47.3274
47.0351
46.6938
46.313
45.9409
45.6325
45.421
45.3068
45.265
45.2645
45.2823
45.3044
45.3204
45.323
45.309
45.278
45.2296
45.1626
45.0748
44.9633
44.827
44.6673
44.4873
44.2918
44.0865
43.8775
43.6708
43.4724
43.2888
43.1269
42.9918
42.8864
42.8099
42.7599
42.7342
42.7304
42.74
42.7387
42.6781
42.4895
42.1022
41.4767
40.6355
39.6771
38.7575
38.0448
37.6731
37.7194
38.1624
38.6882
38.3511
35.7944
30.88
26.1082
31.4972
39.3373
49.1723
55.7589
57.9394
58.4117
58.8476
59.2827
59.4801
59.5906
59.3166
58.2201
56.5537
54.8653
53.3749
52.0439
50.8628
49.8699
49.1125
48.4084
47.9304
47.9452
48.1693
48.153
47.8267
47.3885
46.9709
46.5753
46.17
45.7569
45.3705
45.0506
44.8189
44.6709
44.5816
44.5216
44.4711
44.4208
44.3642
44.2954
44.2105
44.1088
43.9931
43.8681
43.7382
43.6061
43.4741
43.3451
43.2229
43.1119
43.0158
42.9362
42.8733
42.8275
42.8004
42.7951
42.8136
42.8536
42.9055
42.9527
42.9729
42.9411
42.8289
42.6043
42.2339
41.6927
40.9808
40.141
39.2634
38.469
37.8755
37.5653
37.5777
37.9087
38.4352
38.6776
37.6258
34.3756
29.6134
25.7894
30.2042
36.3247
45.3159
52.8734
56.0576
56.7726
57.2818
57.9821
58.4575
58.6828
58.5216
57.6286
56.1369
54.5483
53.1457
51.9124
50.8079
49.8502
49.0967
48.3955
47.8411
47.7243
47.8985
47.9143
47.5906
47.0834
46.5704
46.1014
45.6572
45.2277
44.8285
44.4842
44.2104
44.0056
43.8529
43.7295
43.619
43.5152
43.4162
43.3181
43.2167
43.1123
43.0105
42.9177
42.8378
42.7716
42.7195
42.6821
42.6597
42.6517
42.6569
42.6737
42.7015
42.7406
42.7928
42.8591
42.9361
43.011
43.0587
43.0436
42.9267
42.676
42.2749
41.7275
41.0582
40.311
39.5451
38.8299
38.2326
37.8043
37.5726
37.5504
37.7489
38.1449
38.5375
38.3231
36.5679
32.9076
28.5581
25.5575
29.2221
33.9798
41.7207
49.8415
54.1631
55.2623
55.6984
56.5159
57.3224
57.7551
57.6673
56.8736
55.4858
53.9618
52.6454
51.5675
50.6486
49.8438
49.1705
48.5151
47.8931
47.5648
47.5532
47.5219
47.2171
46.6946
46.124
45.5939
45.1076
44.652
44.2305
43.8579
43.547
43.3006
43.1103
42.9599
42.8344
42.7275
42.6383
42.5622
42.4965
42.4476
42.4251
42.4295
42.4508
42.4773
42.5041
42.532
42.5623
42.5927
42.6205
42.648
42.682
42.7295
42.791
42.8569
42.9064
42.9077
42.8205
42.6045
42.2313
41.6987
41.0377
40.3082
39.5844
38.936
38.4109
38.0275
37.7767
37.6366
37.597
37.6785
37.9134
38.2513
38.3872
37.6413
35.2877
31.4942
27.7005
25.3705
28.4871
32.23
38.446
46.5915
52.0535
53.7943
54.0994
54.7572
55.7959
56.5981
56.7474
56.0566
54.6626
53.0464
51.6689
50.6859
50.0159
49.5082
49.0575
48.5399
47.9265
47.4254
47.1841
47.0341
46.7257
46.2122
45.6146
45.0408
44.5222
44.0521
43.6267
43.2525
42.9382
42.6877
42.498
42.3585
42.255
42.1783
42.122
42.0802
42.0566
42.0658
42.1148
42.1917
42.2734
42.3413
42.3916
42.4306
42.4636
42.4897
42.5069
42.5188
42.533
42.5522
42.566
42.5493
42.4674
42.2838
41.9679
41.5058
40.9099
40.2248
39.5219
38.8826
38.3737
38.0266
37.8287
37.7335
37.6854
37.6541
37.6591
37.7577
37.9755
38.1847
37.9749
36.6814
33.8878
30.1996
27.0102
25.1979
27.9532
30.9866
35.5857
43.179
49.5748
52.2327
52.5417
52.796
53.7786
54.9437
55.53
55.1217
53.7834
52.0078
50.4089
49.3609
48.8675
48.6814
48.5273
48.2218
47.7183
47.166
46.7551
46.4735
46.1422
45.6516
45.0602
44.4756
43.9538
43.4986
43.0998
42.7529
42.4597
42.2235
42.0464
41.9247
41.8488
41.8046
41.7748
41.7575
41.7666
41.8017
41.8354
41.8422
41.8225
41.7981
41.7902
41.8054
41.8386
41.8845
41.9404
41.999
42.0407
42.0346
41.9495
41.7628
41.4639
41.053
40.541
39.9528
39.3315
38.7363
38.2312
37.8666
37.6608
37.5917
37.6036
37.6308
37.6302
37.6103
37.6287
37.7412
37.9119
37.9178
37.2963
35.4989
32.4559
29.0561
26.4498
25.0191
27.4662
30.066
33.1681
39.7246
46.6381
50.367
51.0143
50.8713
51.4989
52.7777
53.8019
53.8583
52.7917
50.9831
49.1372
47.8729
47.3641
47.3423
47.4065
47.3168
47.0112
46.5618
46.1219
45.7799
45.4522
45.0116
44.4615
43.8948
43.3878
42.9606
42.6001
42.2895
42.0209
41.7965
41.6247
41.5116
41.4566
41.4389
41.433
41.4496
41.4984
41.5133
41.3899
41.1033
40.7491
40.4641
40.3195
40.296
40.3433
40.4416
40.5965
40.7886
40.9453
40.9712
40.8046
40.4507
39.9673
39.4276
38.8905
38.3947
37.9677
37.6337
37.4122
37.3087
37.3061
37.3639
37.4296
37.4614
37.455
37.4522
37.5094
37.6289
37.6923
37.4166
36.3611
34.1602
31.0622
28.07
25.9806
24.8212
26.8651
29.2881
31.1801
36.3966
43.2854
48.0249
49.4307
49.228
49.418
50.4697
51.6729
52.1777
51.5709
49.9918
48.0864
46.6137
45.9187
45.8025
45.8603
45.8613
45.7292
45.4508
45.1003
44.8042
44.5543
44.2255
43.7691
43.2485
42.7567
42.3417
42.0021
41.7162
41.4676
41.2561
41.0934
40.9945
40.9638
40.9732
41.0032
41.0771
41.1573
41.0665
40.6242
39.8584
39.0289
38.4254
38.1503
38.1062
38.1612
38.2848
38.5205
38.8638
39.1978
39.3526
39.223
38.8352
38.3173
37.8166
37.4321
37.1976
37.1007
37.1092
37.1874
37.3024
37.4251
37.5328
37.6146
37.6792
37.7582
37.8844
38.044
38.1357
37.9638
37.2402
35.6196
32.975
29.8418
27.2108
25.4951
24.5315
26.0979
28.5617
29.6039
33.3806
39.6953
45.1505
47.6134
47.8354
47.7303
48.2757
49.2542
49.9749
49.8956
48.8847
47.3523
45.9674
45.1183
44.7166
44.4899
44.3171
44.1422
43.9045
43.6143
43.397
43.2828
43.1428
42.8631
42.4506
41.9964
41.5824
41.2383
40.9571
40.7244
40.5379
40.4041
40.338
40.3385
40.3722
40.4459
40.5758
40.6176
40.2777
39.3816
38.0998
36.881
36.1203
35.8691
35.8879
35.9461
36.0232
36.2368
36.6406
37.1178
37.4559
37.5067
37.2843
36.9331
36.6198
36.4433
36.415
36.4916
36.6183
36.754
36.8756
36.9733
37.0464
37.1064
37.1821
37.3073
37.4816
37.6281
37.5936
37.1789
36.1331
34.2031
31.457
28.5984
26.4589
25.0895
24.2751
25.2313
27.8784
28.4135
30.8261
36.1246
41.825
45.3556
46.3615
46.192
46.1007
46.492
47.0903
47.4363
47.2133
46.4919
45.6201
44.8513
44.1851
43.5581
43.0223
42.5802
42.1813
41.8166
41.6019
41.5905
41.6562
41.6197
41.4039
41.0612
40.6881
40.3517
40.0776
39.8673
39.7145
39.6097
39.5606
39.5588
39.5814
39.6743
39.8135
39.7045
38.9788
37.5841
35.9092
34.5554
33.9176
33.9071
34.1084
34.1981
34.1793
34.2571
34.5703
35.055
35.5161
35.7928
35.8611
35.8131
35.7644
35.78
35.8622
35.9798
36.1011
36.2082
36.2952
36.3631
36.4213
36.4929
36.6112
36.7877
36.9674
37.0205
36.7886
36.1094
34.7764
32.6277
29.915
27.4276
25.7525
24.6447
23.9615
24.3237
27.1931
27.4892
28.7348
32.7604
38.1966
42.5478
44.5025
44.5632
43.9621
43.6364
43.8147
44.2861
44.7036
44.8458
44.6729
44.209
43.49
42.6314
41.8228
41.1179
40.5016
39.9767
39.6559
39.6273
39.8063
39.988
40.0146
39.8686
39.6251
39.3708
39.1608
39.0053
38.8789
38.7474
38.6169
38.501
38.4237
38.4711
38.5504
38.2221
37.1015
35.3185
33.4689
32.2166
31.867
32.1795
32.6055
32.7539
32.6369
32.5211
32.6253
32.966
33.4205
33.8676
34.2616
34.6066
34.905
35.1416
35.3039
35.402
35.4635
35.5149
35.5683
35.6263
35.6986
35.8098
35.9786
36.1719
36.2802
36.1604
35.6965
34.7714
33.2039
30.9254
28.3609
26.2989
25.0304
24.1086
23.5562
23.3614
26.4023
26.6384
26.985
29.7087
34.4896
39.3066
42.2393
42.89
42.1783
41.3165
40.9625
41.2141
41.8337
42.4688
42.8105
42.6926
42.1425
41.3486
40.5294
39.7471
39.0115
38.3443
37.8596
37.6898
37.8284
38.104
38.3195
38.3873
38.3387
38.2549
38.1916
38.1309
37.9984
37.7337
37.3685
36.9895
36.713
36.6527
36.6346
36.1253
34.7738
32.8595
31.0779
30.0384
29.9219
30.4157
30.9531
31.1234
30.9207
30.6272
30.5118
30.659
31.0276
31.5718
32.2658
33.0429
33.7715
34.3149
34.615
34.7167
34.7199
34.7117
34.7334
34.7941
34.9009
35.064
35.2626
35.4074
35.3622
35.0226
34.3375
33.2072
31.4564
29.1313
26.8093
25.1847
24.2406
23.4404
23.0221
22.2601
25.3966
25.691
25.4348
27.0126
30.9158
35.8277
39.6427
41.1889
40.8516
39.8137
39.024
38.8736
39.2954
39.9528
40.4498
40.5473
40.2552
39.7342
39.1256
38.4581
37.738
37.0015
36.3682
36.0048
35.9861
36.2112
36.4885
36.6867
36.8003
36.8961
36.9997
37.0224
36.8163
36.3117
35.6046
34.8989
34.4195
34.2771
34.2081
33.6467
32.3111
30.5583
29.0501
28.2418
28.1887
28.6064
29.0382
29.126
28.8449
28.4577
28.2385
28.2886
28.6014
29.1943
30.0958
31.2256
32.3588
33.2395
33.7361
33.8945
33.8679
33.806
33.7951
33.8652
34.0184
34.2269
34.4063
34.4216
34.1622
33.6046
32.7427
31.4457
29.5498
27.2558
25.252
24.0438
23.3319
22.6024
22.318
20.8807
24.0815
24.5484
23.9758
24.5954
27.3812
31.8606
36.2588
38.9113
39.477
38.7276
37.7456
37.2031
37.2169
37.5371
37.8193
37.8783
37.7544
37.559
37.3089
36.9798
36.4984
35.8657
35.2007
34.6892
34.4697
34.5258
34.7058
34.8612
34.966
35.0794
35.1861
35.1136
34.6624
33.8156
32.7948
31.9334
31.5117
31.5485
31.6438
31.2285
30.1254
28.7388
27.626
27.0411
26.914
27.0349
27.149
27.0575
26.7801
26.5407
26.5296
26.748
27.1237
27.6861
28.5398
29.6817
30.9114
31.9388
32.5727
32.815
32.8119
32.7403
32.726
32.8197
32.9996
33.1724
33.1973
32.9598
32.448
31.714
30.7114
29.2408
27.2314
25.1008
23.5427
22.7375
22.1635
21.4699
21.3215
19.4766
22.7031
23.3877
22.7425
22.7032
24.3309
27.8473
32.2022
35.7277
37.4363
37.381
36.5386
35.7948
35.4458
35.3516
35.26
35.0731
34.8901
34.8322
34.8651
34.973
34.9422
34.6448
34.154
33.643
33.2824
33.1378
33.1259
33.1072
33.0363
32.9542
32.8149
32.413
31.5755
30.4024
29.2551
28.5414
28.4975
28.9833
29.4529
29.3359
28.5463
27.5232
26.7457
26.335
26.1383
25.9921
25.8088
25.585
25.4518
25.6009
26.0689
26.6657
27.1846
27.6246
28.1556
28.8968
29.7751
30.5827
31.1409
31.4074
31.4712
31.4734
31.5248
31.6519
31.7822
31.776
31.5148
30.9912
30.2952
29.4547
28.3037
26.6365
24.5987
22.7968
21.7525
21.2592
20.7202
20.0502
20.021
18.3641
21.5275
22.3886
21.8065
21.457
22.2126
24.6108
28.3457
32.177
34.8399
35.6528
35.2437
34.5452
34.0032
33.6214
33.2455
32.813
32.4275
32.2429
32.2734
32.6286
33.0051
33.1146
32.9388
32.5927
32.2293
31.9655
31.7947
31.6101
31.3436
30.9996
30.5176
29.7214
28.5201
27.1244
25.9799
25.5016
25.8436
26.7428
27.5807
27.7972
27.3352
26.6151
26.0691
25.7904
25.6235
25.4204
25.1507
24.9181
24.9492
25.4344
26.2992
27.2047
27.8365
28.1541
28.3487
28.6128
28.9853
29.3745
29.6754
29.8543
29.9576
30.0605
30.2004
30.332
30.3362
30.096
29.5946
28.9324
28.1956
27.2836
25.9451
24.1094
22.1789
20.7988
20.1852
19.8389
19.2597
18.6213
18.6744
17.4017
20.4151
21.4169
20.9462
20.5197
20.7476
22.1652
24.9954
28.6101
31.8594
33.5304
33.7623
33.3282
32.7467
32.1998
31.6704
31.1036
30.5339
30.0953
29.8663
30.1523
30.6795
31.0637
31.2055
31.1399
30.9483
30.7316
30.5186
30.2326
29.7973
29.1992
28.399
27.2882
25.8525
24.3493
23.2315
22.888
23.4167
24.5134
25.5832
26.1136
26.0305
25.6627
25.365
25.2405
25.1941
25.1071
24.931
24.7539
24.8199
25.3499
26.2794
27.2509
27.9138
28.1838
28.2138
28.186
28.178
28.1802
28.1784
28.1954
28.2727
28.4219
28.5873
28.6517
28.4986
28.0989
27.5431
26.9427
26.2563
25.2417
23.6905
21.7777
20.0939
19.1518
18.8296
18.4932
17.8487
17.2605
17.3656
16.4276
19.2634
20.4095
20.0768
19.7077
19.7053
20.4218
22.3205
25.3443
28.7363
31.0796
32.0398
32.0575
31.5847
30.9555
30.3376
29.7257
29.0713
28.4238
27.8612
27.8532
28.2445
28.6627
28.9966
29.2312
29.3482
29.3495
29.2126
28.8587
28.236
27.3805
26.3348
25.0759
23.6215
22.1871
21.1582
20.8772
21.4209
22.5102
23.6435
24.4037
24.7023
24.7386
24.7423
24.8031
24.9036
24.9868
24.9742
24.8583
24.8166
25.1023
25.7657
26.5605
27.17
27.4582
27.4881
27.3719
27.1748
26.9339
26.7116
26.5882
26.6049
26.7146
26.7911
26.7012
26.4
25.9681
25.5315
25.0921
24.4316
23.2574
21.5397
19.7059
18.3835
17.8304
17.6541
17.2444
16.5483
16.0294
16.1625
15.4113
18.1033
19.4207
19.2445
18.9799
18.9302
19.2245
20.3273
22.5715
25.6931
28.3892
30.0104
30.6012
30.3966
29.7752
29.0873
28.4507
27.7984
27.0844
26.3106
26.0006
26.1201
26.376
26.7171
27.1409
27.5496
27.8054
27.7682
27.3285
26.4947
25.4191
24.2702
23.1017
21.9072
20.7855
19.9925
19.7996
20.2794
21.2149
22.2327
23.044
23.5818
23.9378
24.2057
24.424
24.6246
24.8227
24.942
24.883
24.7132
24.6765
24.9488
25.4509
25.9482
26.2627
26.3528
26.2496
26.0005
25.6776
25.3892
25.2303
25.209
25.222
25.122
24.833
24.4211
24.036
23.7423
23.3753
22.6049
21.2293
19.4608
17.8759
16.9756
16.7274
16.5891
16.0877
15.3841
14.9551
15.1049
14.4166
17.0212
18.5297
18.5106
18.3293
18.2953
18.3699
18.8844
20.3403
22.8996
25.5833
27.6562
28.8385
29.0589
28.5893
27.8817
27.2155
26.6002
25.9501
25.1652
24.7095
24.6056
24.6327
24.8182
25.2197
25.7169
26.0673
26.0267
25.467
24.4777
23.3386
22.3243
21.5212
20.8515
20.2593
19.8392
19.7723
20.1367
20.8034
21.5375
22.178
22.7049
23.1567
23.5328
23.8114
24.0278
24.2428
24.4169
24.4204
24.2263
24.0113
23.9989
24.2436
24.6113
24.9193
25.0546
24.9913
24.7736
24.4996
24.2859
24.1923
24.167
24.0709
23.7909
23.3471
22.8898
22.5527
22.2732
21.7618
20.7179
19.144
17.4592
16.2353
15.7395
15.6946
15.5342
14.9735
14.3245
14.0119
14.1923
13.5069
16.0654
17.7589
17.8753
17.7213
17.6886
17.6634
17.8064
18.6014
20.4712
22.8288
25.0668
26.7507
27.5126
27.3847
26.7812
26.1081
25.5186
24.975
24.3163
23.8893
23.7008
23.5464
23.4914
23.6575
23.9605
24.1444
23.9455
23.2649
22.2669
21.3017
20.67
20.4259
20.3998
20.3955
20.364
20.4026
20.6047
20.9418
21.3048
21.6281
21.9314
22.2455
22.5412
22.7652
22.9268
23.0885
23.2521
23.3208
23.2239
23.0403
22.9464
23.0496
23.3054
23.5736
23.7269
23.7162
23.5833
23.4269
23.3367
23.3186
23.2785
23.09
22.7126
22.2419
21.8279
21.4993
21.0642
20.2181
18.8247
17.1218
15.6287
14.7806
14.5902
14.633
14.4158
13.8406
13.3015
13.129
13.3776
12.7074
15.2284
17.0733
17.289
17.1053
17.0341
16.9693
16.926
17.2574
18.466
20.3068
22.4315
24.4419
25.7719
26.1517
25.8131
25.1915
24.5917
24.1014
23.5796
23.267
23.1139
22.873
22.5813
22.3944
22.3015
22.1246
21.6757
20.9261
20.079
19.4664
19.3247
19.6314
20.1439
20.5891
20.8379
20.9358
20.9918
21.0569
21.1096
21.1312
21.1535
21.2182
21.3195
21.4161
21.4949
21.5888
21.718
21.8377
21.88
21.8416
21.8059
21.8651
22.0359
22.2478
22.4055
22.4581
22.4277
22.3782
22.3542
22.3294
22.2243
21.9798
21.6306
21.2813
20.9852
20.6228
19.9305
18.7053
17.0382
15.343
14.1116
13.5758
13.5465
13.5593
13.2506
12.6812
12.2715
12.2388
12.5887
12.0121
14.4723
16.4181
16.697
16.4498
16.3123
16.2371
16.1426
16.2144
16.8975
18.1726
19.9767
22.0897
23.889
24.8299
24.871
24.3638
23.7179
23.1842
22.7208
22.5136
22.4527
22.2126
21.7505
21.2204
20.6981
20.1357
19.4691
18.7383
18.129
17.8803
18.1166
18.7451
19.5113
20.1553
20.548
20.7146
20.7545
20.7387
20.6722
20.5423
20.3734
20.2204
20.123
20.0832
20.088
20.1383
20.2439
20.3903
20.5284
20.6118
20.6469
20.6881
20.7838
20.9295
21.0768
21.1767
21.213
21.1952
21.1302
21.0043
20.8079
20.5713
20.3661
20.228
20.0608
19.6229
18.6717
17.1795
15.439
13.9242
12.9986
12.69
12.6928
12.5863
12.1537
11.5777
11.2707
11.34
11.7838
11.3979
13.7546
15.75
16.0687
15.7551
15.5486
15.4778
15.4118
15.3876
15.7235
16.4985
17.8701
19.8505
21.8939
23.2844
23.706
23.3481
22.6512
22.0152
21.5364
21.3948
21.4371
21.2546
20.707
19.9307
19.0863
18.2613
17.503
16.8774
16.4954
16.4676
16.8166
17.4345
18.1355
18.7559
19.2225
19.5478
19.7754
19.9206
19.9567
19.8557
19.6363
19.3693
19.1387
18.9968
18.9512
18.9864
19.089
19.2416
19.4032
19.5174
19.557
19.5517
19.5621
19.6245
19.724
19.8088
19.8253
19.7412
19.5574
19.3103
19.0748
18.9391
18.9457
19.0094
18.8988
18.3347
17.187
15.617
14.0319
12.8491
12.253
12.1109
12.0797
11.8233
11.2603
10.658
10.4019
10.5098
10.9862
10.8388
13.0499
15.0562
15.4115
15.0538
14.7953
14.7353
14.728
14.7097
14.8628
15.2624
16.1738
17.8101
19.7925
21.3784
22.0633
21.8594
21.1645
20.464
19.9741
19.8897
20.0336
19.9345
19.3703
18.4638
17.4529
16.5344
15.8199
15.3474
15.1183
15.1203
15.3208
15.6645
16.0978
16.5937
17.1466
17.7384
18.3163
18.7911
19.0729
19.1173
18.9519
18.6677
18.3819
18.1845
18.1082
18.1395
18.2468
18.3928
18.529
18.602
18.5846
18.5011
18.4123
18.3652
18.356
18.3304
18.2223
17.9989
17.6932
17.4019
17.249
17.3097
17.5322
17.7041
17.5279
16.7894
15.5272
14.0523
12.7845
12.0074
11.7312
11.7247
11.6576
11.2833
10.6259
10.0026
9.75838
9.84825
10.2703
10.3065
12.3466
14.3441
14.7496
14.3822
14.0948
14.0445
14.0912
14.1196
14.2047
14.3582
14.8395
15.9806
17.6042
19.0797
19.8512
19.7963
19.2152
18.586
18.1773
18.1867
18.4318
18.4156
17.8707
16.9215
15.8697
14.9831
14.3905
14.0685
13.9098
13.8136
13.7422
13.7318
13.8731
14.2617
14.9336
15.8208
16.768
17.5847
18.1253
18.3402
18.2747
18.0375
17.7603
17.5498
17.4565
17.4783
17.5803
17.7095
17.8058
17.8189
17.7307
17.5661
17.3754
17.1943
17.0151
16.7924
16.4855
16.1066
15.7447
15.5362
15.591
15.8983
16.2797
16.4324
16.0814
15.153
13.8567
12.5824
11.6821
11.2848
11.2721
11.3731
11.2947
10.8648
10.1795
9.57444
9.34037
9.39144
9.69572
9.7922
11.6552
13.6388
14.1146
13.7689
13.47
13.4212
13.497
13.5672
13.6398
13.6463
13.7611
14.3462
15.4129
16.537
17.2434
17.3454
17.0166
16.6354
16.4361
16.5904
16.9289
16.9746
16.458
15.5171
14.4954
13.6933
13.2263
13.011
12.8661
12.6504
12.3507
12.0868
12.0493
12.3983
13.1722
14.2551
15.4266
16.4454
17.1486
17.4939
17.538
17.3908
17.1756
16.9928
16.8979
16.903
16.9834
17.0862
17.1469
17.1159
16.977
16.7487
16.462
16.1327
15.7506
15.2972
14.7876
14.3028
13.9824
13.962
14.2795
14.8016
15.2386
15.263
14.6929
13.6162
12.3649
11.3288
10.7501
10.6283
10.7793
10.9383
10.8563
10.4187
9.76786
9.23313
9.0382
9.06809
9.24777
9.29377
10.987
12.9583
13.5213
13.2181
12.915
12.8557
12.9308
13.0137
13.0807
12.9984
12.8283
12.8975
13.363
14.037
14.6064
14.8861
14.9201
14.9253
15.0313
15.3572
15.7644
15.8406
15.3515
14.4518
13.4974
12.7851
12.405
12.2399
12.0861
11.8069
11.4197
11.0842
11.0153
11.3691
12.1582
13.2445
14.4029
15.4104
16.1325
16.5425
16.6905
16.6648
16.5582
16.445
16.3745
16.3704
16.4256
16.4993
16.5325
16.4743
16.3014
16.0174
15.6343
15.1564
14.5847
13.9425
13.3073
12.8165
12.6268
12.8288
13.3617
13.9839
14.3525
14.1855
13.4283
12.2984
11.1713
10.3708
10.0223
10.0452
10.2456
10.392
10.2794
9.84082
9.25201
8.81997
8.69527
8.73715
8.83622
8.81522
10.3491
12.309
12.9668
12.7152
12.4075
12.3254
12.3751
12.4366
12.479
12.3359
11.9716
11.6494
11.616
11.8877
12.3297
12.7978
13.2291
13.6652
14.0979
14.5807
15.0193
15.0974
14.6408
13.8155
12.9584
12.3328
12.0004
11.8409
11.6755
11.4031
11.0625
10.8028
10.7968
11.1477
11.8349
12.7326
13.6617
14.4711
15.0862
15.4958
15.7269
15.8316
15.8611
15.853
15.8414
15.8564
15.9065
15.9654
15.9807
15.898
15.6825
15.3244
14.83
14.2144
13.5091
12.7821
12.1527
11.7723
11.7658
12.148
12.768
13.3305
13.5163
13.1448
12.2845
11.2181
10.2852
9.70235
9.49722
9.5574
9.71536
9.7812
9.59123
9.12489
8.586
8.2523
8.20471
8.27872
8.35589
8.35591
9.74095
11.6885
12.44
12.2415
11.9255
11.8128
11.8226
11.838
11.8335
11.6441
11.1756
10.627
10.2797
10.2837
10.6463
11.2797
12.0546
12.8676
13.5797
14.1778
14.6141
14.6796
14.2705
13.5556
12.8292
12.2998
11.9996
11.8257
11.6508
11.4217
11.1862
11.0523
11.1196
11.4245
11.9226
12.5224
13.1122
13.6307
14.07
14.4277
14.6997
14.9054
15.0631
15.1753
15.2558
15.3325
15.4198
15.4962
15.5082
15.393
15.1051
14.6338
14.0039
13.2687
12.5065
11.8207
11.3342
11.1594
11.3443
11.8158
12.3672
12.7184
12.6438
12.0925
11.2256
10.3232
9.63085
9.24706
9.1312
9.17366
9.24484
9.19088
8.88581
8.35705
7.83479
7.56556
7.57175
7.67125
7.7625
7.89465
9.13929
11.0683
11.9092
11.7649
11.4378
11.288
11.2504
11.2067
11.1414
10.9176
10.4241
9.80845
9.34053
9.22274
9.54385
10.2711
11.2598
12.3229
13.2264
13.8974
14.3221
14.3865
14.0504
13.4787
12.9116
12.4948
12.2315
12.0413
11.8513
11.6531
11.4969
11.447
11.5375
11.7543
12.0441
12.3528
12.6261
12.8751
13.1375
13.4079
13.6592
13.8989
14.1333
14.3445
14.5261
14.6934
14.8531
14.9762
14.9987
14.8459
14.4668
13.8644
13.1026
12.2909
11.5568
11.0194
10.7673
10.8328
11.1639
11.6117
11.959
12.0004
11.6434
10.9633
10.17
9.48917
9.04984
8.84798
8.80568
8.83087
8.82373
8.65411
8.23157
7.63202
7.10598
6.8657
6.88863
6.98773
7.09314
7.49979
8.62866
10.5417
11.4554
11.3565
11.02
10.8407
10.7664
10.6739
10.5567
10.315
9.84606
9.2624
8.79854
8.65294
8.94683
9.69563
10.7771
11.9744
12.9942
13.7108
14.1252
14.193
13.9272
13.4902
13.0759
12.7737
12.5581
12.3638
12.1581
11.9649
11.8356
11.8059
11.871
11.991
12.1139
12.2129
12.2637
12.3214
12.4495
12.6297
12.8167
13.0259
13.2794
13.558
13.8388
14.1181
14.3833
14.5845
14.6363
14.448
13.9679
13.2235
12.3299
11.4588
10.7839
10.4273
10.4256
10.7171
11.1497
11.5146
11.6126
11.3361
10.7284
9.96838
9.28092
8.8177
8.59986
8.5492
8.57353
8.6
8.54451
8.28685
7.76496
7.09775
6.55185
6.30964
6.3166
6.39026
6.48733
6.83164
7.80581
9.66871
10.6922
10.6799
10.3323
10.0952
9.95339
9.78378
9.5879
9.32452
8.93213
8.49308
8.16418
8.06229
8.27523
8.86509
9.80258
10.9378
11.9847
12.7655
13.2528
13.4276
13.3235
13.0848
12.8609
12.6955
12.5401
12.3364
12.0758
11.8029
11.5782
11.4381
11.3803
11.3743
11.3865
11.3991
11.4
11.4316
11.5034
11.562
11.5926
11.6521
11.7955
12.0311
12.3317
12.6565
12.9583
13.1738
13.2186
13.0074
12.5011
11.7526
10.9124
10.183
9.74216
9.67317
9.92967
10.3471
10.6953
10.7613
10.4359
9.76555
8.93687
8.18715
7.69181
7.49263
7.51746
7.65616
7.82635
7.95834
7.95074
7.68378
7.14267
6.499
6.0109
5.79928
5.778
5.79826
5.84587
)
;
    }
    outlet
    {
        type            calculated;
        value           nonuniform List<scalar> 
3200
(
52.7494
54.0689
51.3327
49.1645
47.5294
47.0132
48.6936
54.329
58.0374
56.8087
51.5623
44.3853
37.056
40.1589
42.4124
34.8366
34.7065
38.463
41.2138
43.5577
44.7235
42.729
36.9972
35.4798
36.9772
38.9777
40.1027
40.6431
40.9428
41.0885
41.0682
40.8871
40.0298
38.3138
40.1497
42.0858
42.9967
43.3365
43.4302
43.309
43.0573
42.6932
42.2178
41.6897
41.288
41.1639
41.273
41.4845
41.6538
41.6482
41.394
40.8926
40.1441
38.9132
36.2371
32.3529
30.871
30.5043
30.1767
29.9972
29.9889
30.0382
30.0682
30.064
30.0728
30.1335
30.2478
30.3628
30.4296
30.4021
30.1991
29.8753
29.5328
29.2682
29.1739
29.3173
29.7428
30.4584
31.4975
31.4295
63.1347
76.0568
75.4745
73.0356
70.7648
69.5337
70.5332
73.0283
73.3284
71.7258
67.5342
58.2831
47.8227
54.6346
55.6243
47.6445
45.4789
51.2476
55.6874
58.4042
59.374
58.0131
54.4412
52.0003
51.1481
50.7126
50.1533
49.6038
49.1647
48.8435
48.6333
48.37
47.2667
45.5329
47.5571
49.7999
50.6524
50.7813
50.6233
50.3959
50.1631
49.9237
49.6445
49.2957
48.8824
48.4934
48.2117
48.0391
47.9182
47.7717
47.5718
47.3572
47.2054
47.123
46.9532
46.8063
46.6092
46.5669
46.4006
46.3005
46.3183
46.3622
46.3723
46.3526
46.3577
46.4253
46.5476
46.6626
46.7222
46.6805
46.4685
46.1518
45.8516
45.6532
45.6
45.6311
45.6869
45.8142
45.4281
39.974
61.3504
80.4936
83.4645
82.2034
80.417
79.0243
78.7758
78.4166
77.2149
75.1123
70.7311
60.2588
51.2863
61.1054
61.4666
54.0591
49.9153
55.3152
60.6357
63.3356
63.4862
62.1994
59.8974
57.4967
55.6271
54.1873
53.0049
52.0682
51.3431
50.7901
50.3826
49.9528
48.8659
47.3597
48.9398
51.0748
51.9854
52.162
52.0416
51.844
51.6406
51.4381
51.2066
50.9067
50.5254
50.1079
49.7495
49.4929
49.316
49.172
49.0396
48.9543
49.0178
49.3677
50.1849
51.5995
52.5668
52.8581
52.8952
52.9051
52.9332
52.9411
52.9088
52.8577
52.8367
52.8779
52.975
53.0779
53.14
53.1171
52.9632
52.7109
52.4156
52.0748
51.6362
51.0451
50.5094
50.3096
48.8481
41.088
57.2389
78.1971
84.2077
84.3962
83.5304
82.4973
81.4706
80.0366
78.2221
75.838
70.8446
59.3252
53.7582
65.1384
65.1941
59.1157
53.6682
57.7208
62.9596
64.9493
64.5813
63.3696
61.6199
59.5018
57.4573
55.7397
54.3486
53.2389
52.3342
51.594
51.0105
50.4404
49.3875
48.0823
49.172
51.1026
52.0957
52.3869
52.3545
52.2125
52.043
51.8663
51.6623
51.398
51.0604
50.6863
50.3523
50.1079
49.9379
49.7995
49.6758
49.6218
49.7787
50.3291
51.4944
53.2764
54.6642
55.2434
55.4434
55.5435
55.5945
55.5884
55.5322
55.462
55.429
55.4681
55.5779
55.7138
55.8134
55.8035
55.6116
55.2062
54.5825
53.7399
52.7439
51.8429
51.5012
51.4436
48.7338
40.108
53.2931
73.8634
82.2346
83.586
83.3604
82.7367
81.7012
80.1919
78.3712
75.9913
70.3243
58.5964
56.4696
67.6225
67.7283
63.0811
57.4662
60.0632
64.1098
65.1259
64.5868
63.5888
62.1717
60.3173
58.3532
56.5753
55.0625
53.8051
52.7541
51.895
51.2268
50.5925
49.5912
48.4305
49.0805
50.7271
51.7372
52.1162
52.1716
52.107
52.0082
51.8973
51.7557
51.5551
51.2845
50.9705
50.6706
50.4286
50.2373
50.0653
49.9201
49.892
50.1389
50.8116
52.0711
53.821
55.2401
55.9588
56.2627
56.426
56.5109
56.5215
56.4772
56.4235
56.4154
56.4869
56.626
56.7649
56.7997
56.6148
56.1204
55.2967
54.2075
53.0008
51.9581
51.4979
51.7642
51.3901
47.1327
38.6842
49.9902
69.0855
79.2969
81.6578
81.6759
81.2483
80.4297
79.2521
77.8186
75.7007
70.2108
59.9081
59.7042
68.9039
69.1661
65.7892
60.872
62.2368
64.7243
64.8528
64.1975
63.423
62.2832
60.6547
58.8186
57.0422
55.4385
54.058
52.9104
52.0053
51.3176
50.653
49.6868
48.6131
48.8795
50.1807
51.1314
51.5628
51.7073
51.7498
51.7673
51.77
51.7299
51.6161
51.4146
51.138
50.8294
50.539
50.2868
50.0724
49.9321
49.9711
50.3166
51.0471
52.2733
53.881
55.2166
55.9744
56.3312
56.5358
56.6618
56.7184
56.7247
56.7191
56.7412