/*--------------------------------*- C++ -*----------------------------------*\
| =========                 |                                                 |
| \\      /  F ield         | OpenFOAM: The Open Source CFD Toolbox           |
|  \\    /   O peration     | Version:  v2012                                 |
|   \\  /    A nd           | Website:  www.openfoam.com                      |
|    \\/     M anipulation  |                                                 |
\*---------------------------------------------------------------------------*/
FoamFile
{
    version     2.0;
    format      ascii;
    class       volScalarField;
    location    "450/air";
    object      rho;
}
// * * * * * * * * * * * * * * * * * * * * * * * * * * * * * * * * * * * * * //

dimensions      [1 -3 0 0 0 0 0];


internalField   nonuniform List<scalar> 
287104
(
0.999041
0.998146
0.997345
0.996615
0.99594
0.995314
0.994727
0.994176
0.993656
0.993163
0.992694
0.992246
0.991817
0.991405
0.991008
0.990624
0.990253
0.989892
0.989542
0.989201
0.988869
0.988544
0.988226
0.987915
0.98761
0.98731
0.987016
0.986727
0.986442
0.986162
0.985886
0.985614
0.985346
0.985081
0.98482
0.984562
0.984308
0.984057
0.983808
0.983563
0.983321
0.983081
0.982844
0.98261
0.982379
0.98215
0.981924
0.981701
0.98148
0.981261
0.981046
0.980832
0.980621
0.980413
0.980207
0.980004
0.979803
0.979604
0.979408
0.979214
0.979022
0.978833
0.978645
0.978461
0.978278
0.978097
0.977919
0.977743
0.977569
0.977396
0.977226
0.977058
0.976891
0.976726
0.976563
0.976401
0.976241
0.976083
0.975926
0.97577
0.975615
0.975461
0.975308
0.975155
0.975002
0.974849
0.974694
0.974536
0.974366
0.974168
0.999053
0.998171
0.997381
0.996661
0.995996
0.995379
0.994802
0.99426
0.993748
0.993263
0.992802
0.992362
0.99194
0.991536
0.991146
0.99077
0.990406
0.990053
0.98971
0.989376
0.989051
0.988733
0.988423
0.988118
0.98782
0.987528
0.987241
0.986959
0.986681
0.986408
0.986139
0.985875
0.985613
0.985356
0.985102
0.984851
0.984604
0.98436
0.984119
0.98388
0.983645
0.983412
0.983183
0.982955
0.982731
0.982509
0.98229
0.982073
0.981859
0.981647
0.981438
0.981231
0.981027
0.980825
0.980625
0.980428
0.980233
0.980041
0.97985
0.979662
0.979477
0.979293
0.979112
0.978933
0.978756
0.978581
0.978408
0.978237
0.978068
0.977901
0.977736
0.977573
0.977411
0.977251
0.977093
0.976936
0.976781
0.976627
0.976475
0.976323
0.976173
0.976024
0.975875
0.975726
0.975578
0.975429
0.975279
0.975125
0.97496
0.974765
0.999066
0.998196
0.997416
0.996706
0.996051
0.995442
0.994872
0.994337
0.993833
0.993355
0.9929
0.992466
0.992051
0.991652
0.991268
0.990897
0.990539
0.990191
0.989854
0.989525
0.989205
0.988892
0.988587
0.988287
0.987994
0.987707
0.987425
0.987148
0.986876
0.986608
0.986344
0.986084
0.985829
0.985576
0.985328
0.985082
0.98484
0.984602
0.984366
0.984133
0.983903
0.983676
0.983452
0.98323
0.983011
0.982795
0.982582
0.982371
0.982162
0.981956
0.981753
0.981552
0.981354
0.981158
0.980964
0.980773
0.980585
0.980398
0.980214
0.980033
0.979854
0.979676
0.979502
0.979329
0.979159
0.97899
0.978824
0.97866
0.978498
0.978338
0.97818
0.978024
0.977869
0.977716
0.977565
0.977415
0.977267
0.977121
0.976976
0.976832
0.976689
0.976548
0.976406
0.976265
0.976125
0.975984
0.975841
0.975695
0.975538
0.975351
0.999079
0.99822
0.997452
0.996751
0.996104
0.995503
0.994942
0.994414
0.993916
0.993444
0.992996
0.992568
0.992158
0.991764
0.991385
0.99102
0.990666
0.990323
0.98999
0.989666
0.98935
0.989042
0.98874
0.988446
0.988157
0.987873
0.987595
0.987322
0.987054
0.98679
0.98653
0.986274
0.986022
0.985774
0.985529
0.985288
0.98505
0.984815
0.984582
0.984353
0.984127
0.983904
0.983683
0.983466
0.98325
0.983038
0.982828
0.982621
0.982416
0.982214
0.982014
0.981817
0.981622
0.981429
0.981239
0.981052
0.980867
0.980684
0.980503
0.980325
0.980149
0.979975
0.979804
0.979634
0.979467
0.979301
0.979138
0.978977
0.978817
0.97866
0.978504
0.97835
0.978197
0.978046
0.977897
0.977748
0.977601
0.977456
0.977311
0.977167
0.977024
0.976882
0.97674
0.976597
0.976455
0.976311
0.976166
0.976017
0.975856
0.975665
0.999091
0.998245
0.997486
0.996795
0.996157
0.995564
0.99501
0.99449
0.993998
0.993533
0.99309
0.992668
0.992263
0.991875
0.991501
0.99114
0.990791
0.990453
0.990124
0.989805
0.989493
0.989189
0.988892
0.988601
0.988316
0.988037
0.987763
0.987494
0.987229
0.986969
0.986713
0.986462
0.986214
0.985969
0.985728
0.985491
0.985257
0.985026
0.984798
0.984573
0.984352
0.984133
0.983916
0.983703
0.983492
0.983284
0.983079
0.982876
0.982676
0.982479
0.982284
0.982091
0.981901
0.981714
0.981529
0.981346
0.981166
0.980988
0.980812
0.980639
0.980468
0.980299
0.980133
0.979968
0.979806
0.979645
0.979487
0.97933
0.979175
0.979022
0.978871
0.978721
0.978572
0.978425
0.97828
0.978135
0.977992
0.97785
0.977708
0.977568
0.977428
0.977288
0.977149
0.97701
0.97687
0.97673
0.976589
0.976444
0.976288
0.976104
0.999104
0.998269
0.997521
0.996839
0.996209
0.995624
0.995078
0.994564
0.994079
0.99362
0.993183
0.992766
0.992367
0.991984
0.991615
0.991259
0.990915
0.990581
0.990256
0.989941
0.989633
0.989333
0.98904
0.988753
0.988472
0.988197
0.987926
0.987661
0.987401
0.987145
0.986893
0.986645
0.986401
0.986161
0.985925
0.985692
0.985463
0.985236
0.985013
0.984794
0.984577
0.984363
0.984153
0.983945
0.983741
0.983539
0.983341
0.983145
0.982952
0.982762
0.982575
0.98239
0.982209
0.98203
0.981854
0.98168
0.98151
0.981342
0.981176
0.981013
0.980853
0.980695
0.98054
0.980387
0.980237
0.980089
0.979944
0.979801
0.97966
0.979521
0.979385
0.979251
0.979119
0.978989
0.978861
0.978735
0.978612
0.97849
0.978371
0.978254
0.978139
0.978026
0.977916
0.977808
0.977703
0.9776
0.977499
0.977398
0.977287
0.977152
0.999116
0.998292
0.997555
0.996882
0.996261
0.995684
0.995144
0.994638
0.994159
0.993706
0.993275
0.992863
0.992469
0.992091
0.991726
0.991375
0.991034
0.990704
0.990384
0.990072
0.989768
0.989472
0.989182
0.988899
0.988622
0.988351
0.988085
0.987824
0.987568
0.987316
0.98707
0.986827
0.986589
0.986355
0.986125
0.985899
0.985677
0.985459
0.985245
0.985035
0.984828
0.984625
0.984426
0.984232
0.984044
0.983861
0.983682
0.983508
0.983339
0.983173
0.983011
0.982853
0.982699
0.982548
0.982401
0.982257
0.982117
0.98198
0.981846
0.981715
0.981588
0.981463
0.981342
0.981225
0.98111
0.980999
0.980892
0.980787
0.980687
0.98059
0.980497
0.980408
0.980323
0.980243
0.980166
0.980095
0.980027
0.979965
0.979907
0.979854
0.979806
0.979763
0.979725
0.979691
0.979661
0.979632
0.9796
0.979556
0.979485
0.979399
0.999128
0.998316
0.997588
0.996924
0.996312
0.995743
0.99521
0.99471
0.994238
0.993791
0.993365
0.992959
0.99257
0.992196
0.991836
0.991489
0.991152
0.990825
0.990508
0.9902
0.989899
0.989606
0.989319
0.98904
0.988766
0.988499
0.988237
0.987982
0.987731
0.987487
0.987247
0.987013
0.986787
0.986568
0.986357
0.986153
0.985956
0.985765
0.985582
0.985405
0.985234
0.98507
0.984912
0.98476
0.984614
0.984474
0.98434
0.984211
0.984088
0.98397
0.983859
0.983755
0.983657
0.983566
0.98348
0.983402
0.983329
0.983262
0.983201
0.983146
0.983097
0.983054
0.983016
0.982985
0.982958
0.982938
0.982923
0.982914
0.98291
0.982912
0.982919
0.982931
0.982948
0.982971
0.982998
0.98303
0.983067
0.983108
0.983153
0.983203
0.983256
0.983312
0.983369
0.983428
0.983486
0.983541
0.98359
0.983626
0.983617
0.983541
0.99914
0.998339
0.997621
0.996966
0.996362
0.995801
0.995275
0.994782
0.994316
0.993874
0.993453
0.993051
0.992665
0.992291
0.99193
0.991579
0.991238
0.990905
0.990582
0.990267
0.98996
0.989661
0.98937
0.989086
0.988815
0.988555
0.988308
0.988071
0.987845
0.98763
0.987424
0.987228
0.987042
0.986865
0.986698
0.98654
0.986391
0.986252
0.986122
0.985999
0.985884
0.985776
0.985677
0.985586
0.985504
0.98543
0.985364
0.985306
0.985257
0.985215
0.985179
0.985149
0.985125
0.985106
0.985093
0.985085
0.985082
0.985084
0.985091
0.985103
0.985119
0.985139
0.985163
0.98519
0.985222
0.985257
0.985295
0.985337
0.985381
0.985428
0.985478
0.98553
0.985584
0.985639
0.985697
0.985756
0.985816
0.985877
0.98594
0.986004
0.98607
0.986134
0.986197
0.986258
0.986317
0.986373
0.986423
0.986464
0.986478
0.986449
0.999152
0.998362
0.997654
0.997008
0.996412
0.995858
0.995339
0.994852
0.994392
0.993956
0.993529
0.993101
0.992669
0.992236
0.991805
0.991379
0.990961
0.990552
0.990154
0.989769
0.989398
0.989042
0.988699
0.988371
0.988063
0.987774
0.987502
0.987245
0.987002
0.986772
0.986555
0.986349
0.98615
0.985956
0.985767
0.985582
0.985402
0.985228
0.985062
0.984904
0.984756
0.984617
0.984488
0.984371
0.984265
0.984169
0.984083
0.984006
0.983937
0.983878
0.983826
0.983784
0.983749
0.983724
0.983707
0.9837
0.9837
0.983709
0.983726
0.983751
0.983784
0.983824
0.983871
0.983924
0.983984
0.98405
0.984122
0.984199
0.984282
0.984369
0.98446
0.984555
0.984653
0.984755
0.984858
0.984964
0.985072
0.985181
0.985292
0.98541
0.985548
0.985693
0.98584
0.985984
0.986121
0.986247
0.98636
0.986453
0.98651
0.986514
0.999164
0.998384
0.997686
0.997049
0.996461
0.995914
0.995403
0.994921
0.994466
0.994024
0.9932
0.992318
0.991429
0.990551
0.989697
0.988875
0.988089
0.987347
0.986652
0.986009
0.985419
0.984884
0.984406
0.983982
0.983609
0.983283
0.983
0.982753
0.982535
0.98234
0.982162
0.981995
0.98184
0.981694
0.981554
0.981415
0.981277
0.981139
0.981001
0.980862
0.98072
0.980576
0.980429
0.980285
0.980141
0.98
0.97986
0.979725
0.979594
0.979468
0.979348
0.979236
0.97913
0.979033
0.978945
0.978866
0.978796
0.978738
0.97869
0.978654
0.97863
0.978619
0.978619
0.978632
0.978658
0.978696
0.978746
0.978808
0.978882
0.978968
0.979064
0.97917
0.979286
0.979411
0.979544
0.979685
0.979833
0.979989
0.980155
0.980502
0.981047
0.981546
0.982005
0.98243
0.982822
0.98318
0.983499
0.983773
0.983976
0.984074
0.999175
0.998407
0.997718
0.997089
0.996509
0.99597
0.995465
0.99499
0.994541
0.994105
0.993299
0.992436
0.991562
0.990697
0.989852
0.989033
0.988249
0.987503
0.986803
0.986152
0.985554
0.985011
0.984524
0.984093
0.983716
0.983389
0.983107
0.982864
0.982653
0.982468
0.982302
0.982149
0.982004
0.981863
0.981723
0.981579
0.981431
0.98128
0.981126
0.980965
0.980799
0.980625
0.980444
0.98026
0.980073
0.979881
0.979686
0.979486
0.979284
0.979077
0.978867
0.978654
0.978437
0.978218
0.977995
0.977771
0.977546
0.977322
0.977098
0.976877
0.976659
0.976446
0.976241
0.976045
0.975861
0.97569
0.975534
0.975397
0.97528
0.975186
0.975116
0.975071
0.975053
0.975063
0.9751
0.975164
0.975254
0.975369
0.975509
0.975701
0.976057
0.976509
0.977006
0.97752
0.978029
0.978521
0.978985
0.97941
0.979779
0.980071
0.999187
0.998429
0.997749
0.99713
0.996557
0.996025
0.995527
0.995058
0.994615
0.994184
0.99339
0.992541
0.991681
0.99083
0.989996
0.98919
0.988416
0.987681
0.986991
0.98635
0.985761
0.985229
0.984754
0.984336
0.983974
0.983663
0.9834
0.983177
0.982989
0.982827
0.982686
0.982558
0.98244
0.982326
0.982213
0.982096
0.981975
0.981853
0.981729
0.981601
0.981469
0.98133
0.981187
0.981045
0.980903
0.980759
0.980615
0.980471
0.980326
0.980182
0.980038
0.979894
0.97975
0.979606
0.979461
0.979316
0.97917
0.979021
0.978869
0.978714
0.978555
0.978393
0.978226
0.978054
0.977877
0.977694
0.977506
0.977313
0.977114
0.97691
0.976702
0.976489
0.976273
0.976055
0.975835
0.975616
0.975399
0.975187
0.974982
0.974804
0.974741
0.974772
0.974866
0.975003
0.97517
0.975356
0.975553
0.975752
0.975933
0.976078
0.999198
0.99845
0.99778
0.997169
0.996605
0.99608
0.995588
0.995126
0.994688
0.994263
0.993482
0.992646
0.9918
0.990961
0.99014
0.989346
0.988584
0.98786
0.98718
0.986548
0.985968
0.985444
0.984977
0.984566
0.984211
0.983907
0.98365
0.983433
0.983251
0.983095
0.98296
0.98284
0.982728
0.982621
0.982514
0.982403
0.982288
0.982172
0.982056
0.981936
0.981811
0.981681
0.981545
0.981412
0.981282
0.981151
0.981021
0.980893
0.980767
0.980644
0.980523
0.980406
0.980298
0.980197
0.980103
0.980014
0.979929
0.979847
0.97977
0.979696
0.979627
0.979562
0.979501
0.979445
0.979392
0.979343
0.979298
0.979256
0.979217
0.979181
0.979148
0.979116
0.979085
0.979054
0.979022
0.97899
0.978957
0.978926
0.978911
0.979019
0.97927
0.979465
0.979607
0.9797
0.979744
0.979738
0.979682
0.979604
0.979519
0.979395
0.999209
0.998472
0.997811
0.997208
0.996652
0.996134
0.995649
0.995193
0.994761
0.994341
0.993572
0.992749
0.991916
0.99109
0.990282
0.9895
0.988749
0.988036
0.987366
0.986743
0.986173
0.985656
0.985197
0.984793
0.984444
0.984145
0.983893
0.98368
0.983501
0.983348
0.983216
0.983097
0.982987
0.982882
0.982776
0.982665
0.982549
0.982433
0.982316
0.982194
0.982068
0.981936
0.981797
0.981661
0.981529
0.981396
0.981264
0.981133
0.981004
0.980877
0.980753
0.980633
0.980516
0.980403
0.980293
0.980186
0.980082
0.979982
0.979886
0.979796
0.979711
0.97963
0.979552
0.979478
0.979406
0.979338
0.979275
0.979217
0.979163
0.979115
0.979074
0.979038
0.97901
0.97899
0.978979
0.978976
0.978986
0.979011
0.979066
0.979254
0.979597
0.979909
0.980196
0.980464
0.980715
0.980949
0.981159
0.981336
0.981433
0.981387
0.99922
0.998493
0.997841
0.997247
0.996698
0.996187
0.995709
0.995259
0.994833
0.994419
0.993662
0.992852
0.992032
0.991219
0.990423
0.989653
0.988913
0.988211
0.987551
0.986938
0.986377
0.985869
0.985416
0.985019
0.984676
0.984383
0.984134
0.983925
0.983747
0.983595
0.983462
0.983343
0.983233
0.983126
0.983018
0.982905
0.982785
0.982664
0.982542
0.982415
0.982283
0.982143
0.981997
0.981854
0.981714
0.981573
0.981432
0.981292
0.981154
0.981017
0.980884
0.980753
0.980626
0.980502
0.98038
0.98026
0.980141
0.980023
0.979907
0.979791
0.979676
0.97956
0.979444
0.979327
0.979209
0.979089
0.978968
0.978846
0.978722
0.978595
0.978467
0.978336
0.978202
0.978067
0.977929
0.977788
0.977645
0.977501
0.977354
0.97722
0.977175
0.977173
0.9772
0.977239
0.977281
0.977321
0.977352
0.97737
0.977357
0.977289
0.999231
0.998514
0.997871
0.997285
0.996743
0.99624
0.995768
0.995324
0.994904
0.994496
0.993751
0.992954
0.992147
0.991346
0.990563
0.989804
0.989077
0.988385
0.987736
0.987133
0.98658
0.986081
0.985636
0.985246
0.984909
0.98462
0.984376
0.984168
0.983991
0.983838
0.983703
0.983581
0.983467
0.983355
0.983243
0.983123
0.982996
0.982867
0.982737
0.982602
0.982461
0.982312
0.982155
0.982001
0.981851
0.9817
0.981548
0.981397
0.981247
0.9811
0.980955
0.980814
0.980677
0.980541
0.980407
0.980273
0.980141
0.980008
0.979874
0.97974
0.979604
0.979467
0.979327
0.979185
0.97904
0.978893
0.978742
0.978589
0.978432
0.978273
0.97811
0.977946
0.977779
0.97761
0.977441
0.977271
0.977102
0.976935
0.97677
0.97662
0.97656
0.976577
0.976646
0.97675
0.976876
0.977014
0.977156
0.977293
0.977408
0.977481
0.999242
0.998535
0.997901
0.997323
0.996789
0.996292
0.995827
0.995389
0.994974
0.994572
0.993839
0.993054
0.992259
0.991471
0.9907
0.989953
0.989237
0.988557
0.987918
0.987326
0.986783
0.986294
0.985859
0.985477
0.985148
0.984867
0.984628
0.984425
0.98425
0.984097
0.98396
0.983835
0.983717
0.983603
0.983487
0.983364
0.983233
0.983101
0.982968
0.982829
0.982684
0.982531
0.982368
0.982208
0.982053
0.981896
0.981739
0.981583
0.98143
0.981282
0.981139
0.981003
0.980871
0.980744
0.980619
0.980497
0.980376
0.980257
0.98014
0.980023
0.979907
0.979791
0.979676
0.979562
0.979449
0.979337
0.979226
0.979118
0.979012
0.97891
0.978813
0.97872
0.978634
0.978554
0.978482
0.978419
0.978366
0.978323
0.978294
0.978306
0.978446
0.978671
0.978943
0.979236
0.979535
0.979829
0.980109
0.980367
0.980582
0.980732
0.999252
0.998555
0.99793
0.99736
0.996833
0.996343
0.995884
0.995453
0.995044
0.994647
0.993926
0.993153
0.992371
0.991595
0.990836
0.990101
0.989398
0.988733
0.98811
0.987536
0.987015
0.986549
0.986139
0.985785
0.985483
0.985229
0.985014
0.984833
0.984676
0.984537
0.984412
0.984296
0.984187
0.984081
0.983974
0.98386
0.983737
0.983611
0.983483
0.983346
0.9832
0.983042
0.982871
0.9827
0.982532
0.982362
0.982193
0.982026
0.981866
0.981716
0.981577
0.98145
0.981334
0.981227
0.981128
0.981036
0.980952
0.980875
0.980804
0.98074
0.98068
0.980626
0.980575
0.980529
0.980488
0.98045
0.980417
0.980388
0.980365
0.980347
0.980335
0.98033
0.980331
0.98034
0.980356
0.98038
0.980412
0.980455
0.980533
0.980787
0.981207
0.981598
0.981961
0.982301
0.982618
0.982911
0.983176
0.983403
0.983557
0.98359
0.999262
0.998575
0.997959
0.997396
0.996877
0.996394
0.995941
0.995516
0.995113
0.994721
0.994006
0.99324
0.992465
0.991704
0.990971
0.990275
0.989626
0.989032
0.988497
0.988024
0.987614
0.987262
0.986965
0.986717
0.986509
0.986334
0.986185
0.986054
0.985934
0.98582
0.985711
0.985605
0.985501
0.985397
0.985291
0.985176
0.985051
0.98492
0.984784
0.984634
0.984469
0.984286
0.984084
0.983876
0.983663
0.983444
0.983221
0.983
0.982788
0.98259
0.982412
0.982254
0.982118
0.982004
0.981912
0.981842
0.981808
0.981803
0.981818
0.981847
0.981884
0.981927
0.981973
0.982022
0.982072
0.982123
0.982175
0.98223
0.982287
0.982346
0.982408
0.982474
0.982543
0.982616
0.982693
0.982776
0.982865
0.982966
0.983095
0.983361
0.983763
0.984115
0.984427
0.98471
0.984968
0.985203
0.985414
0.985595
0.985723
0.985768
0.999273
0.998595
0.997987
0.997433
0.99692
0.996444
0.995998
0.995578
0.995182
0.994806
0.994447
0.9941
0.993764
0.993438
0.99312
0.992811
0.99251
0.992218
0.991935
0.99166
0.991393
0.991135
0.990886
0.990644
0.99041
0.990184
0.989964
0.989751
0.989543
0.98934
0.989141
0.988947
0.988757
0.988573
0.988392
0.988214
0.988037
0.987862
0.987691
0.98752
0.98735
0.987179
0.987006
0.986836
0.986667
0.986504
0.986348
0.9862
0.986063
0.985938
0.985827
0.985728
0.985642
0.985569
0.985507
0.985457
0.985418
0.98539
0.985371
0.985361
0.985359
0.985365
0.985376
0.985394
0.985417
0.985444
0.985476
0.985512
0.985552
0.985594
0.98564
0.985689
0.98574
0.985794
0.985851
0.985911
0.985973
0.986038
0.986108
0.986184
0.986275
0.986371
0.986471
0.986571
0.986671
0.986766
0.986856
0.986933
0.98698
0.98698
0.999283
0.998615
0.998015
0.997469
0.996963
0.996494
0.996054
0.99564
0.995249
0.994879
0.994526
0.994188
0.993865
0.993553
0.993253
0.992963
0.992683
0.992411
0.992147
0.991891
0.991642
0.9914
0.991165
0.990936
0.990712
0.990495
0.990282
0.990074
0.98987
0.989669
0.98947
0.989274
0.989082
0.988893
0.988708
0.988524
0.988341
0.988162
0.987988
0.987815
0.987646
0.987478
0.987312
0.987152
0.986998
0.986849
0.986706
0.98657
0.986444
0.986328
0.986223
0.986128
0.986043
0.985966
0.985898
0.985838
0.985787
0.985744
0.985708
0.98568
0.985658
0.985643
0.985633
0.985629
0.98563
0.985636
0.985646
0.98566
0.985679
0.985701
0.985727
0.985756
0.985789
0.985824
0.985863
0.985904
0.985949
0.985997
0.986048
0.986103
0.986162
0.986221
0.986279
0.986335
0.986388
0.986438
0.986481
0.986514
0.986517
0.986472
0.999293
0.998634
0.998043
0.997504
0.997006
0.996543
0.996109
0.995702
0.995316
0.994951
0.994603
0.994271
0.993953
0.993647
0.993353
0.993068
0.992793
0.992526
0.992267
0.992015
0.991769
0.99153
0.991296
0.991067
0.990844
0.990624
0.99041
0.990199
0.989992
0.989787
0.989584
0.989383
0.989185
0.988991
0.9888
0.988611
0.988423
0.988238
0.988057
0.987877
0.987699
0.987522
0.987343
0.987165
0.98699
0.986815
0.98664
0.986467
0.986297
0.986132
0.985972
0.985817
0.985668
0.985528
0.985396
0.985274
0.985159
0.985053
0.984954
0.984862
0.984776
0.984697
0.984623
0.984555
0.984492
0.984434
0.984381
0.984332
0.984288
0.984248
0.984212
0.98418
0.984152
0.984128
0.984108
0.984092
0.984079
0.98407
0.984065
0.984063
0.984064
0.984068
0.984074
0.984083
0.984093
0.984102
0.984108
0.984105
0.984064
0.984011
0.999303
0.998654
0.998071
0.99754
0.997049
0.996592
0.996165
0.995763
0.995383
0.995023
0.99468
0.994353
0.994039
0.993738
0.993447
0.993167
0.992896
0.992632
0.992377
0.992128
0.991886
0.991649
0.991418
0.991192
0.990971
0.990754
0.990541
0.990331
0.990126
0.989922
0.989721
0.989521
0.989323
0.989128
0.988937
0.988748
0.98856
0.988376
0.988197
0.988023
0.987852
0.987686
0.98752
0.987357
0.987195
0.987033
0.986871
0.98671
0.986551
0.986395
0.986243
0.986096
0.985953
0.985816
0.985683
0.985557
0.985438
0.985325
0.98522
0.985122
0.985031
0.984947
0.98487
0.9848
0.984737
0.98468
0.984629
0.984583
0.984542
0.984505
0.984472
0.984441
0.984413
0.984386
0.984361
0.984336
0.984312
0.984287
0.984262
0.984237
0.98421
0.984181
0.984151
0.984118
0.984083
0.984045
0.984005
0.983959
0.983904
0.983829
0.999313
0.998673
0.998099
0.997575
0.997091
0.996641
0.99622
0.995824
0.995449
0.995094
0.994757
0.994434
0.994125
0.993828
0.993542
0.993266
0.992998
0.992739
0.992487
0.992242
0.992003
0.99177
0.991542
0.991318
0.9911
0.990885
0.990674
0.990466
0.990261
0.990059
0.989859
0.98966
0.989463
0.989269
0.989078
0.988889
0.988702
0.988522
0.988355
0.988205
0.988075
0.987963
0.987858
0.987759
0.987665
0.987569
0.987473
0.987377
0.987283
0.987191
0.987104
0.987024
0.986951
0.986887
0.986831
0.986784
0.986745
0.986713
0.986687
0.986668
0.986652
0.98664
0.986631
0.986623
0.986616
0.986608
0.9866
0.98659
0.986578
0.986563
0.986546
0.986526
0.986502
0.986474
0.986443
0.986407
0.986368
0.986325
0.986277
0.986225
0.986169
0.986109
0.986043
0.985972
0.985896
0.985815
0.985727
0.985633
0.985527
0.985402
0.999323
0.998692
0.998127
0.99761
0.997134
0.99669
0.996274
0.995884
0.995515
0.995165
0.994832
0.994514
0.994209
0.993916
0.993634
0.993362
0.993098
0.992842
0.992594
0.992352
0.992116
0.991886
0.99166
0.99144
0.991224
0.991011
0.990802
0.990596
0.990392
0.990191
0.989992
0.989794
0.989597
0.989403
0.989211
0.989023
0.988838
0.98867
0.988551
0.988506
0.988532
0.9886
0.988683
0.98877
0.988853
0.988928
0.988994
0.989053
0.989106
0.989153
0.989189
0.989221
0.989247
0.989267
0.989281
0.989287
0.989287
0.98928
0.989267
0.989249
0.989226
0.989198
0.989167
0.989133
0.989096
0.989056
0.989013
0.988968
0.988921
0.988871
0.988819
0.988765
0.988709
0.988651
0.98859
0.988526
0.98846
0.988392
0.988321
0.988247
0.98817
0.98809
0.988006
0.987919
0.987828
0.987732
0.987632
0.987527
0.987411
0.987277
0.999333
0.998711
0.998154
0.997645
0.997175
0.996737
0.996328
0.995943
0.995579
0.995234
0.994905
0.994592
0.994291
0.994002
0.993724
0.993455
0.993195
0.992943
0.992697
0.992458
0.992225
0.991998
0.991775
0.991557
0.991343
0.991133
0.990925
0.99072
0.990518
0.990317
0.990117
0.989919
0.989722
0.989526
0.989333
0.989144
0.988961
0.988862
0.988989
0.989304
0.989721
0.990131
0.990475
0.990758
0.99098
0.991146
0.991266
0.99135
0.991403
0.991433
0.991443
0.991433
0.991407
0.991369
0.991322
0.991268
0.991208
0.991145
0.991079
0.991011
0.990942
0.990873
0.990804
0.990734
0.990664
0.990594
0.990525
0.990455
0.990385
0.990315
0.990245
0.990174
0.990103
0.990032
0.989961
0.989889
0.989816
0.989741
0.989664
0.989585
0.989504
0.98942
0.989334
0.989246
0.989155
0.989062
0.988966
0.988866
0.988757
0.988634
0.999342
0.998729
0.998179
0.997677
0.997213
0.996782
0.996378
0.995998
0.995639
0.995299
0.994974
0.994665
0.994368
0.994083
0.993808
0.993543
0.993286
0.993036
0.992794
0.992558
0.992327
0.992102
0.991881
0.991665
0.991453
0.991244
0.991038
0.990834
0.990632
0.990431
0.990231
0.990031
0.989832
0.989633
0.989437
0.989245
0.989074
0.989188
0.989883
0.990814
0.991621
0.992174
0.992552
0.992777
0.992894
0.992934
0.992925
0.992884
0.992824
0.992751
0.992671
0.992586
0.992499
0.992411
0.992323
0.992236
0.992151
0.992067
0.991985
0.991905
0.991827
0.99175
0.991676
0.991604
0.991534
0.991465
0.991397
0.991329
0.991262
0.991195
0.991129
0.991062
0.990994
0.990926
0.990858
0.990789
0.990719
0.990647
0.990575
0.9905
0.990424
0.990346
0.990266
0.990182
0.990096
0.990006
0.989911
0.989809
0.989701
0.989583
0.99935
0.998745
0.998202
0.997706
0.997248
0.996822
0.996423
0.996048
0.995693
0.995357
0.995036
0.99473
0.994437
0.994155
0.993884
0.993621
0.993367
0.99312
0.99288
0.992646
0.992417
0.992193
0.991974
0.99176
0.991549
0.991341
0.991136
0.990932
0.99073
0.990528
0.990326
0.990125
0.989922
0.989719
0.989518
0.989321
0.989231
0.989733
0.991469
0.992798
0.993616
0.994033
0.994157
0.99415
0.99407
0.993947
0.993806
0.993661
0.993519
0.993385
0.993261
0.993146
0.993041
0.992943
0.992851
0.992764
0.992681
0.992605
0.992533
0.992464
0.992396
0.992329
0.992263
0.992197
0.992131
0.992066
0.992001
0.991937
0.991872
0.991808
0.991743
0.991679
0.991614
0.99155
0.991484
0.991418
0.991352
0.991284
0.991215
0.991144
0.991072
0.990999
0.990923
0.990846
0.990766
0.990683
0.990595
0.990502
0.990391
0.990269
0.999357
0.998758
0.998221
0.99773
0.997277
0.996855
0.99646
0.996089
0.995738
0.995405
0.995088
0.994785
0.994494
0.994215
0.993946
0.993685
0.993433
0.993188
0.99295
0.992717
0.99249
0.992267
0.992049
0.991834
0.991623
0.991415
0.99121
0.991006
0.990803
0.9906
0.990396
0.990191
0.989985
0.989778
0.989572
0.989371
0.989277
0.989809
0.991835
0.993388
0.994396
0.99496
0.994962
0.99487
0.994729
0.994558
0.994379
0.9942
0.994031
0.993875
0.993733
0.993604
0.993486
0.993381
0.993287
0.9932
0.99312
0.993043
0.992969
0.992897
0.992827
0.992757
0.992688
0.992621
0.992554
0.992487
0.992422
0.992357
0.992292
0.992228
0.992165
0.992101
0.992038
0.991974
0.991909
0.991844
0.991777
0.991709
0.99164
0.99157
0.991498
0.991423
0.991347
0.991269
0.991189
0.991106
0.99102
0.990928
0.99082
0.990694
0.999362
0.998768
0.998235
0.997748
0.997299
0.99688
0.996488
0.996119
0.995771
0.99544
0.995125
0.994824
0.994536
0.994258
0.99399
0.993732
0.993481
0.993237
0.992999
0.992767
0.99254
0.992318
0.9921
0.991885
0.991673
0.991464
0.991257
0.991051
0.990846
0.99064
0.990434
0.990226
0.990018
0.98981
0.989606
0.989413
0.989307
0.989806
0.991966
0.993668
0.994825
0.995528
0.995434
0.995275
0.995088
0.994888
0.994688
0.994495
0.994315
0.994148
0.993994
0.993853
0.99373
0.99362
0.993519
0.993426
0.993339
0.993257
0.993178
0.993102
0.993028
0.992956
0.992886
0.992818
0.992751
0.992685
0.992621
0.992558
0.992495
0.992433
0.992371
0.992309
0.992246
0.992182
0.992117
0.99205
0.991981
0.99191
0.991836
0.991759
0.99168
0.991597
0.991512
0.991425
0.991334
0.99124
0.991142
0.991037
0.990917
0.990785
0.999365
0.998774
0.998244
0.99776
0.997312
0.996895
0.996505
0.996138
0.995791
0.995462
0.995148
0.994848
0.99456
0.994283
0.994016
0.993758
0.993507
0.993264
0.993026
0.992794
0.992567
0.992344
0.992125
0.991909
0.991696
0.991485
0.991275
0.991067
0.990859
0.990651
0.990442
0.990234
0.99003
0.989836
0.989661
0.989511
0.989397
0.989801
0.991859
0.99355
0.994732
0.99548
0.995356
0.995172
0.994973
0.994772
0.994579
0.994398
0.994231
0.994076
0.993933
0.993801
0.993682
0.993573
0.993471
0.993376
0.993286
0.9932
0.993119
0.993042
0.992968
0.992897
0.992829
0.992764
0.992701
0.99264
0.992581
0.992523
0.992465
0.992407
0.992348
0.992287
0.992225
0.992159
0.99209
0.992017
0.99194
0.991857
0.99177
0.991677
0.991579
0.991474
0.991364
0.991248
0.991127
0.991003
0.99088
0.990755
0.990622
0.990478
0.999367
0.998777
0.998248
0.997765
0.997318
0.996903
0.996513
0.996147
0.9958
0.995472
0.995158
0.994858
0.994571
0.994294
0.994027
0.993768
0.993517
0.993273
0.993034
0.992802
0.992573
0.992349
0.992128
0.991911
0.991695
0.991482
0.99127
0.99106
0.99085
0.990643
0.990438
0.990243
0.990065
0.989925
0.989841
0.989816
0.989743
0.989681
0.990378
0.99128
0.992257
0.993093
0.993215
0.993289
0.993337
0.993358
0.993361
0.993348
0.99332
0.993282
0.993234
0.993179
0.993119
0.993057
0.992993
0.992927
0.992861
0.992795
0.992733
0.992672
0.992611
0.992553
0.992497
0.992443
0.99239
0.992338
0.992288
0.992237
0.992185
0.992132
0.992075
0.992014
0.991948
0.991875
0.991795
0.991706
0.991608
0.9915
0.991383
0.99126
0.991135
0.991005
0.990868
0.990721
0.990564
0.990393
0.990209
0.990008
0.989781
0.989507
0.999367
0.998778
0.998249
0.997765
0.997319
0.996904
0.996514
0.996148
0.995802
0.995473
0.99516
0.99486
0.994572
0.994295
0.994027
0.993768
0.993516
0.993271
0.993032
0.992798
0.992568
0.992342
0.992119
0.991899
0.991681
0.991466
0.991252
0.991042
0.990838
0.990643
0.990464
0.990316
0.990221
0.990214
0.99032
0.990497
0.99049
0.990408
0.990868
0.991288
0.991707
0.992098
0.991894
0.991715
0.991592
0.991528
0.991523
0.991565
0.991645
0.991742
0.99184
0.991928
0.992
0.992052
0.992086
0.992103
0.992105
0.992093
0.992074
0.992047
0.992013
0.991976
0.991935
0.991892
0.991847
0.991801
0.991752
0.9917
0.991645
0.991584
0.991515
0.991439
0.991354
0.991264
0.991169
0.991065
0.99095
0.990821
0.990677
0.990515
0.990333
0.990128
0.989895
0.989622
0.989279
0.988874
0.988423
0.987949
0.987475
0.987039
0.999366
0.998776
0.998247
0.997764
0.997317
0.996901
0.996512
0.996145
0.995799
0.99547
0.995156
0.994856
0.994569
0.994292
0.994024
0.993764
0.993512
0.993267
0.993027
0.992791
0.99256
0.992333
0.992108
0.991886
0.991666
0.99145
0.991239
0.991041
0.990863
0.990715
0.990613
0.990578
0.99064
0.990837
0.991157
0.991447
0.991375
0.991228
0.991745
0.992201
0.992584
0.99289
0.992475
0.992085
0.991766
0.991499
0.991289
0.991135
0.991045
0.991013
0.991025
0.991065
0.991119
0.991174
0.991223
0.991262
0.991291
0.991305
0.991309
0.991299
0.991279
0.991249
0.991211
0.991167
0.991117
0.991061
0.991001
0.990935
0.990863
0.990784
0.990696
0.990596
0.990484
0.990356
0.99021
0.990043
0.989853
0.989631
0.989354
0.989016
0.988631
0.98822
0.987811
0.98744
0.987164
0.986991
0.986914
0.986914
0.986964
0.987041
0.999366
0.998775
0.998245
0.997761
0.997314
0.996898
0.996508
0.996141
0.995794
0.995465
0.995151
0.994851
0.994563
0.994286
0.994018
0.993758
0.993506
0.99326
0.99302
0.992784
0.992552
0.992324
0.992098
0.991875
0.991655
0.991441
0.991248
0.9911
0.991014
0.990998
0.991058
0.991203
0.991443
0.991785
0.992163
0.992289
0.991962
0.991558
0.992185
0.99275
0.993175
0.993425
0.992366
0.991416
0.990681
0.990241
0.990016
0.989933
0.989935
0.989987
0.990062
0.990144
0.990223
0.990292
0.990348
0.990388
0.990411
0.990417
0.990408
0.990382
0.990341
0.990288
0.990222
0.990146
0.99006
0.989965
0.989859
0.989743
0.989614
0.989469
0.989306
0.989122
0.988919
0.988699
0.988466
0.988228
0.987997
0.987793
0.987653
0.98759
0.987599
0.987665
0.987775
0.987913
0.988068
0.988228
0.988385
0.98853
0.988652
0.988744
0.999365
0.998774
0.998244
0.997759
0.997312
0.996895
0.996505
0.996138
0.99579
0.995461
0.995147
0.994846
0.994558
0.99428
0.994012
0.993752
0.993499
0.993253
0.993012
0.992776
0.992543
0.992314
0.992088
0.991864
0.991645
0.991453
0.991375
0.991419
0.991573
0.991795
0.992032
0.992285
0.992541
0.992789
0.992945
0.992682
0.98836
0.989198
0.9898
0.99012