/*--------------------------------*- C++ -*----------------------------------*\
| =========                 |                                                 |
| \\      /  F ield         | OpenFOAM: The Open Source CFD Toolbox           |
|  \\    /   O peration     | Version:  v2012                                 |
|   \\  /    A nd           | Website:  www.openfoam.com                      |
|    \\/     M anipulation  |                                                 |
\*---------------------------------------------------------------------------*/
FoamFile
{
    version     2.0;
    format      ascii;
    class       volScalarField;
    location    "450/air";
    object      TLeaf;
}
// * * * * * * * * * * * * * * * * * * * * * * * * * * * * * * * * * * * * * //

dimensions      [0 0 0 1 0 0 0];


internalField   nonuniform List<scalar> 
287104
(
310.32
310.618
310.885
311.128
311.353
311.562
311.758
311.941
312.115
312.279
312.435
312.585
312.728
312.865
312.997
313.125
313.249
313.369
313.486
313.6
313.71
313.819
313.925
314.028
314.13
314.23
314.328
314.424
314.519
314.613
314.705
314.795
314.885
314.973
315.06
315.146
315.231
315.314
315.397
315.479
315.56
315.64
315.719
315.797
315.874
315.95
316.025
316.1
316.173
316.246
316.318
316.389
316.46
316.529
316.598
316.665
316.732
316.799
316.864
316.929
316.993
317.056
317.118
317.18
317.241
317.301
317.36
317.419
317.477
317.535
317.591
317.647
317.703
317.758
317.812
317.866
317.92
317.972
318.025
318.077
318.128
318.18
318.231
318.282
318.333
318.384
318.435
318.488
318.545
318.611
310.316
310.61
310.873
311.113
311.335
311.54
311.733
311.913
312.084
312.246
312.399
312.546
312.687
312.821
312.951
313.077
313.198
313.316
313.43
313.541
313.65
313.756
313.859
313.961
314.06
314.157
314.253
314.347
314.44
314.531
314.62
314.708
314.796
314.881
314.966
315.05
315.132
315.213
315.294
315.373
315.452
315.529
315.606
315.682
315.756
315.83
315.903
315.976
316.047
316.118
316.187
316.256
316.324
316.392
316.458
316.524
316.589
316.653
316.717
316.779
316.841
316.902
316.963
317.022
317.081
317.14
317.197
317.254
317.311
317.366
317.421
317.476
317.53
317.583
317.636
317.688
317.74
317.791
317.842
317.892
317.942
317.992
318.042
318.091
318.141
318.19
318.24
318.292
318.347
318.412
310.311
310.601
310.861
311.098
311.316
311.519
311.709
311.888
312.056
312.215
312.367
312.511
312.65
312.783
312.911
313.034
313.154
313.27
313.382
313.492
313.598
313.703
313.804
313.904
314.002
314.098
314.192
314.284
314.375
314.464
314.552
314.639
314.724
314.808
314.891
314.973
315.053
315.133
315.211
315.289
315.366
315.441
315.516
315.59
315.663
315.735
315.806
315.876
315.946
316.015
316.082
316.149
316.215
316.281
316.345
316.409
316.472
316.534
316.595
316.656
316.715
316.775
316.833
316.89
316.947
317.003
317.059
317.113
317.167
317.221
317.273
317.325
317.377
317.428
317.478
317.528
317.578
317.626
317.675
317.723
317.77
317.817
317.865
317.912
317.958
318.005
318.053
318.102
318.154
318.216
310.307
310.593
310.849
311.083
311.299
311.499
311.686
311.862
312.028
312.185
312.335
312.477
312.614
312.745
312.872
312.993
313.111
313.226
313.337
313.445
313.55
313.653
313.753
313.851
313.948
314.042
314.135
314.226
314.315
314.403
314.49
314.575
314.659
314.742
314.824
314.904
314.983
315.062
315.139
315.216
315.291
315.365
315.439
315.511
315.583
315.654
315.724
315.793
315.861
315.929
315.995
316.061
316.126
316.19
316.254
316.316
316.378
316.439
316.499
316.558
316.617
316.675
316.732
316.789
316.844
316.9
316.954
317.008
317.061
317.113
317.165
317.217
317.268
317.318
317.368
317.417
317.466
317.515
317.563
317.611
317.659
317.706
317.753
317.801
317.848
317.896
317.945
317.994
318.048
318.112
310.303
310.585
310.838
311.068
311.281
311.479
311.663
311.837
312.001
312.156
312.303
312.444
312.579
312.708
312.833
312.953
313.07
313.182
313.292
313.398
313.502
313.604
313.703
313.8
313.895
313.988
314.079
314.169
314.257
314.344
314.429
314.513
314.595
314.677
314.757
314.836
314.914
314.991
315.067
315.142
315.216
315.289
315.361
315.432
315.503
315.572
315.64
315.708
315.775
315.84
315.905
315.97
316.033
316.095
316.157
316.218
316.278
316.337
316.396
316.454
316.511
316.567
316.622
316.677
316.731
316.785
316.838
316.89
316.942
316.993
317.043
317.093
317.143
317.192
317.24
317.288
317.336
317.383
317.431
317.477
317.524
317.571
317.617
317.663
317.71
317.757
317.804
317.852
317.904
317.965
310.299
310.577
310.826
311.054
311.264
311.459
311.641
311.812
311.974
312.127
312.272
312.411
312.544
312.672
312.795
312.914
313.028
313.14
313.248
313.353
313.456
313.556
313.653
313.749
313.843
313.934
314.025
314.113
314.2
314.285
314.369
314.452
314.533
314.613
314.692
314.769
314.846
314.921
314.996
315.069
315.141
315.212
315.282
315.352
315.42
315.487
315.553
315.618
315.683
315.746
315.808
315.87
315.93
315.99
316.049
316.107
316.163
316.219
316.275
316.329
316.382
316.435
316.487
316.538
316.588
316.637
316.685
316.733
316.78
316.826
316.872
316.916
316.96
317.004
317.046
317.088
317.129
317.17
317.21
317.249
317.287
317.325
317.361
317.397
317.432
317.467
317.5
317.534
317.571
317.616
310.295
310.569
310.815
311.039
311.246
311.439
311.619
311.787
311.947
312.098
312.242
312.379
312.51
312.636
312.758
312.875
312.989
313.099
313.205
313.309
313.411
313.509
313.606
313.7
313.793
313.883
313.972
314.059
314.144
314.228
314.31
314.391
314.47
314.548
314.625
314.7
314.774
314.847
314.918
314.988
315.057
315.125
315.191
315.256
315.319
315.38
315.439
315.497
315.554
315.609
315.663
315.716
315.767
315.817
315.866
315.914
315.961
316.007
316.051
316.095
316.137
316.179
316.219
316.258
316.297
316.334
316.369
316.404
316.438
316.47
316.501
316.531
316.559
316.586
316.611
316.635
316.658
316.678
316.698
316.715
316.731
316.746
316.758
316.77
316.78
316.789
316.8
316.815
316.838
316.867
310.291
310.561
310.804
311.025
311.229
311.419
311.597
311.763
311.921
312.07
312.212
312.347
312.477
312.601
312.721
312.837
312.949
313.058
313.164
313.267
313.367
313.465
313.56
313.653
313.745
313.834
313.921
314.006
314.09
314.171
314.251
314.329
314.404
314.477
314.548
314.616
314.681
314.745
314.806
314.865
314.922
314.977
315.029
315.08
315.129
315.175
315.22
315.263
315.304
315.343
315.38
315.415
315.448
315.478
315.507
315.533
315.557
315.579
315.6
315.618
315.634
315.649
315.661
315.672
315.681
315.687
315.692
315.695
315.697
315.696
315.694
315.69
315.684
315.676
315.667
315.657
315.644
315.631
315.616
315.599
315.581
315.563
315.544
315.524
315.505
315.486
315.47
315.458
315.461
315.486
310.287
310.554
310.793
311.011
311.213
311.4
311.575
311.739
311.895
312.042
312.182
312.316
312.445
312.57
312.69
312.807
312.921
313.032
313.139
313.244
313.347
313.446
313.543
313.638
313.728
313.815
313.897
313.976
314.052
314.123
314.192
314.257
314.319
314.378
314.434
314.487
314.536
314.583
314.626
314.667
314.705
314.741
314.774
314.805
314.832
314.857
314.879
314.898
314.914
314.928
314.94
314.95
314.958
314.965
314.969
314.972
314.973
314.972
314.97
314.966
314.96
314.954
314.946
314.937
314.926
314.914
314.902
314.888
314.873
314.857
314.841
314.823
314.805
314.787
314.768
314.748
314.728
314.708
314.687
314.665
314.643
314.622
314.601
314.581
314.561
314.542
314.526
314.512
314.507
314.517
310.283
310.546
310.782
310.997
311.196
311.381
311.554
311.716
311.869
312.015
312.157
312.3
312.444
312.588
312.732
312.874
313.013
313.149
313.282
313.41
313.534
313.653
313.767
313.876
313.979
314.075
314.166
314.252
314.333
314.409
314.482
314.55
314.617
314.681
314.744
314.806
314.866
314.924
314.979
315.032
315.081
315.128
315.171
315.21
315.245
315.277
315.306
315.331
315.354
315.374
315.391
315.405
315.417
315.425
315.431
315.433
315.433
315.43
315.425
315.416
315.405
315.392
315.376
315.359
315.339
315.317
315.293
315.267
315.239
315.21
315.18
315.148
315.116
315.082
315.047
315.012
314.976
314.94
314.903
314.863
314.817
314.769
314.72
314.672
314.626
314.584
314.547
314.516
314.497
314.495
310.279
310.539
310.771
310.984
311.18
311.362
311.532
311.693
311.845
311.992
314.783
314.882
315.08
315.303
315.525
315.737
315.935
316.116
316.279
316.426
316.556
316.67
316.768
316.852
316.923
316.982
317.032
317.073
317.107
317.138
317.165
317.19
317.212
317.232
317.253
317.281
317.304
317.312
317.318
317.336
317.355
317.382
317.409
317.414
317.422
317.44
317.456
317.471
317.484
317.497
317.509
317.521
317.531
317.54
317.547
317.553
317.557
317.56
317.56
317.559
317.557
317.551
317.544
317.536
317.525
317.514
317.501
317.487
317.473
317.457
317.44
317.422
317.403
317.382
317.361
317.338
317.314
317.287
317.258
317.215
316.318
316.151
315.998
315.857
315.726
315.607
315.5
315.409
315.341
315.309
310.275
310.531
310.761
310.97
311.164
311.343
311.512
311.67
311.82
311.965
314.63
314.716
314.909
315.132
315.356
315.57
315.771
315.955
316.123
316.273
316.407
316.524
316.625
316.711
316.783
316.843
316.892
316.932
316.964
316.992
317.016
317.038
317.058
317.078
317.102
317.136
317.168
317.177
317.186
317.213
317.242
317.284
317.329
317.342
317.361
317.396
317.428
317.461
317.495
317.529
317.564
317.599
317.635
317.67
317.705
317.739
317.773
317.806
317.838
317.868
317.898
317.925
317.951
317.975
317.997
318.018
318.036
318.053
318.066
318.076
318.082
318.084
318.083
318.078
318.068
318.054
318.035
318.011
317.983
317.962
317.981
317.83
317.665
317.493
317.324
317.16
317.005
316.863
316.74
316.643
310.271
310.524
310.75
310.957
311.148
311.325
311.491
311.647
311.795
311.939
314.514
314.597
314.786
315.005
315.226
315.437
315.634
315.817
315.982
316.131
316.263
316.378
316.477
316.56
316.63
316.687
316.733
316.77
316.798
316.82
316.839
316.855
316.87
316.885
316.905
316.938
316.969
316.969
316.968
316.99
317.013
317.054
317.098
317.1
317.107
317.136
317.162
317.188
317.215
317.242
317.27
317.298
317.326
317.353
317.381
317.408
317.435
317.463
317.49
317.517
317.545
317.573
317.602
317.632
317.664
317.698
317.732
317.767
317.803
317.839
317.875
317.911
317.947
317.982
318.015
318.047
318.076
318.103
318.125
318.158
318.42
318.409
318.378
318.332
318.277
318.215
318.149
318.083
318.022
317.974
310.267
310.517
310.74
310.944
311.132
311.307
311.471
311.625
311.771
311.912
314.403
314.483
314.67
314.885
315.102
315.31
315.504
315.684
315.847
315.994
316.124
316.237
316.334
316.416
316.485
316.542
316.588
316.624
316.651
316.672
316.688
316.701
316.714
316.727
316.746
316.782
316.816
316.811
316.803
316.823
316.845
316.887
316.936
316.932
316.931
316.959
316.982
317.006
317.03
317.055
317.08
317.103
317.124
317.144
317.162
317.18
317.197
317.213
317.227
317.241
317.255
317.268
317.281
317.295
317.308
317.322
317.335
317.347
317.358
317.368
317.378
317.387
317.396
317.403
317.409
317.413
317.416
317.416
317.413
317.404
316.91
316.845
316.798
316.767
316.752
316.754
316.773
316.799
316.827
316.868
310.264
310.509
310.73
310.931
311.116
311.289
311.45
311.602
311.746
311.886
314.292
314.372
314.555
314.766
314.98
315.184
315.376
315.553
315.714
315.858
315.986
316.098
316.193
316.274
316.341
316.397
316.444
316.481
316.51
316.53
316.544
316.555
316.566
316.577
316.595
316.634
316.673
316.665
316.651
316.671
316.693
316.738
316.794
316.786
316.78
316.809
316.833
316.859
316.886
316.913
316.938
316.961
316.982
317.003
317.024
317.045
317.065
317.084
317.102
317.119
317.136
317.153
317.17
317.188
317.205
317.222
317.237
317.251
317.264
317.276
317.287
317.295
317.301
317.304
317.303
317.3
317.293
317.283
317.267
317.245
316.801
316.697
316.601
316.512
316.428
316.35
316.28
316.221
316.189
316.204
310.26
310.502
310.72
310.918
311.101
311.271
311.43
311.58
311.722
311.86
314.183
314.26
314.44
314.648
314.858
315.06
315.249
315.423
315.581
315.724
315.85
315.96
316.053
316.133
316.199
316.254
316.301
316.34
316.371
316.393
316.407
316.415
316.422
316.431
316.449
316.491
316.535
316.525
316.507
316.527
316.55
316.598
316.66
316.651
316.642
316.672
316.7
316.731
316.762
316.791
316.817
316.84
316.861
316.883
316.906
316.93
316.952
316.974
316.996
317.019
317.043
317.068
317.093
317.118
317.143
317.168
317.193
317.217
317.241
317.265
317.288
317.31
317.33
317.348
317.365
317.382
317.398
317.415
317.432
317.465
317.608
317.609
317.6
317.587
317.573
317.56
317.549
317.543
317.548
317.57
310.256
310.495
310.71
310.905
311.086
311.253
311.411
311.559
311.699
311.835
314.075
314.15
314.327
314.532
314.738
314.937
315.123
315.294
315.45
315.591
315.715
315.823
315.915
315.993
316.057
316.111
316.158
316.199
316.234
316.259
316.274
316.28
316.284
316.29
316.307
316.35
316.399
316.389
316.366
316.387
316.411
316.461
316.531
316.521
316.509
316.543
316.576
316.613
316.649
316.68
316.705
316.726
316.747
316.771
316.796
316.821
316.847
316.873
316.899
316.927
316.956
316.985
317.015
317.044
317.073
317.101
317.13
317.159
317.187
317.215
317.24
317.264
317.287
317.308
317.327
317.347
317.367
317.388
317.412
317.451
317.813
317.808
317.785
317.75
317.708
317.662
317.615
317.569
317.531
317.506
310.253
310.488
310.7
310.892
311.07
311.236
311.391
311.537
311.675
311.809
313.97
314.044
314.217
314.419
314.622
314.817
315
315.169
315.322
315.46
315.582
315.687
315.778
315.852
315.914
315.966
316.011
316.053
316.09
316.119
316.137
316.143
316.143
316.143
316.156
316.198
316.249
316.238
316.211
316.232
316.254
316.305
316.379
316.369
316.355
316.393
316.433
316.475
316.514
316.543
316.563
316.579
316.598
316.62
316.644
316.668
316.693
316.718
316.743
316.769
316.794
316.819
316.842
316.865
316.887
316.909
316.929
316.948
316.965
316.979
316.99
316.998
317.004
317.007
317.009
317.011
317.012
317.015
317.018
317.032
317.185
317.11
317.019
316.921
316.822
316.724
316.63
316.544
316.473
316.423
310.249
310.482
310.69
310.88
311.056
311.219
311.372
311.516
311.652
311.784
313.873
313.947
314.119
314.317
314.516
314.708
314.886
315.051
315.199
315.331
315.447
315.546
315.628
315.696
315.749
315.792
315.829
315.865
315.9
315.929
315.947
315.951
315.945
315.937
315.94
315.975
316.024
316.011
315.979
315.997
316.019
316.068
316.146
316.139
316.128
316.174
316.223
316.273
316.314
316.34
316.355
316.367
316.383
316.403
316.424
316.445
316.465
316.484
316.501
316.516
316.53
316.542
316.552
316.561
316.569
316.575
316.58
316.581
316.58
316.575
316.568
316.558
316.547
316.535
316.523
316.512
316.501
316.491
316.477
316.452
316.264
316.134
316.013
315.9
315.794
315.696
315.608
315.532
315.481
315.47
310.246
310.475
310.68
310.868
311.041
311.202
311.353
311.495
311.629
311.76
313.814
313.897
314.067
314.259
314.447
314.624
314.785
314.927
315.05
315.154
315.239
315.309
315.363
315.404
315.434
315.456
315.475
315.496
315.522
315.549
315.568
315.573
315.566
315.552
315.548
315.577
315.625
315.613
315.583
315.602
315.626
315.676
315.76
315.763
315.763
315.825
315.89
315.953
316
316.03
316.049
316.067
316.09
316.114
316.138
316.158
316.171
316.178
316.18
316.178
316.173
316.167
316.159
316.151
316.142
316.131
316.118
316.102
316.085
316.065
316.044
316.024
316.003
315.984
315.965
315.948
315.932
315.914
315.892
315.861
315.412
315.295
315.191
315.097
315.011
314.932
314.862
314.802
314.759
314.744
310.242
310.468
310.671
310.856
311.027
311.185
311.334
311.474
311.606
311.731
311.851
311.967
312.079
312.187
312.293
312.396
312.497
312.594
312.688
312.78
312.869
312.955
313.038
313.119
313.197
313.272
313.345
313.416
313.486
313.553
313.62
313.684
313.748
313.809
313.869
313.929
313.988
314.046
314.103
314.16
314.217
314.274
314.331
314.388
314.444
314.499
314.551
314.6
314.646
314.687
314.724
314.757
314.786
314.81
314.831
314.848
314.861
314.87
314.876
314.88
314.88
314.878
314.875
314.869
314.861
314.852
314.841
314.829
314.816
314.802
314.787
314.77
314.753
314.735
314.716
314.696
314.676
314.654
314.631
314.605
314.575
314.543
314.51
314.476
314.443
314.411
314.381
314.356
314.34
314.34
310.239
310.462
310.662
310.844
311.012
311.169
311.315
311.453
311.584
311.707
311.825
311.937
312.045
312.149
312.249
312.346
312.439
312.53
312.618
312.703
312.786
312.867
312.945
313.021
313.096
313.168
313.239
313.309
313.377
313.444
313.51
313.575
313.639
313.702
313.764
313.825
313.886
313.946
314.004
314.062
314.118
314.174
314.229
314.283
314.334
314.384
314.431
314.477
314.519
314.557
314.592
314.624
314.652
314.678
314.701
314.721
314.738
314.752
314.764
314.773
314.781
314.786
314.789
314.79
314.79
314.788
314.785
314.78
314.774
314.766
314.758
314.748
314.737
314.725
314.712
314.699
314.684
314.668
314.651
314.632
314.613
314.593
314.574
314.555
314.537
314.521
314.506
314.495
314.494
314.509
310.236
310.455
310.652
310.832
310.998
311.152
311.297
311.433
311.561
311.683
311.799
311.91
312.016
312.118
312.216
312.311
312.402
312.491
312.578
312.662
312.744
312.823
312.901
312.978
313.052
313.125
313.197
313.267
313.336
313.404
313.472
313.539
313.605
313.67
313.733
313.796
313.859
313.921
313.981
314.041
314.1
314.159
314.219
314.278
314.337
314.395
314.453
314.511
314.568
314.623
314.676
314.728
314.777
314.824
314.868
314.909
314.947
314.982
315.015
315.046
315.075
315.101
315.126
315.148
315.169
315.189
315.206
315.223
315.237
315.251
315.263
315.273
315.283
315.291
315.297
315.303
315.307
315.31
315.312
315.312
315.312
315.311
315.309
315.306
315.302
315.299
315.297
315.298
315.312
315.33
310.232
310.449
310.643
310.82
310.984
311.136
311.278
311.412
311.539
311.659
311.773
311.882
311.987
312.087
312.184
312.278
312.368
312.456
312.541
312.624
312.705
312.784
312.861
312.936
313.01
313.082
313.153
313.223
313.291
313.359
313.426
313.493
313.559
313.624
313.688
313.751
313.813
313.875
313.934
313.992
314.049
314.105
314.16
314.214
314.268
314.322
314.376
314.43
314.483
314.535
314.586
314.635
314.682
314.728
314.772
314.814
314.854
314.892
314.927
314.959
314.99
315.018
315.043
315.067
315.088
315.107
315.124
315.139
315.153
315.165
315.176
315.186
315.196
315.205
315.213
315.221
315.229
315.238
315.246
315.254
315.263
315.273
315.283
315.294
315.306
315.318
315.332
315.347
315.365
315.39
310.229
310.442
310.634
310.808
310.97
311.12
311.26
311.392
311.517
311.635
311.748
311.855
311.958
312.057
312.153
312.245
312.334
312.42
312.504
312.586
312.666
312.743
312.819
312.894
312.967
313.038
313.109
313.178
313.246
313.314
313.38
313.447
313.512
313.577
313.641
313.704
313.766
313.826
313.882
313.932
313.975
314.012
314.047
314.08
314.112
314.144
314.176
314.208
314.239
314.27
314.299
314.325
314.35
314.371
314.39
314.405
314.418
314.429
314.438
314.444
314.449
314.453
314.456
314.459
314.461
314.464
314.467
314.47
314.474
314.479
314.485
314.491
314.499
314.509
314.519
314.531
314.544
314.558
314.574
314.592
314.61
314.63
314.652
314.676
314.701
314.728
314.758
314.789
314.824
314.866
310.226
310.436
310.624
310.797
310.955
311.103
311.242
311.372
311.495
311.612
311.723
311.829
311.93
312.028
312.122
312.213
312.301
312.386
312.469
312.549
312.628
312.705
312.78
312.853
312.925
312.996
313.066
313.135
313.203
313.27
313.336
313.402
313.468
313.532
313.596
313.659
313.721
313.777
313.816
313.831
313.823
313.8
313.772
313.743
313.716
313.691
313.669
313.649
313.631
313.616
313.604
313.593
313.584
313.578
313.573
313.571
313.571
313.573
313.578
313.584
313.591
313.601
313.611
313.622
313.635
313.648
313.662
313.677
313.693
313.71
313.727
313.745
313.764
313.783
313.803
313.825
313.847
313.869
313.893
313.918
313.943
313.97
313.998
314.027
314.057
314.089
314.123
314.158
314.196
314.241
310.222
310.43
310.615
310.785
310.942
311.088
311.224
311.352
311.474
311.589
311.698
311.803
311.903
311.999
312.092
312.182
312.268
312.352
312.434
312.514
312.592
312.667
312.742
312.814
312.886
312.956
313.025
313.093
313.161
313.228
313.294
313.36
313.426
313.491
313.556
313.619
313.68
313.713
313.67
313.565
313.426
313.29
313.175
313.081
313.007
312.951
312.911
312.883
312.866
312.856
312.852
312.856
312.864
312.877
312.893
312.911
312.931
312.952
312.974
312.996
313.019
313.042
313.065
313.089
313.112
313.135
313.158
313.182
313.205
313.228
313.252
313.275
313.299
313.323
313.346
313.37
313.395
313.42
313.445
313.472
313.499
313.527
313.555
313.585
313.615
313.646
313.678
313.711
313.748
313.789
310.219
310.424
310.607
310.774
310.929
311.073
311.207
311.334
311.454
311.567
311.675
311.778
311.877
311.972
312.064
312.152
312.238
312.321
312.402
312.481
312.558
312.633
312.706
312.778
312.849
312.919
312.987
313.055
313.123
313.19
313.256
313.323
313.389
313.456
313.521
313.585
313.642
313.604
313.372
313.062
312.793
312.609
312.483
312.408
312.369
312.355
312.358
312.372
312.392
312.416
312.443
312.471
312.5
312.53
312.559
312.588
312.616
312.644
312.672
312.698
312.724
312.75
312.775
312.799
312.822
312.845
312.868
312.89
312.913
312.935
312.957
312.979
313.002
313.025
313.047
313.07
313.094
313.118
313.142
313.167
313.192
313.218
313.245
313.273
313.301
313.331
313.363
313.397
313.433
313.472
310.217
310.418
310.599
310.765
310.917
311.059
311.192
311.317
311.436
311.548
311.655
311.757
311.854
311.948
312.039
312.126
312.211
312.293
312.373
312.451
312.528
312.602
312.675
312.747
312.817
312.886
312.955
313.023
313.09
313.157
313.225
313.292
313.359
313.427
313.494
313.56
313.59
313.422
312.844
312.401
312.128
311.989
311.948
311.95
311.977
312.018
312.065
312.113
312.16
312.205
312.246
312.285
312.32
312.352
312.383
312.412
312.44
312.465
312.489
312.512
312.535
312.557
312.579
312.601
312.623
312.645
312.666
312.688
312.709
312.731
312.752
312.774
312.795
312.817
312.839
312.861
312.883
312.905
312.928
312.952
312.976
313
313.026
313.051
313.078
313.106
313.135
313.166
313.203
313.244
310.214
310.414
310.593
310.757
310.908
311.048
311.18
311.304
311.421
311.532
311.637
311.738
311.835
311.928
312.018
312.105
312.189
312.271
312.35
312.428
312.503
312.578
312.65
312.722
312.792
312.862
312.93
312.998
313.066
313.133
313.201
313.27
313.338
313.407
313.476
313.543
313.574
313.397
312.722
312.204
311.868
311.68
311.679
311.71
311.757
311.814
311.874
311.933
311.99
312.042
312.089
312.132
312.171
312.206
312.238
312.267
312.293
312.319
312.344
312.368
312.391
312.414
312.437
312.46
312.482
312.504
312.526
312.548
312.569
312.591
312.612
312.633
312.654
312.675
312.697
312.719
312.741
312.764
312.787
312.81
312.834
312.859
312.884
312.91
312.937
312.965
312.993
313.024
313.06
313.102
310.213
310.411
310.588
310.751
310.9
311.04
311.171
311.294
311.41
311.52
311.625
311.725
311.821
311.914
312.003
312.089
312.173
312.254
312.334
312.411
312.487
312.561
312.633
312.705
312.776
312.845
312.914
312.983
313.051
313.12
313.189
313.258
313.327
313.397
313.465
313.529
313.564
313.398
312.678
312.111
311.725
311.491
311.522
311.575
311.637
311.704
311.771
311.835
311.895
311.951
312.002
312.049
312.09
312.127
312.16
312.191
312.22
312.248
312.274
312.299
312.324
312.348
312.371
312.394
312.416
312.438
312.46
312.481
312.502
312.522
312.543
312.564
312.585
312.606
312.628
312.65
312.673
312.697
312.721
312.747
312.773
312.801
312.829
312.858
312.889
312.92
312.953
312.988
313.028
313.072
310.212
310.409
310.585
310.747
310.896
311.035
311.165
311.287
311.403
311.513
311.617
311.717
311.813
311.906
311.995
312.081
312.164
312.245
312.325
312.402
312.478
312.552
312.625
312.697
312.768
312.838
312.908
312.978
313.047
313.116
313.186
313.255
313.323
313.388
313.446
313.496
313.534
313.4
312.714
312.15
311.756
311.507
311.548
311.609
311.676
311.743
311.807
311.867
311.923
311.975
312.022
312.066
312.106
312.142
312.176
312.208
312.238
312.267
312.294
312.319
312.344
312.368
312.39
312.412
312.433
312.453
312.473
312.492
312.512
312.531
312.551
312.571
312.592
312.614
312.637
312.661
312.687
312.714
312.743
312.774
312.807
312.842
312.879
312.917
312.958
312.999
313.04
313.082
313.126
313.174
310.211
310.408
310.584
310.745
310.894
311.032
311.162
311.284
311.4
311.509
311.614
311.714
311.81
311.902
311.991
312.077
312.161
312.242
312.322
312.399
312.476
312.55
312.624
312.696
312.768
312.839
312.91
312.98
313.05
313.119
313.187
313.252
313.312
313.358
313.386
313.395
313.419
313.44
313.207
312.907
312.581
312.302
312.262
312.237
312.221
312.214
312.213
312.217
312.227
312.239
312.255
312.274
312.294
312.314
312.336
312.358
312.38
312.402
312.422
312.443
312.463
312.482
312.501
312.519
312.537
312.554
312.571
312.588
312.605
312.623
312.642
312.662
312.684
312.708
312.735
312.765
312.797
312.833
312.872
312.913
312.955
312.998
313.044
313.093
313.145
313.202
313.264
313.331
313.406
313.498
310.211
310.407
310.584
310.745
310.894
311.032
311.162
311.284
311.399
311.509
311.613
311.713
311.809
311.902
311.991
312.077
312.161
312.243
312.323
312.401
312.477
312.553
312.627
312.7
312.773
312.845
312.916
312.986
313.054
313.119
313.179
313.228
313.26
313.262
313.227
313.168
313.17
313.197
313.044
312.904
312.764
312.634
312.702
312.762
312.803
312.824
312.826
312.812
312.785
312.753
312.72
312.691
312.667
312.649
312.638
312.632
312.632
312.636
312.642
312.651
312.662
312.675
312.688
312.703
312.718
312.733
312.749
312.767
312.785
312.805
312.828
312.854
312.882
312.912
312.944
312.978
313.017
313.06
313.108
313.162
313.222
313.291
313.368
313.459
313.574
313.709
313.859
314.017
314.175
314.32
310.211
310.408
310.584
310.745
310.894
311.033
311.163
311.285
311.4
311.51
311.615
311.715
311.81
311.903
311.992
312.079
312.163
312.244
312.324
312.403
312.48
312.556
312.631
312.705
312.778
312.85
312.92
312.986
313.046
313.095
313.129
313.141
313.12
313.054
312.948
312.851
312.875
312.924
312.752
312.6
312.472
312.37
312.508
312.638
312.745
312.834
312.904
312.955
312.985
312.996
312.992
312.978
312.96
312.942
312.926
312.913
312.903
312.898
312.897
312.9
312.907
312.917
312.93
312.944
312.961
312.98
313
313.022
313.046
313.072
313.101
313.135
313.172
313.215
313.263
313.319
313.382
313.456
313.549
313.661
313.79
313.927
314.063
314.187
314.279
314.336
314.362
314.362
314.345
314.32
310.211
310.408
310.585
310.746
310.895
311.034
311.164
311.286
311.402
311.512
311.616
311.716
311.812
311.905
311.994
312.081
312.165
312.247
312.327
312.405
312.483
312.559
312.634
312.708
312.782
312.853
312.917
312.967
312.995
313.001
312.981
312.932
312.852
312.738
312.612
312.57
312.679
312.814
312.605
312.417
312.275
312.192
312.545
312.861
313.106
313.253
313.328
313.356
313.355
313.338
313.313
313.285
313.259
313.236
313.217
313.204
313.196
313.194
313.197
313.206
313.22
313.237
313.259
313.285
313.313
313.345
313.38
313.419
313.462
313.51
313.565
313.626
313.694
313.767
313.845
313.924
314.001
314.069
314.116
314.137
314.134
314.112
314.075
314.029
313.977
313.924
313.872
313.823
313.783
313.752
310.212
310.409
310.585
310.747
310.896
311.035
311.165
311.287
311.403
311.513
311.618
311.718
311.814
311.907
311.996
312.083
312.167
312.249
312.329
312.408
312.486
312.562
312.637
312.712
312.785
312.849
312.875
312.86
312.809
312.735
312.656
312.572
312.486
312.404
312.352
312.439
313.88
313.601
313.4
313.293
313.241
313.218
313.212
313.231
313.245
313.258
313.27
313.282
313.295
313.311
313.327
313.346
313.368
313.393
313.42
313.449
313.479
313.511
313.543
313.574
313.603
313.628
313.647
313.66
313.667
313.668
313.662
313.649
313.631
313.608
313.581
313.551
313.52
313.488
313.456
313.427
313.399
313.374
313.353
313.336
313.326
313.324
310.212
310.409
310.585
310.747
310.896
311.035
311.165
311.288
311.404
311.513
311.618
311.719
311.815
311.907
311.997
312.084
312.168
312.25
312.331
312.41
312.488
312.564
312.64
312.715
312.785
312.805
312.722
312.57
312.413
312.297
312.208
312.156
312.136
312.148
312.22
312.452
313.517
313.183
312.985
312.867
312.79
312.741
312.713
312.697
312.689
312.686
312.687
312.701
312.725
312.749
312.77
312.793
312.817
312.841
312.867
312.893
312.919
312.945
312.97
312.993
313.015
313.034
313.05
313.064
313.074
313.081
313.084
313.085
313.084
313.08
313.075
313.068
313.061
313.055
313.049
313.043
313.039
313.035
313.033
313.035
313.045
313.06
310.212
310.409
310.585
310.747
310.896
311.035
311.165
311.287
311.403
311.513
311.618
311.718
311.814
311.907
311.996
312.083
312.168
312.25
312.331
312.41
312.488
312.565
312.64
312.714
312.764
312.671
312.314
312.016
311.833
311.757
311.761
311.802
311.873
311.974
312.146
312.518
313.348
312.966
312.756
312.621
312.522
312.448
312.397
312.365
312.346
312.337
312.338
312.356
312.381
312.405
312.426
312.45
312.473
312.497
312.521
312.545
312.569
312.594
312.617
312.64
312.662
312.683
312.701
312.718
312.734
312.746
312.756
312.764
312.77
312.775
312.779
312.783
312.786
312.79
312.794
312.799
312.806
312.814
312.824
312.837
312.856
312.881
310.211
310.408
310.585
310.746
310.896
311.034
311.164
311.287
311.402
311.512
311.617
311.717
311.813
311.906
311.995
312.082
312.167
312.249
312.33
312.409
312.487
312.564
312.64
312.713
312.759
312.652
312.186
311.801
311.545
311.411
311.466
311.549
311.66
311.807
312.041
312.519
313.256
312.861
312.644
312.49
312.381
312.299
312.239
312.199
312.175
312.163
312.166
312.179
312.196
312.214
312.233
312.254
312.275
312.297
312.32
312.342
312.365
312.387
312.409
312.43
312.451
312.47
312.488
312.505
312.522
312.537
312.551
312.565
312.577
312.59
312.602
312.615
312.627
312.64
312.653
312.667
312.681
312.697
312.714
312.733
312.756
312.785
310.211
310.408
310.585
310.746
310.895
311.034
311.164
311.286
311.402
311.512
311.616
311.716
311.812
311.905
311.994
312.081
312.165
312.248
312.328
312.408
312.485
312.562
312.638
312.712
312.757
312.646
312.102
311.649
311.33
311.135
311.225
311.333
311.463
311.628
311.88
312.393
313.264
312.836
312.61
312.487
312.383
312.293
312.221
312.174
312.147
312.134
312.134
312.141
312.154
312.169
312.186
312.204
312.223
312.243
312.262
312.28
312.299
312.317
312.335
312.352
312.37
312.387
312.404
312.42
312.437
312.453
312.469
312.485
312.501
312.517
312.533
312.549
312.566
312.583
312.6
312.618
312.636
312.656
312.676
312.698
312.724
312.755
310.211
310.408
310.585
310.746
310.895
311.034
311.163
311.286
311.401
311.511
311.616
311.716
311.812
311.904
311.994
312.08
312.165
312.247
312.327
312.406
312.484
312.561
312.636
312.71
312.758
312.656
312.107
311.643
311.31
311.095
311.195
311.31
311.437
311.586
311.807
312.251
313.361
312.942
312.689
312.609
312.492
312.383
312.297
312.242