/*--------------------------------*- C++ -*----------------------------------*\
| =========                 |                                                 |
| \\      /  F ield         | OpenFOAM: The Open Source CFD Toolbox           |
|  \\    /   O peration     | Version:  v2012                                 |
|   \\  /    A nd           | Website:  www.openfoam.com                      |
|    \\/     M anipulation  |                                                 |
\*---------------------------------------------------------------------------*/
FoamFile
{
    version     2.0;
    format      ascii;
    class       volScalarField;
    location    "300/air";
    object      alphat;
}
// * * * * * * * * * * * * * * * * * * * * * * * * * * * * * * * * * * * * * //

dimensions      [1 -1 -1 0 0 0 0];


internalField   nonuniform List<scalar> 
287104
(
0.00647912
0.00600224
0.00563543
0.00534294
0.00510412
0.00490563
0.0047383
0.00459554
0.00447251
0.00436554
0.00427182
0.00418914
0.00411576
0.00405026
0.00399152
0.00393858
0.00389068
0.00384717
0.00380749
0.00377118
0.00373786
0.00370718
0.00367886
0.00365263
0.00362829
0.00360563
0.0035845
0.00356474
0.00354622
0.00352882
0.00351244
0.00349699
0.00348237
0.00346851
0.00345534
0.0034428
0.00343082
0.00341935
0.00340835
0.00339775
0.00338753
0.00337764
0.00336805
0.00335872
0.00334963
0.00334075
0.00333206
0.00332353
0.00331515
0.00330691
0.00329878
0.00329076
0.00328284
0.003275
0.00326725
0.00325958
0.00325198
0.00324445
0.00323699
0.0032296
0.00322226
0.00321498
0.00320776
0.0032006
0.00319348
0.0031864
0.00317937
0.00317237
0.0031654
0.00315845
0.0031515
0.00314455
0.00313758
0.00313057
0.00312351
0.00311638
0.00310915
0.00310179
0.00309428
0.00308658
0.00307864
0.00307041
0.00306181
0.00305276
0.00304314
0.00303271
0.00302121
0.00300767
0.00299247
0.00296279
0.00647907
0.00600213
0.00563523
0.00534269
0.00510381
0.00490527
0.0047379
0.00459511
0.00447205
0.00436506
0.00427133
0.00418865
0.00411527
0.00404979
0.00399106
0.00393816
0.00389028
0.0038468
0.00380716
0.00377089
0.00373761
0.00370698
0.0036787
0.00365252
0.00362822
0.00360562
0.00358455
0.00356485
0.0035464
0.00352907
0.00351277
0.0034974
0.00348288
0.00346912
0.00345606
0.00344363
0.00343177
0.00342043
0.00340956
0.0033991
0.00338902
0.00337927
0.00336983
0.00336064
0.00335169
0.00334295
0.0033344
0.003326
0.00331774
0.00330961
0.0033016
0.00329368
0.00328584
0.00327809
0.00327042
0.00326281
0.00325526
0.00324778
0.00324035
0.00323298
0.00322566
0.00321839
0.00321116
0.00320398
0.00319684
0.00318973
0.00318266
0.00317561
0.00316858
0.00316155
0.00315452
0.00314748
0.00314041
0.0031333
0.00312612
0.00311885
0.00311148
0.00310397
0.0030963
0.00308842
0.00308028
0.00307185
0.00306304
0.00305379
0.00304395
0.00303331
0.00302161
0.0030079
0.00299254
0.00296293
0.00647911
0.00600215
0.00563527
0.00534271
0.00510382
0.00490526
0.00473787
0.00459506
0.00447199
0.00436499
0.00427125
0.00418856
0.00411519
0.00404972
0.00399101
0.00393812
0.00389027
0.00384682
0.0038072
0.00377096
0.00373771
0.00370711
0.00367886
0.00365272
0.00362846
0.00360591
0.00358488
0.00356523
0.00354683
0.00352957
0.00351334
0.00349805
0.00348361
0.00346994
0.00345698
0.00344465
0.00343291
0.00342168
0.00341093
0.0034006
0.00339065
0.00338104
0.00337173
0.0033627
0.00335389
0.0033453
0.00333688
0.00332863
0.00332052
0.00331254
0.00330467
0.0032969
0.00328921
0.00328161
0.00327408
0.00326662
0.00325923
0.0032519
0.00324463
0.00323741
0.00323025
0.00322314
0.00321608
0.00320906
0.00320209
0.00319516
0.00318827
0.0031814
0.00317456
0.00316772
0.00316089
0.00315405
0.00314718
0.00314027
0.00313331
0.00312627
0.00311912
0.00311184
0.0031044
0.00309675
0.00308886
0.00308068
0.00307214
0.00306316
0.00305361
0.00304329
0.00303197
0.00301872
0.00300389
0.00297543
0.00647913
0.00600218
0.00563527
0.00534267
0.00510374
0.00490514
0.0047377
0.00459484
0.00447172
0.00436468
0.00427091
0.00418821
0.00411483
0.00404936
0.00399066
0.00393778
0.00388994
0.00384649
0.00380689
0.00377067
0.00373743
0.00370684
0.0036786
0.00365248
0.00362824
0.0036057
0.0035847
0.00356509
0.00354673
0.00352951
0.00351334
0.0034981
0.00348373
0.00347014
0.00345727
0.00344504
0.0034334
0.00342229
0.00341165
0.00340145
0.00339163
0.00338215
0.00337297
0.00336407
0.00335539
0.00334693
0.00333864
0.00333051
0.00332252
0.00331464
0.00330687
0.0032992
0.0032916
0.00328408
0.00327663
0.00326924
0.00326191
0.00325464
0.00324742
0.00324025
0.00323313
0.00322605
0.00321902
0.00321204
0.00320509
0.00319817
0.00319129
0.00318443
0.00317758
0.00317074
0.0031639
0.00315705
0.00315016
0.00314323
0.00313623
0.00312914
0.00312194
0.00311459
0.00310707
0.00309934
0.00309135
0.00308305
0.00307437
0.00306524
0.00305555
0.00304509
0.00303364
0.00302029
0.0030054
0.00297706
0.00647917
0.00600221
0.00563529
0.00534268
0.00510371
0.00490507
0.00473759
0.00459469
0.00447152
0.00436443
0.00427063
0.00418791
0.00411452
0.00404905
0.00399036
0.0039375
0.00388968
0.00384625
0.00380666
0.00377046
0.00373724
0.00370666
0.00367845
0.00365234
0.00362812
0.00360561
0.00358464
0.00356506
0.00354675
0.00352959
0.00351347
0.00349831
0.00348402
0.00347052
0.00345775
0.00344563
0.00343411
0.00342313
0.00341264
0.00340258
0.00339291
0.00338358
0.00337456
0.00336581
0.00335729
0.00334897
0.00334084
0.00333285
0.003325
0.00331726
0.00330963
0.00330207
0.0032946
0.00328719
0.00327985
0.00327256
0.00326533
0.00325815
0.00325102
0.00324393
0.00323689
0.00322989
0.00322293
0.003216
0.00320911
0.00320224
0.0031954
0.00318857
0.00318174
0.00317491
0.00316807
0.0031612
0.00315428
0.0031473
0.00314024
0.00313307
0.00312577
0.0031183
0.00311062
0.0031027
0.00309449
0.00308593
0.00307696
0.00306751
0.00305747
0.00304666
0.00303485
0.00302117
0.00300598
0.00297749
0.0064792
0.00600225
0.0056353
0.00534265
0.00510364
0.00490495
0.0047374
0.00459443
0.0044712
0.00436405
0.00427021
0.00418748
0.0041141
0.00404866
0.00398999
0.00393715
0.00388936
0.00384595
0.00380637
0.00377017
0.00373695
0.00370638
0.00367817
0.00365207
0.00362787
0.00360537
0.00358443
0.00356488
0.00354662
0.00352951
0.00351347
0.0034984
0.00348422
0.00347084
0.00345821
0.00344624
0.00343489
0.0034241
0.0034138
0.00340395
0.00339449
0.0033854
0.00337661
0.00336809
0.00335982
0.00335174
0.00334385
0.0033361
0.00332848
0.00332098
0.00331357
0.00330625
0.003299
0.00329181
0.00328468
0.00327761
0.00327059
0.00326362
0.00325669
0.00324981
0.00324297
0.00323616
0.00322939
0.00322266
0.00321595
0.00320926
0.00320259
0.00319593
0.00318926
0.00318258
0.00317588
0.00316915
0.00316236
0.0031555
0.00314855
0.00314149
0.00313428
0.0031269
0.0031193
0.00311144
0.00310328
0.00309476
0.00308584
0.00307647
0.00306655
0.00305594
0.00304445
0.00303127
0.00301673
0.00298951
0.00647924
0.00600228
0.00563532
0.00534263
0.00510357
0.00490481
0.00473717
0.0045941
0.00447075
0.00436349
0.00426956
0.00418677
0.00411338
0.00404794
0.00398929
0.00393648
0.00388871
0.00384532
0.00380577
0.00376958
0.00373638
0.00370581
0.00367761
0.00365153
0.00362735
0.00360489
0.00358399
0.00356451
0.00354632
0.00352932
0.0035134
0.00349848
0.00348447
0.00347129
0.00345889
0.00344718
0.00343611
0.00342562
0.00341565
0.00340615
0.00339706
0.00338834
0.00337995
0.00337184
0.00336396
0.00335628
0.00334877
0.00334142
0.0033342
0.0033271
0.0033201
0.00331319
0.00330635
0.00329959
0.00329288
0.00328624
0.00327965
0.00327311
0.00326662
0.00326018
0.00325379
0.00324744
0.00324112
0.00323485
0.00322861
0.00322241
0.00321623
0.00321009
0.00320396
0.00319785
0.00319175
0.00318565
0.00317953
0.00317338
0.00316718
0.00316093
0.00315458
0.00314812
0.00314151
0.00313469
0.00312762
0.00312028
0.0031126
0.00310456
0.00309612
0.00308716
0.00307754
0.00306657
0.00305454
0.00303172
0.00647927
0.00600231
0.00563532
0.00534259
0.00510347
0.00490463
0.00473689
0.0045937
0.00447022
0.00436284
0.00426886
0.00418611
0.00411279
0.00404742
0.00398883
0.00393604
0.00388827
0.00384486
0.00380525
0.00376899
0.0037357
0.00370505
0.00367675
0.00365059
0.00362633
0.00360383
0.00358291
0.00356344
0.00354531
0.0035284
0.00351263
0.00349789
0.00348411
0.00347119
0.00345907
0.00344768
0.00343696
0.00342685
0.00341729
0.00340821
0.00339956
0.00339129
0.00338333
0.00337565
0.00336821
0.00336096
0.00335388
0.00334695
0.00334013
0.00333343
0.00332682
0.0033203
0.00331386
0.0033075
0.00330122
0.003295
0.00328886
0.0032828
0.00327679
0.00327086
0.00326499
0.00325919
0.00325344
0.00324776
0.00324212
0.00323654
0.00323099
0.00322548
0.00321999
0.00321452
0.00320904
0.00320356
0.00319805
0.0031925
0.00318688
0.00318119
0.00317539
0.00316945
0.00316333
0.00315697
0.00315029
0.00314328
0.00313593
0.00312825
0.00312021
0.00311176
0.0031029
0.00309335
0.00308434
0.00306911
0.0064793
0.00600234
0.00563532
0.00534254
0.00510333
0.00490437
0.00473646
0.00459302
0.00446918
0.00436135
0.00426759
0.0041858
0.00411376
0.00404963
0.00399195
0.00393965
0.0038919
0.00384809
0.00380775
0.00377052
0.00373611
0.00370427
0.0036748
0.00364751
0.00362227
0.00359891
0.0035773
0.00355731
0.00353881
0.00352169
0.00350583
0.00349112
0.00347747
0.0034648
0.00345301
0.00344203
0.00343178
0.00342217
0.00341311
0.00340451
0.0033963
0.00338841
0.0033808
0.00337341
0.00336621
0.00335917
0.00335229
0.00334555
0.00333894
0.00333245
0.00332608
0.0033198
0.00331361
0.00330752
0.0033015
0.00329557
0.00328971
0.00328393
0.00327823
0.00327259
0.00326702
0.00326151
0.00325606
0.00325066
0.00324531
0.00324001
0.00323473
0.00322948
0.00322425
0.00321902
0.00321378
0.00320853
0.00320324
0.0031979
0.00319249
0.00318701
0.00318141
0.00317568
0.00316977
0.00316355
0.0031569
0.00314987
0.00314255
0.00313496
0.0031271
0.00311891
0.00311043
0.00310151
0.00309333
0.00308165
0.00647933
0.00600236
0.00563532
0.00534248
0.0051032
0.00490412
0.00473604
0.00459238
0.0044682
0.00436015
0.00432626
0.00430855
0.00428254
0.00424375
0.00419432
0.00413799
0.00407822
0.00401767
0.00395827
0.0039013
0.00384759
0.00379759
0.00375154
0.00370948
0.00367133
0.00363693
0.00360601
0.00357822
0.00355318
0.00353046
0.00350961
0.00349014
0.00347184
0.00345648
0.00344336
0.00343194
0.00342177
0.00341254
0.003404
0.00339598
0.00338833
0.00338095
0.00337375
0.0033667
0.00335996
0.00335362
0.00334767
0.00334206
0.00333675
0.00333168
0.00332682
0.00332211
0.00331755
0.0033131
0.00330875
0.00330449
0.00330031
0.0032962
0.00329215
0.00328815
0.00328419
0.00328027
0.00327638
0.00327252
0.00326867
0.00326485
0.00326103
0.00325721
0.00325339
0.00324955
0.00324568
0.00324177
0.00323781
0.00323379
0.00322969
0.0032255
0.00322119
0.00321675
0.00321219
0.00320733
0.00319574
0.00318253
0.00316942
0.00315689
0.00314498
0.00313356
0.0031225
0.00311147
0.00310135
0.00308803
0.00647936
0.00600239
0.00563531
0.00534241
0.005103
0.00490374
0.00473531
0.004591
0.00446503
0.00436344
0.00768864
0.0084097
0.00839684
0.00813881
0.00781473
0.00749232
0.00719632
0.00693439
0.00670747
0.00651395
0.00635137
0.00621698
0.00610798
0.00602154
0.00595481
0.00590491
0.00586898
0.00584423
0.00582804
0.00581802
0.00581207
0.00580851
0.00580593
0.00580432
0.00580387
0.00580423
0.00580496
0.00580573
0.00580632
0.00580667
0.00580679
0.00580683
0.00580659
0.00580617
0.00580548
0.00580467
0.00580407
0.005804
0.00580478
0.00580662
0.00580966
0.005814
0.0058197
0.00582675
0.00583512
0.00584486
0.00585596
0.00586842
0.0058822
0.00589725
0.0059135
0.00593088
0.00594932
0.00596872
0.00598899
0.00601002
0.00603173
0.006054
0.00607673
0.00609984
0.00612322
0.00614679
0.0061705
0.00619433
0.00621829
0.0062425
0.00626745
0.00629454
0.00633044
0.00636953
0.00510697
0.00436242
0.00390196
0.00360793
0.0034161
0.00328882
0.00320304
0.0031437
0.00310229
0.0030669
0.00647939
0.00600242
0.00563531
0.00534235
0.00510287
0.00490349
0.00473491
0.00459038
0.0044641
0.00436219
0.0076892
0.00841204
0.00839748
0.00813522
0.00780541
0.00747637
0.00717326
0.0069041
0.00667007
0.0064698
0.00630099
0.00616108
0.00604745
0.00595738
0.00588811
0.0058368
0.00580057
0.00577652
0.0057619
0.0057541
0.00575083
0.00575012
0.00575035
0.00575025
0.00574893
0.00574576
0.00574031
0.00573233
0.00572168
0.0057083
0.00569221
0.00567349
0.00565267
0.00562998
0.0056056
0.00557984
0.005553
0.00552535
0.00549711
0.00546846
0.00543962
0.00541081
0.00538239
0.00535449
0.00532726
0.00530087
0.00527553
0.00525145
0.00522881
0.00520785
0.00518878
0.00517181
0.00515716
0.00514504
0.00513563
0.00512911
0.00512564
0.00512535
0.00512837
0.00513475
0.00514453
0.00515773
0.00517431
0.00519427
0.00521758
0.0052443
0.00527476
0.00530963
0.00535401
0.00539852
0.00450007
0.00395035
0.00359886
0.00336735
0.00321207
0.00310673
0.00303457
0.00298341
0.00294582
0.00290548
0.00647943
0.00600244
0.00563531
0.0053423
0.00510274
0.00490324
0.00473449
0.00458972
0.00446307
0.00436069
0.00768252
0.00840599
0.00839313
0.00813246
0.0078038
0.00747539
0.00717246
0.00690312
0.00666874
0.00646809
0.00629905
0.00615922
0.00604611
0.00595715
0.00588966
0.00584083
0.00580777
0.00578755
0.0057773
0.00577435
0.00577627
0.005781
0.00578685
0.00579249
0.00579694
0.00579955
0.00579987
0.00579769
0.00579286
0.00578537
0.00577525
0.00576261
0.00574759
0.00573041
0.00571129
0.00569045
0.00566815
0.00564464
0.00562017
0.00559494
0.00556916
0.00554297
0.00551625
0.00548912
0.00546159
0.00543361
0.00540511
0.00537601
0.0053462
0.00531562
0.00528418
0.00525181
0.00521843
0.00518399
0.00514847
0.00511183
0.00507412
0.0050354
0.00499577
0.0049554
0.00491452
0.00487341
0.00483246
0.00479216
0.00475315
0.00471621
0.00468248
0.00465293
0.00463199
0.00460909
0.00386749
0.00342425
0.00314648
0.00296562
0.00284456
0.00276216
0.00270646
0.00266674
0.00263748
0.00259713
0.00647946
0.00600248
0.00563532
0.00534228
0.00510266
0.00490309
0.00473424
0.00458936
0.00446259
0.00436009
0.00768068
0.00840447
0.00839206
0.00813161
0.00780294
0.00747435
0.00717109
0.00690138
0.00666662
0.00646563
0.00629633
0.00615636
0.00604326
0.00595448
0.00588737
0.00583913
0.00580687
0.00578767
0.00577864
0.00577708
0.00578055
0.00578697
0.00579462
0.00580216
0.00580863
0.00581333
0.00581582
0.00581581
0.00581314
0.00580774
0.00579961
0.00578883
0.00577553
0.00575996
0.00574238
0.00572312
0.00570257
0.00568108
0.00565902
0.00563669
0.00561438
0.00559231
0.00557066
0.00554982
0.0055302
0.00551168
0.00549405
0.00547708
0.00546057
0.00544433
0.00542821
0.00541206
0.00539577
0.00537926
0.00536243
0.00534516
0.00532731
0.00530874
0.00528928
0.00526879
0.00524711
0.00522416
0.00519986
0.00517421
0.0051474
0.00512037
0.0050944
0.00506921
0.00504726
0.00502564
0.00425093
0.00380152
0.00352583
0.00334809
0.00322394
0.00312863
0.00304733
0.0029711
0.0028965
0.00280116
0.00647949
0.00600251
0.00563534
0.00534226
0.00510261
0.00490298
0.00473406
0.00458908
0.0044622
0.00435957
0.00767825
0.00840174
0.00838941
0.00812914
0.00780061
0.00747209
0.00716883
0.00689904
0.00666414
0.006463
0.00629356
0.00615351
0.00604039
0.0059517
0.00588479
0.00583688
0.00580508
0.00578644
0.00577809
0.00577729
0.00578161
0.00578896
0.00579761
0.00580624
0.00581385
0.00581975
0.00582343
0.00582459
0.00582299
0.00581847
0.00581096
0.00580047
0.0057871
0.00577109
0.00575274
0.00573244
0.00571064
0.00568775
0.0056642
0.00564036
0.00561655
0.00559301
0.00556992
0.00554741
0.00552558
0.0055045
0.00548419
0.00546463
0.005446
0.00542863
0.00541237
0.00539697
0.00538225
0.00536806
0.00535432
0.00534099
0.00532811
0.00531576
0.00530398
0.00529281
0.00528223
0.00527228
0.00526304
0.00525459
0.00524705
0.00524063
0.00523585
0.00523357
0.00523846
0.0052532
0.00444469
0.00399225
0.0037231
0.00355272
0.00343733
0.00335299
0.00328566
0.00322537
0.0031635
0.00307789
0.00647952
0.00600254
0.00563536
0.00534227
0.00510259
0.00490292
0.00473396
0.00458894
0.00446201
0.00435932
0.00767676
0.00839981
0.00838719
0.00812667
0.0077979
0.00746915
0.00716566
0.00689567
0.00666062
0.00645936
0.00628986
0.0061498
0.00603676
0.00594822
0.00588154
0.00583392
0.00580247
0.00578423
0.00577631
0.00577597
0.00578078
0.00578864
0.00579785
0.00580709
0.00581538
0.00582202
0.00582649
0.00582841
0.00582746
0.00582337
0.00581594
0.00580507
0.00579081
0.00577339
0.00575316
0.00573059
0.00570624
0.00568062
0.00565426
0.0056276
0.005601
0.00557475
0.00554906
0.00552403
0.00549972
0.00547618
0.00545341
0.00543139
0.00541006
0.00538939
0.00536931
0.00534976
0.00533069
0.00531203
0.00529373
0.00527577
0.0052581
0.00524074
0.00522366
0.00520689
0.00519043
0.00517434
0.00515862
0.00514448
0.00513198
0.00512095
0.00511169
0.005105
0.0051057
0.00511772
0.00434767
0.00391672
0.00366003
0.00349737
0.00338731
0.00330729
0.00324421
0.00318851
0.00313115
0.00305851
0.00647955
0.00600258
0.0056354
0.00534229
0.0051026
0.00490293
0.00473396
0.00458895
0.00446202
0.00435934
0.00767631
0.00839883
0.00838558
0.00812439
0.00779497
0.00746562
0.00716162
0.00689123
0.0066559
0.00645449
0.00628497
0.00614502
0.00603221
0.00594399
0.0058777
0.0058305
0.00579946
0.00578159
0.00577397
0.00577386
0.00577884
0.00578685
0.00579623
0.00580573
0.00581442
0.00582162
0.00582681
0.00582954
0.00582938
0.00582585
0.00581855
0.00580718
0.00579168
0.00577228
0.00574942
0.0057237
0.00569582
0.00566646
0.00563627
0.00560575
0.00557533
0.00554531
0.00551589
0.00548721
0.00545929
0.00543209
0.00540556
0.0053796
0.00535413
0.00532906
0.0053043
0.00527977
0.00525541
0.00523115
0.00520695
0.00518277
0.00515858
0.00513437
0.00511013
0.00508586
0.00506156
0.00503725
0.00501294
0.00498869
0.0049646
0.00494078
0.00491751
0.00489494
0.00487602
0.00485229
0.00410169
0.00367719
0.00342589
0.00326891
0.00316386
0.0030873
0.00302607
0.00297126
0.00291904
0.00284819
0.00647958
0.00600262
0.00563543
0.00534233
0.00510263
0.00490297
0.00473401
0.00458902
0.00446211
0.00435942
0.007675
0.00839625
0.00838197
0.00812008
0.00779025
0.00746072
0.00715673
0.00688649
0.00665143
0.00645042
0.00628145
0.00614223
0.00603034
0.00594324
0.00587821
0.00583237
0.0058027
0.00578613
0.00577972
0.00578073
0.00578681
0.005796
0.00580678
0.00581803
0.00582892
0.0058388
0.00584711
0.00585323
0.0058564
0.00585574
0.00585037
0.00583966
0.0058234
0.00580189
0.00577584
0.00574621
0.0057141
0.00568053
0.00564642
0.00561244
0.00557912
0.00554676
0.00551548
0.00548531
0.00545614
0.00542783
0.00540019
0.00537301
0.00534608
0.00531924
0.00529231
0.00526515
0.00523765
0.0052097
0.00518122
0.00515217
0.00512251
0.00509224
0.00506136
0.00502989
0.00499787
0.00496536
0.00493243
0.0048992
0.00486583
0.00483257
0.00479991
0.00476819
0.0047408
0.00470837
0.00396433
0.00353093
0.00326533
0.00309326
0.00297467
0.0028872
0.00281812
0.00275835
0.00270457
0.00263385
0.00647961
0.00600266
0.00563548
0.00534239
0.00510272
0.0049031
0.00473424
0.00458939
0.00446276
0.00436043
0.00767887
0.00839873
0.00838224
0.00811829
0.00778689
0.00745657
0.00715277
0.00688391
0.00665164
0.00645503
0.00629217
0.00616073
0.00605811
0.00598138
0.00592739
0.00589275
0.00587402
0.00586787
0.00587125
0.00588149
0.00589644
0.00591438
0.00593405
0.00595453
0.00597507
0.00599498
0.00601343
0.00602931
0.00604116
0.00604714
0.00604545
0.00603478
0.00601474
0.00598595
0.00594985
0.00590841
0.00586373
0.00581786
0.00577249
0.00572898
0.00568823
0.00565073
0.00561664
0.00558583
0.00555796
0.00553261
0.0055093
0.00548754
0.0054669
0.00544696
0.00542739
0.0054079
0.00538829
0.00536843
0.00534827
0.00532781
0.00530712
0.00528627
0.0052654
0.00524466
0.00522426
0.00520446
0.00518554
0.00516784
0.00515176
0.0051378
0.00512673
0.0051194
0.00512016
0.00512139
0.00429373
0.00380224
0.00349564
0.00329587
0.00316051
0.00306526
0.00299554
0.00294108
0.00289634
0.00284347
0.00647964
0.0060027
0.00563553
0.00534245
0.0051028
0.00490322
0.00473444
0.0045897
0.00446325
0.00436106
0.00767396
0.0083909
0.00837581
0.00811565
0.00779211
0.00747543
0.00719215
0.00695103
0.00675323
0.00659658
0.0064773
0.00639086
0.00633236
0.00629693
0.00627993
0.00627718
0.00628507
0.00630062
0.00632151
0.00634597
0.00637276
0.00640105
0.00643029
0.00646013
0.00649025
0.00652022
0.00654929
0.00657622
0.00659901
0.00661483
0.00662045
0.00661308
0.00659106
0.00655428
0.00650409
0.00644287
0.00637366
0.00629978
0.00622448
0.0061508
0.00608135
0.00601824
0.00596292
0.00591628
0.00587856
0.00584947
0.00582823
0.00581379
0.00580492
0.00580034
0.00579887
0.00579946
0.00580124
0.00580359
0.00580607
0.00580844
0.00581061
0.00581259
0.0058145
0.00581651
0.00581889
0.00582201
0.00582605
0.00583128
0.00583802
0.00584665
0.00585784
0.00587274
0.00589653
0.005927
0.00483367
0.00419445
0.00380083
0.00354868
0.00338192
0.00326831
0.00318842
0.00312939
0.00308344
0.00303659
0.00647967
0.00600274
0.00563558
0.00534253
0.00510294
0.00490348
0.00473496
0.00459079
0.00446606
0.00435731
0.00428093
0.00421453
0.00414656
0.00408281
0.00402318
0.00396746
0.00391557
0.00386745
0.00382299
0.00378208
0.00374455
0.00371022
0.00367889
0.00365039
0.0036245
0.00360104
0.00357982
0.00356067
0.00354343
0.00352797
0.00351416
0.00350193
0.00349121
0.00348197
0.0034742
0.00346795
0.00346322
0.00346002
0.00345823
0.00345759
0.00345765
0.00345784
0.0034576
0.00345644
0.00345406
0.00345031
0.00344509
0.00343845
0.00343061
0.00342182
0.00341236
0.0034025
0.00339251
0.0033826
0.00337299
0.00336381
0.00335517
0.00334713
0.0033397
0.00333288
0.00332662
0.00332084
0.00331547
0.00331041
0.00330556
0.00330084
0.00329616
0.00329145
0.00328662
0.00328164
0.00327646
0.00327104
0.00326535
0.00325938
0.00325312
0.00324657
0.00323973
0.00323262
0.00322524
0.00321749
0.00320447
0.00319006
0.00317562
0.00316157
0.00314793
0.0031346
0.00312149
0.00310816
0.00309539
0.00307793
0.0064797
0.00600278
0.00563563
0.00534258
0.00510301
0.00490359
0.00473514
0.00459107
0.00446652
0.0043579
0.00426272
0.00417887
0.00410447
0.004038
0.00397824
0.00392423
0.00387519
0.00383048
0.00378957
0.00375204
0.00371752
0.00368572
0.00365639
0.00362931
0.00360432
0.00358126
0.00356
0.00354044
0.0035225
0.0035061
0.0034912
0.00347777
0.00346581
0.00345536
0.0034465
0.00343935
0.00343403
0.00343064
0.00342918
0.00342935
0.00343052
0.00343192
0.0034328
0.00343256
0.00343084
0.00342755
0.00342271
0.00341648
0.00340907
0.00340073
0.00339171
0.00338224
0.00337253
0.00336275
0.00335304
0.00334353
0.00333431
0.00332543
0.00331693
0.00330883
0.00330112
0.00329377
0.00328675
0.00328001
0.00327351
0.0032672
0.00326103
0.00325494
0.00324889
0.00324284
0.00323674
0.00323057
0.0032243
0.0032179
0.00321137
0.00320468
0.00319783
0.0031908
0.00318355
0.00317599
0.003168
0.00315964
0.003151
0.00314212
0.00313301
0.00312363
0.00311401
0.00310393
0.00309441
0.0030809
0.00647973
0.00600282
0.00563568
0.00534264
0.00510309
0.00490371
0.00473534
0.00459141
0.0044671
0.0043588
0.0042638
0.00417992
0.00410536
0.00403867
0.00397866
0.0039244
0.00387509
0.0038301
0.00378889
0.00375103
0.00371615
0.00368396
0.00365419
0.00362664
0.00360114
0.00357753
0.0035557
0.00353555
0.00351699
0.00349998
0.00348446
0.00347043
0.00345792
0.00344701
0.00343782
0.00343059
0.00342559
0.00342311
0.00342333
0.00342593
0.00343004
0.00343447
0.00343807
0.00343997
0.00343974
0.00343728
0.00343266
0.00342615
0.00341803
0.00340869
0.00339848
0.00338771
0.00337663
0.00336544
0.00335431
0.00334346
0.00333301
0.00332307
0.00331368
0.00330488
0.00329664
0.00328896
0.00328178
0.00327505
0.00326871
0.00326269
0.00325694
0.0032514
0.00324599
0.00324066
0.00323537
0.00323007
0.00322472
0.00321928
0.00321372
0.00320801
0.00320212
0.003196
0.00318963
0.00318295
0.0031759
0.00316847
0.00316067
0.00315252
0.00314399
0.00313505
0.00312564
0.00311541
0.00310496
0.00308776
0.00647976
0.00600286
0.00563571
0.00534267
0.00510311
0.00490373
0.00473535
0.00459142
0.0044671
0.00435875
0.00426361
0.0041795
0.00410466
0.00403767
0.00397737
0.0039228
0.00387319
0.00382789
0.00378637
0.00374819
0.00371298
0.00368043
0.0036503
0.00362238
0.0035965
0.00357251
0.00355029
0.00352974
0.00351079
0.00349337
0.00347744
0.00346301
0.0034501
0.00343882
0.00342937
0.00342211
0.00341752
0.00341626
0.00341899
0.00342556
0.00343473
0.0034446
0.00345322
0.00345923
0.00346202
0.00346154
0.00345801
0.00345181
0.00344345
0.00343363
0.00342279
0.00341133
0.00339958
0.00338785
0.00337637
0.00336533
0.00335487
0.00334508
0.00333603
0.00332771
0.00332012
0.0033132
0.00330688
0.00330107
0.00329568
0.00329059
0.0032857
0.00328092
0.00327613
0.00327127
0.00326624
0.003261
0.00325549
0.00324967
0.00324351
0.00323699
0.00323008
0.00322277
0.00321504
0.00320686
0.0031982
0.00318903
0.00317936
0.00316917
0.00315845
0.00314711
0.00313508
0.00312186
0.00310773
0.0030853
0.00647979
0.00600289
0.00563574
0.00534269
0.00510312
0.00490372
0.00473533
0.00459138
0.00446703
0.00435865
0.00426342
0.00417916
0.00410412
0.00403688
0.00397627
0.00392137
0.0038714
0.00382571
0.00378377
0.00374516
0.0037095
0.00367649
0.00364589
0.0036175
0.00359114
0.00356668
0.00354399
0.00352299
0.00350358
0.0034857
0.00346929
0.00345435
0.00344089
0.00342903
0.00341901
0.00341131
0.00340671
0.00340654
0.00341316
0.00342783
0.00344925
0.00347362
0.00349636
0.00351471
0.0035276
0.00353499
0.00353743
0.00353574
0.00353082
0.00352401
0.00351661
0.00350917
0.00350215
0.00349586
0.0034905
0.00348617
0.00348285
0.0034804
0.00347864
0.00347731
0.00347613
0.00347482
0.0034731
0.00347073
0.00346753
0.00346335
0.0034581
0.00345173
0.00344423
0.00343565
0.00342604
0.00341548
0.00340405
0.00339186
0.003379
0.00336556
0.00335163
0.00333728
0.00332256
0.00330753
0.0032922
0.0032766
0.00326074
0.00324464
0.00322826
0.00321153
0.00319434
0.00317617
0.00315743
0.00313103
0.00647982
0.00600292
0.00563576
0.00534269
0.00510309
0.00490365
0.00473521
0.0045912
0.00446676
0.00435825
0.00426286
0.00417838
0.00410308
0.00403553
0.00397459
0.00391933
0.00386897
0.00382286
0.00378049
0.00374141
0.00370527
0.00367176
0.00364065
0.00361173
0.00358485
0.00355986
0.00353666
0.00351514
0.00349522
0.00347681
0.00345984
0.00344428
0.00343011
0.00341742
0.00340642
0.00339775
0.00339243
0.00339324
0.00341055
0.00345426
0.00352271
0.0036011
0.00367423
0.00373629
0.00378581
0.00382378
0.00385214
0.00387299
0.00388825
0.00389899
0.00390811
0.00391642
0.00392341
0.00392857
0.00393149
0.00393188
0.00392955
0.00392448
0.0039167
0.00390634
0.00389356
0.00387857
0.00386158
0.00384282
0.00382252
0.00380091
0.0037782
0.0037546
0.00373032
0.00370552
0.00368038
0.00365506
0.0036297
0.00360441
0.0035793
0.00355447
0.00352999
0.00350592
0.0034823
0.00345917
0.00343656
0.00341465
0.00339341
0.00337284
0.00335292
0.00333362
0.00331484
0.00329625
0.00327752
0.00325334
0.00647985
0.00600295
0.00563578
0.00534268
0.00510304
0.00490356
0.00473505
0.00459096
0.00446642
0.00435779
0.00426223
0.00417755
0.00410199
0.00403415
0.00397288
0.00391724
0.00386645
0.00381988
0.003777
0.00373738
0.00370066
0.00366654
0.0036348
0.00360525
0.00357773
0.00355211
0.00352828
0.00350615
0.00348562
0.00346658
0.00344895
0.00343263
0.00341754
0.00340367
0.00339106
0.0033804
0.00337273
0.0033744
0.00344246
0.00362335
0.0038837
0.00414292
0.00435422
0.00451293
0.0046236
0.00469514
0.00473622
0.00475424
0.0047552
0.00474386
0.00472204
0.0046925
0.00465685
0.00461672
0.00457353
0.00452843
0.00448233
0.00443585
0.00438946
0.00434344
0.00429799
0.00425322
0.00420924
0.00416608
0.0041238
0.00408245
0.00404205
0.00400266
0.00396431
0.00392703
0.00389087
0.00385585
0.00382202
0.00378938
0.00375797
0.00372784
0.00369902
0.00367153
0.0036454
0.00362067
0.00359736
0.00357534
0.00355467
0.00353539
0.00351748
0.00350089
0.00348547
0.00347093
0.00345665
0.00343958
0.00647988
0.00600298
0.00563579
0.00534266
0.00510298
0.00490343
0.00473485
0.00459066
0.004466
0.0043572
0.00426145
0.00417653
0.0041007
0.00403253
0.00397089
0.00391482
0.00386357
0.00381648
0.00377304
0.0037328
0.00369543
0.00366062
0.00362815
0.00359786
0.00356959
0.00354323
0.00351869
0.00349587
0.00347465
0.00345494
0.0034366
0.00341953
0.00340355
0.00338854
0.00337421
0.00336116
0.00334984
0.00335906
0.00369392
0.00437628
0.00507476
0.00556854
0.00584519
0.00596261
0.00597059
0.00591045
0.00581166
0.00569387
0.00556926
0.0054447
0.00532366
0.00520785
0.00509921
0.00499844
0.00490549
0.00481985
0.0047408
0.0046676
0.00459952
0.0045359
0.0044762
0.00441995
0.00436679
0.00431647
0.00426882
0.00422366
0.00418086
0.00414029
0.00410183
0.00406538
0.00403087
0.00399824
0.00396749
0.00393852
0.00391177
0.00388679
0.0038633
0.00384115
0.00382028
0.00380066
0.00378227
0.0037651
0.00374914
0.00373437
0.00372074
0.00370813
0.00369622
0.00368475
0.00367154
0.00365619
0.0064799
0.006003
0.00563579
0.00534263
0.0051029
0.00490329
0.00473462
0.00459032
0.00446552
0.00435656
0.00426061
0.00417545
0.00409933
0.00403082
0.00396879
0.00391228
0.00386051
0.00381285
0.00376876
0.00372782
0.00368967
0.00365404
0.00362071
0.00358952
0.00356035
0.00353311
0.00350773
0.00348409
0.0034621
0.00344164
0.00342257
0.00340476
0.00338797
0.00337191
0.00335576
0.00333954
0.00332064
0.00336409
0.00460907
0.00604707
0.00697223
0.00736203
0.00737677
0.00718365
0.00689716
0.00658576
0.00628579
0.00601362
0.00577458
0.00556818
0.00539148
0.00524052
0.00511113
0.00499929
0.00490154
0.00481504
0.00473757
0.0046675
0.00460368
0.00454514
0.00449151
0.00444208
0.00439647
0.0043543
0.00431533
0.00427935
0.00424612
0.00421544
0.00418706
0.00416076
0.00413628
0.00411341
0.00409198
0.00407183
0.00405277
0.00403468
0.00401745
0.004001
0.00398529
0.0039703
0.00395601
0.00394243
0.00392954
0.00391733
0.00390567
0.0038947
0.00388404
0.00387365
0.00386128
0.00384887
0.00647992
0.00600302
0.00563579
0.00534259
0.00510281
0.00490312
0.00473436
0.00458995
0.00446501
0.00435587
0.0042597
0.00417428
0.00409785
0.00402898
0.00396652
0.00390951
0.00385718
0.00380888
0.00376407
0.00372231
0.00368327
0.00364666
0.0036123
0.00358005
0.00354981
0.00352153
0.00349516
0.00347062
0.00344778
0.00342655
0.00340684
0.0033886
0.00337179
0.00335637
0.00334162
0.0033276
0.00331042
0.00335861
0.00470996
0.00624034
0.00721246
0.00758273
0.00757845
0.00736476
0.00705014
0.00670538
0.00637039
0.00606444
0.00579494
0.00556271
0.00536537
0.00519905
0.0050594
0.00494391
0.00484627
0.00476177
0.00468727
0.00462067
0.00456058
0.00450614
0.00445676
0.00441198
0.00437132
0.0043346
0.00430171
0.00427248
0.00424674