/*--------------------------------*- C++ -*----------------------------------*\
| =========                 |                                                 |
| \\      /  F ield         | OpenFOAM: The Open Source CFD Toolbox           |
|  \\    /   O peration     | Version:  v2012                                 |
|   \\  /    A nd           | Website:  www.openfoam.com                      |
|    \\/     M anipulation  |                                                 |
\*---------------------------------------------------------------------------*/
FoamFile
{
    version     2.0;
    format      ascii;
    class       volScalarField;
    location    "300/air";
    object      epsilon;
}
// * * * * * * * * * * * * * * * * * * * * * * * * * * * * * * * * * * * * * //

dimensions      [0 2 -3 0 0 0 0];


internalField   nonuniform List<scalar> 
287104
(
0.0965267
0.0769467
0.0638353
0.0545207
0.0476264
0.0423614
0.0382384
0.0349417
0.0322589
0.0300427
0.0281879
0.0266178
0.0252752
0.0241168
0.0231095
0.0222272
0.0214493
0.0207594
0.0201442
0.019593
0.0190966
0.0186479
0.0182405
0.0178693
0.0175299
0.0172185
0.0169319
0.0166673
0.0164223
0.0161948
0.015983
0.0157852
0.0156
0.0154262
0.0152625
0.0151079
0.0149616
0.0148226
0.0146902
0.0145637
0.0144426
0.0143261
0.0142138
0.0141053
0.0140002
0.013898
0.0137984
0.0137012
0.0136062
0.013513
0.0134215
0.0133316
0.0132431
0.013156
0.01307
0.0129852
0.0129015
0.0128189
0.0127372
0.0126565
0.0125767
0.0124977
0.0124196
0.0123423
0.0122657
0.0121898
0.0121145
0.0120398
0.0119655
0.0118915
0.0118178
0.0117441
0.0116703
0.0115962
0.0115217
0.0114464
0.0113703
0.0112929
0.011214
0.0111332
0.01105
0.010964
0.0108744
0.0107804
0.0106807
0.0105729
0.0104549
0.0103167
0.010163
0.009866
0.0965209
0.0769362
0.0638218
0.0545051
0.0476095
0.0423437
0.0382201
0.034923
0.0322401
0.0300238
0.0281691
0.0265991
0.0252567
0.0240988
0.0230919
0.0222101
0.0214327
0.0207434
0.0201288
0.019578
0.0190823
0.0186341
0.0182272
0.0178566
0.0175178
0.0172069
0.016921
0.0166571
0.0164128
0.0161861
0.0159752
0.0157784
0.0155942
0.0154215
0.015259
0.0151057
0.0149606
0.014823
0.0146921
0.0145671
0.0144474
0.0143325
0.0142218
0.0141148
0.0140111
0.0139103
0.0138122
0.0137163
0.0136224
0.0135304
0.01344
0.013351
0.0132633
0.0131768
0.0130915
0.0130071
0.0129238
0.0128413
0.0127597
0.012679
0.012599
0.0125199
0.0124414
0.0123636
0.0122864
0.0122099
0.0121338
0.0120582
0.0119829
0.0119079
0.011833
0.011758
0.0116829
0.0116073
0.0115312
0.0114543
0.0113763
0.0112971
0.0112162
0.0111332
0.0110479
0.0109596
0.0108678
0.0107714
0.0106694
0.0105596
0.0104395
0.0102997
0.0101447
0.00984907
0.0965185
0.0769318
0.063816
0.0544983
0.0476019
0.0423354
0.0382112
0.0349137
0.0322304
0.0300139
0.028159
0.026589
0.0252468
0.024089
0.0230824
0.0222009
0.0214239
0.0207349
0.0201206
0.0195702
0.0190748
0.018627
0.0182206
0.0178503
0.0175119
0.0172016
0.0169161
0.0166528
0.0164092
0.0161832
0.015973
0.015777
0.0155938
0.015422
0.0152606
0.0151084
0.0149646
0.0148283
0.0146987
0.0145751
0.0144569
0.0143435
0.0142342
0.0141288
0.0140266
0.0139274
0.0138308
0.0137365
0.0136441
0.0135536
0.0134646
0.0133771
0.0132909
0.0132059
0.013122
0.0130391
0.0129571
0.0128761
0.012796
0.0127167
0.0126383
0.0125606
0.0124836
0.0124074
0.0123318
0.0122568
0.0121823
0.0121083
0.0120347
0.0119614
0.0118882
0.011815
0.0117416
0.0116678
0.0115935
0.0115185
0.0114424
0.011365
0.011286
0.011205
0.0111217
0.0110354
0.0109456
0.0108515
0.0107518
0.0106446
0.0105276
0.0103915
0.010241
0.00995506
0.0965162
0.076927
0.0638092
0.0544898
0.047592
0.0423243
0.0381991
0.0349006
0.0322165
0.0299994
0.0281442
0.0265741
0.0252319
0.0240744
0.023068
0.0221868
0.0214101
0.0207214
0.0201074
0.0195572
0.019062
0.0186144
0.0182082
0.0178382
0.0175
0.01719
0.0169049
0.0166419
0.0163988
0.0161734
0.0159638
0.0157686
0.0155862
0.0154154
0.0152551
0.0151041
0.0149615
0.0148266
0.0146984
0.0145763
0.0144595
0.0143476
0.0142399
0.014136
0.0140353
0.0139375
0.0138423
0.0137493
0.0136582
0.0135688
0.0134809
0.0133944
0.0133091
0.0132248
0.0131416
0.0130594
0.012978
0.0128975
0.0128178
0.0127389
0.0126607
0.0125832
0.0125064
0.0124303
0.0123547
0.0122797
0.0122052
0.0121311
0.0120573
0.0119837
0.0119102
0.0118367
0.0117629
0.0116887
0.0116138
0.0115381
0.0114613
0.0113832
0.0113032
0.0112212
0.0111366
0.011049
0.0109577
0.010862
0.0107608
0.0106521
0.0105337
0.0103967
0.0102456
0.00996104
0.096514
0.0769228
0.0638034
0.0544827
0.0475836
0.0423148
0.0381885
0.0348891
0.0322041
0.0299862
0.0281305
0.0265602
0.0252181
0.0240608
0.0230547
0.0221739
0.0213975
0.0207092
0.0200955
0.0195457
0.0190508
0.0186035
0.0181975
0.0178277
0.0174899
0.0171801
0.0168954
0.0166329
0.0163903
0.0161655
0.0159568
0.0157624
0.015581
0.0154113
0.0152522
0.0151025
0.0149614
0.014828
0.0147014
0.014581
0.014466
0.0143559
0.01425
0.0141478
0.0140488
0.0139527
0.0138591
0.0137676
0.013678
0.0135901
0.0135036
0.0134183
0.0133342
0.0132511
0.0131689
0.0130877
0.0130072
0.0129275
0.0128486
0.0127704
0.0126928
0.0126159
0.0125397
0.0124639
0.0123888
0.012314
0.0122397
0.0121657
0.0120918
0.0120181
0.0119444
0.0118704
0.0117961
0.0117211
0.0116454
0.0115687
0.0114906
0.0114109
0.0113292
0.011245
0.011158
0.0110675
0.0109731
0.0108741
0.0107693
0.010657
0.0105352
0.010395
0.0102411
0.00995537
0.0965118
0.0769184
0.0637972
0.0544748
0.0475742
0.0423039
0.0381761
0.0348753
0.0321892
0.0299705
0.0281144
0.0265442
0.0252026
0.0240458
0.0230404
0.0221601
0.0213842
0.0206962
0.0200828
0.0195331
0.0190383
0.0185911
0.0181852
0.0178155
0.0174778
0.0171683
0.0168839
0.0166219
0.0163799
0.0161559
0.015948
0.0157548
0.0155747
0.0154065
0.0152491
0.0151013
0.0149622
0.014831
0.0147068
0.0145889
0.0144764
0.0143689
0.0142657
0.0141662
0.01407
0.0139766
0.0138857
0.0137968
0.0137098
0.0136243
0.0135402
0.0134573
0.0133755
0.0132946
0.0132146
0.0131355
0.013057
0.0129794
0.0129023
0.012826
0.0127503
0.0126752
0.0126006
0.0125265
0.0124529
0.0123797
0.0123067
0.012234
0.0121614
0.0120888
0.0120161
0.0119431
0.0118695
0.0117953
0.0117202
0.011644
0.0115664
0.0114869
0.0114054
0.0113213
0.011234
0.0111433
0.0110487
0.0109497
0.0108454
0.0107343
0.0106148
0.0104785
0.0103299
0.0100548
0.0965097
0.0769141
0.0637911
0.054467
0.0475647
0.0422926
0.0381629
0.03486
0.0321717
0.029951
0.0280936
0.0265229
0.0251814
0.0240252
0.0230205
0.0221409
0.0213657
0.0206783
0.0200654
0.0195161
0.0190216
0.0185746
0.018169
0.0177996
0.0174623
0.0171533
0.0168696
0.0166084
0.0163674
0.0161447
0.0159385
0.0157471
0.0155692
0.0154035
0.0152488
0.0151041
0.0149684
0.0148409
0.0147205
0.0146066
0.0144984
0.0143953
0.0142965
0.0142016
0.0141098
0.0140206
0.0139337
0.0138488
0.0137658
0.0136843
0.0136041
0.0135252
0.0134473
0.0133704
0.0132944
0.0132191
0.0131447
0.013071
0.012998
0.0129256
0.012854
0.0127829
0.0127124
0.0126424
0.012573
0.012504
0.0124355
0.0123674
0.0122997
0.0122321
0.0121647
0.0120974
0.0120299
0.0119621
0.0118939
0.011825
0.0117552
0.0116842
0.0116116
0.011537
0.0114598
0.0113795
0.0112958
0.0112084
0.0111168
0.01102
0.0109164
0.0107991
0.0106719
0.0104345
0.0965076
0.0769098
0.0637848
0.0544588
0.0475546
0.0422804
0.0381485
0.0348432
0.0321526
0.02993
0.0280722
0.0265026
0.0251628
0.0240081
0.0230046
0.0221258
0.0213508
0.0206632
0.0200496
0.0194994
0.0190037
0.0185555
0.0181486
0.0177782
0.0174399
0.0171304
0.0168464
0.0165855
0.0163453
0.0161238
0.0159193
0.0157303
0.0155552
0.0153924
0.0152409
0.0150996
0.0149677
0.0148441
0.0147278
0.0146182
0.0145142
0.0144152
0.0143204
0.0142293
0.0141411
0.0140556
0.0139723
0.0138909
0.0138111
0.0137326
0.0136553
0.0135791
0.013504
0.0134298
0.0133565
0.0132842
0.0132126
0.013142
0.0130721
0.0130031
0.0129348
0.0128672
0.0128004
0.0127343
0.0126688
0.0126038
0.0125394
0.0124753
0.0124114
0.0123477
0.0122841
0.0122203
0.0121562
0.0120916
0.0120263
0.0119601
0.0118928
0.011824
0.0117532
0.0116799
0.0116033
0.0115233
0.01144
0.0113534
0.0112634
0.0111696
0.0110722
0.0109687
0.0108734
0.010716
0.0965056
0.0769055
0.0637784
0.0544503
0.0475435
0.0422664
0.0381306
0.0348203
0.0321226
0.0298918
0.0280395
0.0264892
0.0251734
0.0240404
0.0230521
0.0221804
0.0214049
0.0207101
0.0200845
0.019519
0.0190063
0.0185405
0.0181167
0.0177306
0.0173787
0.0170574
0.016764
0.0164958
0.0162504
0.0160256
0.0158194
0.01563
0.0154557
0.0152951
0.0151468
0.0150096
0.0148822
0.0147635
0.0146521
0.0145468
0.0144467
0.0143508
0.0142584
0.014169
0.0140819
0.0139969
0.0139138
0.0138324
0.0137527
0.0136746
0.0135978
0.0135223
0.0134479
0.0133746
0.0133023
0.0132311
0.0131608
0.0130914
0.013023
0.0129554
0.0128887
0.0128227
0.0127574
0.0126928
0.0126288
0.0125653
0.0125022
0.0124394
0.0123768
0.0123143
0.0122517
0.0121889
0.0121257
0.012062
0.0119976
0.0119322
0.0118658
0.0117979
0.0117281
0.0116551
0.0115775
0.0114961
0.011412
0.0113254
0.0112363
0.0111444
0.0110502
0.0109522
0.010864
0.0107413
0.0965035
0.0769013
0.0637721
0.0544417
0.0475325
0.0422525
0.038113
0.0347982
0.0320941
0.0298595
0.0292049
0.0288838
0.0283993
0.0276696
0.0267477
0.0257165
0.0246483
0.0235952
0.0225904
0.0216536
0.0207941
0.0200151
0.0193154
0.0186911
0.018137
0.0176472
0.017215
0.0168332
0.0164944
0.0161912
0.0159165
0.015663
0.015425
0.0152282
0.0150626
0.0149203
0.0147952
0.0146826
0.0145794
0.0144828
0.0143912
0.0143029
0.0142169
0.0141325
0.014052
0.0139764
0.0139055
0.0138387
0.0137754
0.013715
0.0136568
0.0136005
0.0135456
0.0134919
0.0134392
0.0133874
0.0133364
0.0132859
0.0132359
0.0131863
0.013137
0.013088
0.0130392
0.0129904
0.0129417
0.012893
0.0128443
0.0127955
0.0127465
0.0126971
0.0126472
0.0125968
0.0125457
0.0124937
0.0124408
0.0123867
0.0123313
0.0122744
0.0122161
0.0121544
0.0120162
0.0118609
0.0117079
0.0115628
0.0114259
0.0112957
0.011171
0.0110482
0.0109377
0.0107962
0.0965015
0.076897
0.0637655
0.0544326
0.0475202
0.0422354
0.0380882
0.0347596
0.0320185
0.029921
0.164085
0.215268
0.214838
0.196137
0.17406
0.153762
0.13656
0.122449
0.111042
0.101896
0.0946178
0.0888763
0.0844009
0.0809685
0.0783916
0.0765098
0.0751835
0.0742896
0.0737201
0.0733813
0.0731934
0.0730933
0.0730276
0.0729934
0.0730001
0.0730365
0.073087
0.0731391
0.0731852
0.0732229
0.0732532
0.0732808
0.0732994
0.0733107
0.0733117
0.0733078
0.073311
0.0733337
0.0733875
0.0734801
0.0736167
0.0738016
0.0740366
0.0743211
0.074655
0.0750396
0.0754758
0.0759631
0.0765006
0.0770867
0.0777196
0.078397
0.0791165
0.0798752
0.0806698
0.081497
0.0823533
0.083235
0.0841387
0.0850607
0.0859978
0.086947
0.0879057
0.0888737
0.0898516
0.0908453
0.0918764
0.0930017
0.0945186
0.0961475
0.0494953
0.0308148
0.0220267
0.0173942
0.0147486
0.0131469
0.0121326
0.0114603
0.0110056
0.0106287
0.0964996
0.0768929
0.0637594
0.0544243
0.0475095
0.0422219
0.0380711
0.0347383
0.0319912
0.0298881
0.164072
0.215371
0.214801
0.195791
0.173356
0.152707
0.135185
0.120793
0.109144
0.0997935
0.0923448
0.0864659
0.0818851
0.0783789
0.0757598
0.0738668
0.0725589
0.0717106
0.0712102
0.0709589
0.0708714
0.0708755
0.0709125
0.0709366
0.0709151
0.0708256
0.0706531
0.070388
0.0700259
0.0695663
0.0690113
0.0683656
0.0676496
0.0668718
0.0660411
0.065169
0.0642676
0.0633472
0.0624152
0.0614791
0.0605464
0.0596247
0.058725
0.0578505
0.0570056
0.0561957
0.0554259
0.0547013
0.0540271
0.0534084
0.0528504
0.0523581
0.0519367
0.0515906
0.0513241
0.0511414
0.0510465
0.051043
0.0511338
0.0513212
0.051607
0.0519922
0.0524779
0.0530653
0.0537566
0.0545563
0.0554778
0.0565469
0.0579329
0.0593364
0.0343335
0.0231969
0.0175157
0.0143276
0.0124172
0.0112185
0.0104395
0.00990654
0.00952494
0.00912914
0.0964976
0.0768889
0.0637533
0.0544162
0.047499
0.0422085
0.0380539
0.034716
0.031962
0.0298499
0.163599
0.214838
0.21439
0.195513
0.173173
0.152575
0.135071
0.120676
0.109016
0.099654
0.0922007
0.0863293
0.0817727
0.0783108
0.0757584
0.073956
0.0727623
0.0720506
0.0717068
0.071629
0.0717282
0.0719292
0.0721705
0.0724035
0.0725922
0.0727123
0.0727476
0.0726885
0.0725305
0.0722736
0.0719201
0.0714747
0.070944
0.0703361
0.0696602
0.0689263
0.0681447
0.0673255
0.0664779
0.0656107
0.0647309
0.0638431
0.0629455
0.0620418
0.0611327
0.0602169
0.0592928
0.0583582
0.057411
0.0564493
0.0554715
0.0544761
0.0534621
0.0524291
0.0513773
0.0503078
0.0492225
0.0481248
0.0470188
0.0459101
0.0448055
0.0437135
0.0426439
0.0416092
0.0406243
0.0397073
0.0388833
0.0381722
0.0376778
0.037137
0.0219452
0.015229
0.0118108
0.00988371
0.00871617
0.00797597
0.00749634
0.00716298
0.00692107
0.00659931
0.0964957
0.076885
0.0637477
0.0544089
0.0474899
0.0421976
0.038041
0.0347009
0.0319446
0.0298304
0.163436
0.214654
0.214231
0.195374
0.17304
0.152438
0.134925
0.12052
0.108849
0.0994801
0.0920231
0.0861524
0.0816014
0.0781504
0.0756151
0.0738362
0.0726728
0.0719985
0.0716988
0.0716715
0.0718272
0.0720899
0.0723974
0.072701
0.0729646
0.0731628
0.0732784
0.0732999
0.073221
0.0730399
0.0727572
0.0723766
0.0719044
0.0713489
0.0707216
0.0700361
0.0693072
0.068549
0.0677747
0.066996
0.0662227
0.0654625
0.0647213
0.0640092
0.0633422
0.062716
0.0621224
0.0615533
0.0610009
0.0604587
0.0599218
0.0593858
0.0588465
0.058301
0.0577466
0.0571798
0.0565968
0.0559937
0.0553662
0.0547104
0.0540234
0.0533035
0.0525502
0.0517663
0.0509631
0.0501782
0.049423
0.0486873
0.0480434
0.0473652
0.028642
0.0204687
0.0163347
0.0139847
0.0124816
0.0114
0.0105306
0.0097598
0.00904659
0.00818936
0.0964939
0.0768812
0.0637424
0.0544021
0.0474817
0.0421878
0.0380295
0.0346875
0.0319292
0.0298128
0.163236
0.214377
0.213952
0.195118
0.172811
0.152229
0.134729
0.120332
0.108666
0.0992995
0.0918445
0.0859767
0.0814305
0.077987
0.0754622
0.0736972
0.0725515
0.0718983
0.0716232
0.0716239
0.0718107
0.0721075
0.0724523
0.0727964
0.0731032
0.0733467
0.0735084
0.0735744
0.0735361
0.0733884
0.0731288
0.0727588
0.0722833
0.0717105
0.0710536
0.0703288
0.0695532
0.0687438
0.067916
0.0670837
0.0662579
0.0654472
0.0646571
0.0638923
0.0631555
0.0624484
0.061771
0.0611227
0.0605077
0.0599367
0.0594033
0.0588996
0.0584187
0.0579561
0.0575084
0.0570741
0.0566543
0.0562509
0.0558654
0.0554983
0.0551495
0.0548195
0.05451
0.0542234
0.0539638
0.0537372
0.0535596
0.0534567
0.0535701
0.0539692
0.0326704
0.0236594
0.0191763
0.0166504
0.0150694
0.0139776
0.0131446
0.0124295
0.0117271
0.0108058
0.0964921
0.0768776
0.0637374
0.0543959
0.0474744
0.0421796
0.0380203
0.0346774
0.0319182
0.0298007
0.163097
0.214163
0.213708
0.194865
0.172557
0.151979
0.134484
0.120092
0.108432
0.0990728
0.0916254
0.0857661
0.0812293
0.0777966
0.0752837
0.073532
0.0724005
0.0717626
0.0715036
0.0715211
0.0717257
0.0720416
0.0724072
0.0727745
0.0731074
0.0733799
0.0735722
0.0736684
0.0736561
0.0735259
0.0732707
0.072888
0.0723806
0.0717569
0.0710321
0.0702263
0.0693609
0.0684568
0.0675333
0.0666065
0.0656892
0.0647916
0.0639198
0.0630772
0.0622657
0.0614859
0.0607372
0.0600181
0.0593264
0.0586602
0.0580171
0.0573949
0.0567911
0.0562037
0.0556308
0.055071
0.0545232
0.053987
0.0534621
0.0529486
0.0524468
0.0519577
0.0514883
0.0510669
0.0506897
0.050353
0.0500664
0.0498542
0.0498546
0.0501686
0.0307337
0.0224546
0.0183119
0.0159693
0.0145025
0.0134946
0.0127347
0.0120899
0.0114525
0.0106773
0.0964903
0.0768742
0.0637327
0.0543904
0.0474682
0.042173
0.0380135
0.0346706
0.0319115
0.0297941
0.163025
0.214021
0.21351
0.194625
0.172289
0.151693
0.13419
0.119797
0.108141
0.0987903
0.0913551
0.0855109
0.0809913
0.077577
0.0750831
0.0733498
0.0722351
0.0716116
0.0713642
0.0713906
0.0716018
0.0719235
0.0722961
0.0726737
0.0730224
0.0733173
0.0735386
0.0736676
0.073687
0.0735802
0.0733317
0.0729322
0.0723811
0.0716865
0.0708675
0.0699499
0.0689616
0.0679293
0.0668765
0.0658225
0.0647819
0.0637646
0.0627779
0.061825
0.060906
0.0600191
0.0591617
0.0583306
0.0575226
0.0567345
0.0559631
0.0552058
0.0544603
0.0537248
0.0529977
0.0522777
0.0515641
0.0508562
0.0501538
0.0494568
0.0487652
0.0480793
0.0473998
0.0467284
0.0460675
0.0454197
0.0447928
0.0441908
0.0436927
0.04307
0.0260488
0.0187722
0.0151815
0.0131892
0.0119587
0.0111126
0.0104664
0.00991106
0.00940215
0.00874309
0.0964886
0.0768709
0.0637283
0.0543853
0.0474628
0.0421674
0.038008
0.0346654
0.0319066
0.0297889
0.162898
0.213759
0.213161
0.194242
0.171904
0.151326
0.13385
0.119487
0.107863
0.0985456
0.0911453
0.085339
0.0808614
0.0774931
0.0750483
0.0733654
0.0723006
0.0717245
0.0715214
0.0715895
0.0718425
0.0722098
0.0726365
0.0730816
0.073515
0.0739135
0.0742552
0.0745144
0.0746617
0.0746636
0.0744872
0.0741097
0.0735249
0.072745
0.0718001
0.0707315
0.0695824
0.0683927
0.0671957
0.0660163
0.0648713
0.0637705
0.0627172
0.0617106
0.0607467
0.0598193
0.0589213
0.0580455
0.0571854
0.0563351
0.0554898
0.0546453
0.0537983
0.0529464
0.0520878
0.0512218
0.0503481
0.049467
0.0485794
0.0476862
0.0467888
0.0458888
0.0449886
0.0440913
0.0432019
0.0423268
0.0414782
0.0406645
0.0399699
0.0391561
0.0233856
0.0165316
0.0130785
0.0111191
0.00988758
0.00903839
0.00840195
0.00787535
0.00742075
0.00685209
0.0964869
0.0768677
0.0637243
0.054381
0.0474587
0.0421642
0.0380067
0.0346673
0.0319137
0.0298028
0.163101
0.213884
0.21311
0.194041
0.171612
0.151006
0.133562
0.119289
0.107811
0.0986936
0.0915477
0.0860449
0.0819122
0.0789191
0.0768669
0.0755813
0.0749076
0.07471
0.0748709
0.0752914
0.0758917
0.0766093
0.0773978
0.0782225
0.0790557
0.0798709
0.080635
0.081301
0.0818068
0.0820779
0.0820392
0.0816391
0.0808645
0.0797446
0.0783454
0.0767541
0.0750599
0.0733437
0.0716709
0.0700884
0.0686254
0.0672952
0.0660986
0.0650266
0.0640643
0.0631936
0.0623958
0.0616536
0.0609509
0.0602737
0.0596102
0.0589517
0.0582922
0.0576285
0.0569595
0.0562858
0.0556092
0.0549331
0.0542618
0.0536009
0.0529566
0.0523363
0.0517483
0.051202
0.0507087
0.0502823
0.0499443
0.049718
0.0497293
0.0497524
0.0293233
0.0203587
0.015814
0.0132481
0.0116755
0.0106454
0.00993027
0.00939412
0.00896855
0.00848388
0.0964853
0.0768646
0.0637204
0.0543767
0.0474547
0.0421609
0.0380049
0.0346676
0.0319177
0.0298089
0.162749
0.21323
0.212558
0.193787
0.171886
0.152073
0.135684
0.122698
0.11269
0.10517
0.0996826
0.0958389
0.0933083
0.0918139
0.0911242
0.0910475
0.0914277
0.0921402
0.0930887
0.0942011
0.0954262
0.0967288
0.0980864
0.0994842
0.100909
0.102343
0.103751
0.10507
0.106203
0.10701
0.107328
0.10702
0.106009
0.104299
0.101974
0.0991741
0.096062
0.0928046
0.0895551
0.0864433
0.0835708
0.0810096
0.0788027
0.0769666
0.0754959
0.074366
0.073539
0.0729689
0.0726063
0.0724027
0.0723135
0.0723005
0.0723323
0.0723849
0.0724425
0.0724968
0.0725452
0.0725896
0.0726348
0.0726878
0.0727562
0.0728479
0.0729736
0.0731434
0.0733702
0.0736689
0.0740654
0.0746034
0.0754812
0.0765973
0.0415159
0.0271096
0.0201596
0.0163996
0.0141886
0.0128016
0.0118819
0.0112312
0.0107426
0.0102621
0.0964837
0.0768617
0.0637168
0.0543733
0.0474523
0.0421612
0.038011
0.0346856
0.0319712
0.0297245
0.0282183
0.0269532
0.0256956
0.0245514
0.0235128
0.0225692
0.0217139
0.0209405
0.0202431
0.0196155
0.0190517
0.0185461
0.0180932
0.017688
0.0173258
0.0170024
0.016714
0.016457
0.0162286
0.0160262
0.0158476
0.0156912
0.0155557
0.0154404
0.015345
0.0152698
0.0152149
0.01518
0.0151637
0.0151625
0.0151705
0.0151803
0.0151844
0.0151764
0.0151522
0.0151101
0.0150488
0.0149687
0.0148726
0.0147642
0.0146469
0.0145247
0.0144007
0.0142781
0.0141592
0.0140459
0.0139393
0.0138401
0.0137485
0.0136641
0.0135863
0.0135143
0.013447
0.0133832
0.0133218
0.0132616
0.0132016
0.0131409
0.0130787
0.0130144
0.0129476
0.0128779
0.0128051
0.012729
0.0126496
0.0125669
0.0124812
0.0123925
0.0123012
0.0122062
0.012052
0.0118838
0.011717
0.0115561
0.0114016
0.0112521
0.0111066
0.0109608
0.0108234
0.0106399
0.0964821
0.0768586
0.063713
0.0543691
0.0474482
0.0421578
0.038009
0.0346856
0.0319747
0.0297301
0.0278528
0.0262671
0.0249123
0.0237426
0.0227237
0.021829
0.0210377
0.0203338
0.0197041
0.0191385
0.0186283
0.0181669
0.0177485
0.0173684
0.0170228
0.0167084
0.0164225
0.0161628
0.0159274
0.0157149
0.015524
0.0153539
0.0152042
0.015075
0.014967
0.0148816
0.0148202
0.0147839
0.0147723
0.0147819
0.0148043
0.0148297
0.0148481
0.0148517
0.014836
0.0147997
0.0147432
0.0146686
0.0145787
0.0144768
0.0143664
0.0142504
0.0141316
0.0140122
0.013894
0.0137783
0.0136663
0.0135586
0.0134556
0.0133574
0.0132638
0.0131745
0.013089
0.0130067
0.0129272
0.0128497
0.0127736
0.0126985
0.0126238
0.0125489
0.0124735
0.0123971
0.0123196
0.0122407
0.0121603
0.0120784
0.0119948
0.0119095
0.0118221
0.0117316
0.0116369
0.0115387
0.0114383
0.0113361
0.0112323
0.0111265
0.0110192
0.0109084
0.0108054
0.0106632
0.0964805
0.0768556
0.0637091
0.0543649
0.0474442
0.0421545
0.0380073
0.0346868
0.0319806
0.0297419
0.0278674
0.0262802
0.0249218
0.0237477
0.0227242
0.0218248
0.0210291
0.0203206
0.0196864
0.0191159
0.0186007
0.0181338
0.0177095
0.0173232
0.0169711
0.0166498
0.0163568
0.0160898
0.0158471
0.0156271
0.0154289
0.0152519
0.0150958
0.0149614
0.0148499
0.0147642
0.0147076
0.0146834
0.0146939
0.0147351
0.0147956
0.0148605
0.0149148
0.014947
0.0149514
0.0149266
0.014874
0.0147968
0.0146991
0.0145859
0.0144621
0.0143314
0.0141974
0.0140625
0.0139288
0.0137988
0.013674
0.0135556
0.0134441
0.0133396
0.013242
0.0131508
0.0130655
0.0129853
0.0129095
0.0128373
0.0127679
0.0127007
0.0126349
0.0125699
0.0125052
0.0124402
0.0123745
0.0123077
0.0122396
0.0121699
0.0120982
0.0120243
0.0119478
0.0118682
0.0117849
0.0116979
0.0116076
0.011514
0.0114173
0.0113169
0.0112127
0.0111012
0.0109898
0.0108103
0.0964789
0.0768525
0.0637049
0.0543599
0.0474387
0.0421487
0.0380014
0.0346807
0.0319741
0.0297344
0.0278571
0.0262657
0.0249025
0.0237237
0.0226955
0.0217917
0.0209917
0.020279
0.0196406
0.0190659
0.0185464
0.0180752
0.0176465
0.0172557
0.0168991
0.0165733
0.0162757
0.0160042
0.0157568
0.0155323
0.0153295
0.0151478
0.0149873
0.0148488
0.0147345
0.0146489
0.0145979
0.0145895
0.0146323
0.0147244
0.01485
0.0149856
0.0151053
0.0151911
0.0152349
0.0152354
0.0151958
0.0151214
0.0150187
0.0148974
0.0147634
0.014622
0.0144777
0.0143342
0.0141944
0.0140606
0.0139343
0.0138165
0.0137077
0.0136079
0.0135166
0.0134332
0.0133567
0.0132861
0.01322
0.0131572
0.0130966
0.0130369
0.0129771
0.0129163
0.0128536
0.0127885
0.0127203
0.0126488
0.0125736
0.0124946
0.0124116
0.0123246
0.0122333
0.0121376
0.0120372
0.011932
0.011822
0.0117072
0.0115876
0.0114624
0.0113309
0.0111881
0.0110374
0.0108014
0.0964773
0.0768493
0.0637006
0.0543547
0.0474328
0.0421422
0.0379944
0.0346733
0.0319663
0.0297259
0.027847
0.026253
0.0248862
0.0237031
0.0226702
0.0217614
0.020956
0.0202377
0.0195936
0.0190131
0.0184877
0.0180106
0.017576
0.0171794
0.016817
0.0164857
0.0161828
0.015906
0.0156535
0.0154238
0.0152155
0.015028
0.0148612
0.014716
0.014595
0.0145044
0.0144536
0.014459
0.0145507
0.0147457
0.0150294
0.0153548
0.0156626
0.0159146
0.0160943
0.0161999
0.0162379
0.0162191
0.0161561
0.0160675
0.0159709
0.0158738
0.0157822
0.0157002
0.0156302
0.0155732
0.0155287
0.015495
0.0154693
0.0154485
0.0154287
0.0154063
0.0153779
0.0153407
0.0152922
0.015231
0.015156
0.015067
0.0149642
0.0148483
0.0147203
0.0145816
0.0144334
0.0142773
0.0141145
0.0139463
0.013774
0.0135985
0.0134207
0.013241
0.0130599
0.0128778
0.0126948
0.012511
0.0123264
0.0121401
0.0119514
0.0117566
0.0115579
0.0112801
0.0964757
0.0768461
0.063696
0.054349
0.047426
0.0421343
0.0379853
0.0346628
0.0319541
0.0297114
0.0278297
0.0262319
0.0248609
0.0236731
0.0226352
0.021721
0.0209102
0.0201863
0.0195363
0.0189498
0.0184182
0.0179348
0.0174939
0.0170911
0.0167225
0.0163851
0.0160763
0.0157937
0.0155355
0.0152999
0.0150854
0.0148909
0.0147159
0.0145609
0.0144283
0.014326
0.0142665
0.0142838
0.0145086
0.0150756
0.0159882
0.0170751
0.0181311
0.0190593
0.0198214
0.0204188
0.0208723
0.0212098
0.0214589
0.0216351
0.0217854
0.0219223
0.022037
0.0221206
0.0221656
0.0221669
0.0221216
0.0220292
0.0218911
0.0217099
0.0214894
0.021234
0.0209483
0.020637
0.0203048
0.0199562
0.0195955
0.0192265
0.0188526
0.0184771
0.0181028
0.0177318
0.0173663
0.0170079
0.0166579
0.0163173
0.0159871
0.0156677
0.0153593
0.0150622
0.0147782
0.0145072
0.014249
0.014003
0.0137689
0.0135461
0.0133332
0.0131242
0.0129175
0.0126536
0.0964742
0.0768429
0.0636915
0.0543432
0.0474189
0.0421258
0.0379754
0.0346513
0.0319407
0.0296958
0.0278112
0.02621
0.024835
0.0236427
0.0225997
0.0216801
0.0208632
0.0201329
0.0194761
0.0188824
0.0183434
0.0178524
0.0174037
0.0169931
0.0166169
0.0162722
0.0159562
0.0156669
0.0154019
0.0151594
0.0149375
0.0147346
0.0145491
0.0143804
0.0142286
0.0141023
0.014014
0.0140389
0.0149002
0.0173582
0.0213478
0.0258809
0.0300138
0.0333877
0.0358809
0.0375548
0.0385374
0.0389717
0.0389913
0.0387108
0.0381771
0.0374644
0.0366168
0.0356776
0.034684
0.0336655
0.0326437
0.0316339
0.0306458
0.0296855
0.0287565
0.0278608
0.0269991
0.0261717
0.0253785
0.0246192
0.0238934
0.0232007
0.0225405
0.0219122
0.0213153
0.0207491
0.0202128
0.0197057
0.0192276
0.0187779
0.018356
0.0179615
0.0175937
0.0172525
0.0169355
0.0166422
0.0163727
0.0161264
0.0159025
0.0156998
0.0155154
0.0153456
0.015182
0.0149864
0.0964727
0.0768398
0.0636869
0.0543372
0.0474115
0.0421169
0.0379648
0.0346387
0.0319257
0.0296779
0.0277901
0.026185
0.0248056
0.0236084
0.0225599
0.0216343
0.0208109
0.0200735
0.0194092
0.0188075
0.0182601
0.0177603
0.0173028
0.0168832
0.0164982
0.016145
0.015821
0.0155239
0.0152515
0.0150018
0.0147724
0.0145614
0.0143662
0.0141846
0.014013
0.0138586
0.0137257
0.0138351
0.0183615
0.0304485
0.0473658
0.0624786
0.0721788
0.0765662
0.0768484
0.0745418
0.0708694
0.0666552
0.0623838
0.0583017
0.0545107
0.05104
0.0479196
0.0451399
0.0426711
0.0404761
0.0385168
0.0367588
0.035172
0.0337313
0.032416
0.0312092
0.0300981
0.0290729
0.0281252
0.027248
0.0264351
0.025681
0.0249808
0.0243306
0.0237266
0.0231671
0.0226494
0.0221746
0.021741
0.021341
0.0209702
0.0206256
0.0203059
0.02001
0.0197371
0.0194867
0.0192581
0.0190503
0.0188618
0.0186905
0.018531
0.0183791
0.0182021
0.0179991
0.0964714
0.076837
0.0636827
0.0543316
0.0474043
0.0421081
0.0379541
0.0346258
0.0319103
0.0296597
0.0277684
0.0261595
0.0247756
0.0235732
0.022519
0.0215869
0.0207564
0.0200111
0.0193382
0.0187272
0.0181699
0.0176597
0.0171915
0.0167612
0.0163657
0.0160023
0.0156687
0.0153628
0.0150823
0.0148247
0.0145878
0.0143694
0.0141658
0.0139732
0.0137812
0.0135899
0.013364
0.0138758
0.0355071
0.0798789
0.122146
0.143622
0.14443
0.13338
0.118074
0.102826
0.0894382
0.0783457
0.0693942
0.062236
0.0565123
0.051908
0.0481648
0.0450775
0.0424891
0.0402831
0.0383746
0.0367025
0.0352229
0.0339045
0.032726
0.031674
0.0307283
0.0298748
0.0291029
0.0284037
0.0277694
0.0271927
0.0266668
0.026185
0.0257413
0.0253311
0.0249503
0.0245949
0.0242615
0.0239475
0.023651
0.0233707
0.0231056
0.0228554
0.0226197
0.0223982
0.0221905
0.021996
0.0218141
0.0216446
0.0214811
0.0213231
0.0211341
0.0209475
0.0964703
0.0768345
0.0636789
0.0543264
0.0473976
0.0420996
0.0379436
0.0346131
0.0318949
0.0296411
0.0277463
0.0261332
0.0247444
0.0235366
0.0224761
0.021537
0.0206986
0.0199446
0.0192619
0.0186403
0.0180715
0.0175491
0.0170682
0.0166251
0.016217
0.0158418
0.0154974
0.0151818
0.0148926
0.0146275
0.0143846
0.014163
0.0139612
0.0137786
0.0136059
0.0134431
0.0132397
0.0138058
0.0378511
0.087636
0.134904
0.156505
0.156236
0.143423
0.125862
0.108332
0.0929326
0.0802072
0.0700075
0.0619431
0.0555966
0.0505961
0.0466341
0.0435127
0.0409895
0.0388903
0.0371045
0.0355601
0.03421
0.0330228
0.0319759
0.0310502
0.0302307
0.0295088
0.0288769
0.0283273
0.0278518
0.0274409
0.0270868
0.0267814
0.0265164
0.0262826
0.026072
0.025878
0.0256954
0.0255206
0.0253509
0.025185
0.025022
0.0248618
0.0247045
0.0245501
0.0243988
0.0242504
0.0241029
0.0239546
0.0238005
0.0236453
0.0234508
0.0232819
0.0964694
0.0768326
0.0636758
0.054322
0.0473917
0.042092
0.0379339
0.034601
0.0318801
0.0296232
0.0277246
0.0261072
0.0247135
0.0234999
0.0224328
0.0214861
0.020639
0.0198752
0.0191815
0.0185475
0.0179652
0.0174283
0.0169321
0.0164734
0.0160502
0.0156608
0.0153038
0.0149773
0.0146786
0.0144054
0.0141566
0.0139346
0.0137433
0.0135929
0.0134846
0.0134324
0.0133507
0.0139229
0.0369844
0.0861227
0.133864
0.156229
0.156454
0.1441
0.126918
0.109689
0.0944759
0.0818047
0.0715128
0.0632301
0.0565742
0.0512329
0.0469897
0.0435412
0.0406863
0.0382845
0.0362355
0.0344676
0.0329301
0.0315877
0.0304154
0.0293958
0.0285174
0.0277694
0.0271433
0.0266318
0.0262275
0.0259225
0.0257053
0.025563
0.0254822
0.0254491
0.0254502
0.0254732
0.0255069
0.0255424
0.0255727
0.0255927
0.0255995
0.0255913
0.0255678
0.0255291
0.0254757
0.0254086
0.0253277
0.0252346
0.0251245
0.0250056
0.0248371
0.0247081
0.0964689
0.0768312
0.0636735
0.0543185
0.0473867
0.0420853
0.0379252
0.0345899
0.0318663
0.0296061
0.0277037
0.0260819
0.024683
0.0234633
0.0223893
0.0214344
0.0205779
0.0198032
0.019097
0.018449
0.0178509
0.0172966
0.016782
0.0163046
0.015863
0.0154569
0.0150858
0.0147478
0.0144393
0.0141577
0.0139037
0.0136855
0.0135199
0.0134449
0.0134976
0.0137467
0.0139749
0.0145773
0.0342497
0.0774821
0.121204
0.143861
0.146056
0.135959
0.121366
0.106701
0.0936674
0.0825942
0.0732985
0.0654886
0.0589008
0.053327
0.0486623
0.0447149
0.0413391
0.0384261
0.0358919
0.0336725
0.0317205
0.0300012
0.0284892
0.0271663
0.0260189
0.0250386
0.0242211
0.0235647
0.0230672
0.0227236
0.022525
0.0224583
0.0225055
0.0226461
0.0228584
0.0231206
0.0234122
0.0237148
0.0240127
0.0242937
0.0245488
0.0247725
0.0249619
0.0251156
0.0252336
0.025317
0.0253664
0.0253846
0.0253677
0.0253275
0.025222
0.0251551
0.0964686
0.0768304
0.0636719
0.0543158
0.0473827
0.0420796
0.0379176
0.03458
0.0318536
0.0295902
0.027684
0.0260577
0.0246536
0.0234278
0.0223464
0.0213829
0.0205163
0.0197296
0.0190095
0.0183453
0.0177288
0.0171538
0.0166168
0.016116
0.0156516
0.0152252
0.0148382
0.0144889
0.0141722
0.0138852
0.0136316
0.0134328
0.0133334
0.0134402
0.0139054
0.0149509
0.0158311
0.0163415
0.0173115
0.0211937
0.0290026
0.0382231
0.0467
0.0538717
0.0590578
0.0621284
0.063244
0.0626725
0.0607483
0.0578602
0.0543976
0.0506952
0.0470064
0.0434946
0.040247
0.0372939
0.0346322
0.032245
0.0301119
0.0282108
0.0265154
0.0250013
0.0236435
0.0224325
0.0213686
0.0204587
0.0197127
0.0191394
0.0187423
0.0185161
0.018443
0.0185022
0.0186851
0.0189783
0.0193685
0.0198506