/*--------------------------------*- C++ -*----------------------------------*\
| =========                 |                                                 |
| \\      /  F ield         | OpenFOAM: The Open Source CFD Toolbox           |
|  \\    /   O peration     | Version:  v2012                                 |
|   \\  /    A nd           | Website:  www.openfoam.com                      |
|    \\/     M anipulation  |                                                 |
\*---------------------------------------------------------------------------*/
FoamFile
{
    version     2.0;
    format      ascii;
    class       volScalarField;
    location    "300/air";
    object      GLeaf;
}
// * * * * * * * * * * * * * * * * * * * * * * * * * * * * * * * * * * * * * //

dimensions      [1 0 -3 0 0 0 0];


internalField   nonuniform List<scalar> 
287104
(
759.041
786.253
788.801
790.123
791.132
791.565
791.708
791.967
792.45
792.954
793.241
793.231
792.989
792.608
792.133
791.571
790.921
790.203
789.442
788.653
787.842
787.009
786.152
785.275
784.383
783.477
782.561
781.636
780.701
779.759
778.812
777.862
776.913
775.962
775.004
774.038
773.085
772.152
771.216
770.269
769.323
768.372
767.44
766.544
765.649
764.752
763.865
762.981
762.098
761.216
760.341
759.484
758.652
757.848
757.067
756.298
755.53
754.756
753.974
753.188
752.405
751.628
750.861
750.106
749.367
748.648
747.954
747.29
746.656
746.043
745.434
744.814
744.185
743.587
743.089
742.762
742.635
742.694
742.928
743.386
744.144
745.151
746.118
746.626
746.417
745.62
744.795
745.13
747.894
736.325
769.935
799.987
802.395
803.407
804.093
804.177
803.99
803.964
804.194
804.453
804.489
804.22
803.719
803.083
802.359
801.549
800.652
799.689
798.684
797.655
796.607
795.54
794.454
793.35
792.233
791.105
789.968
788.825
787.675
786.522
785.366
784.209
783.053
781.894
780.719
779.526
778.361
777.254
776.142
774.998
773.852
772.686
771.55
770.491
769.421
768.333
767.267
766.21
765.159
764.113
763.071
762.039
761.025
760.033
759.065
758.117
757.182
756.25
755.318
754.385
753.455
752.53
751.614
750.711
749.823
748.956
748.116
747.307
746.528
745.768
745.008
744.23
743.438
742.675
742.021
741.559
741.331
741.328
741.536
741.995
742.765
743.779
744.737
745.211
744.953
744.109
743.273
743.84
747.61
736.621
757.58
786.845
788.894
789.651
790.146
790.067
789.734
789.577
789.687
789.837
789.77
789.404
788.811
788.088
787.28
786.39
785.418
784.382
783.309
782.215
781.105
779.979
778.836
777.678
776.508
775.33
774.144
772.952
771.756
770.557
769.358
768.159
766.962
765.761
764.538
763.29
762.077
760.95
759.817
758.636
757.452
756.238
755.06
753.989
752.902
751.779
750.682
749.597
748.523
747.458
746.4
745.353
744.319
743.305
742.311
741.338
740.38
739.43
738.484
737.541
736.601
735.669
734.747
733.839
732.949
732.081
731.242
730.435
729.655
728.892
728.126
727.339
726.54
725.775
725.129
724.686
724.491
724.531
724.791
725.306
726.13
727.195
728.196
728.713
728.498
727.684
726.844
727.466
731.607
721.432
745.376
773.849
775.721
776.351
776.735
776.562
776.148
775.922
775.971
776.068
775.952
775.546
774.917
774.161
773.323
772.404
771.406
770.347
769.251
768.137
767.009
765.866
764.708
763.536
762.355
761.164
759.967
758.763
757.555
756.345
755.135
753.925
752.717
751.506
750.268
748.994
747.758
746.633
745.501
744.307
743.111
741.878
740.679
739.614
738.53
737.393
736.286
735.193
734.114
733.046
731.987
730.936
729.896
728.87
727.863
726.876
725.906
724.948
723.997
723.05
722.107
721.171
720.246
719.335
718.443
717.574
716.73
715.914
715.121
714.339
713.551
712.745
711.932
711.164
710.526
710.103
709.934
710.002
710.29
710.829
711.672
712.744
713.738
714.228
713.968
713.081
712.145
712.691
716.883
707.127
734.025
761.885
763.671
764.233
764.546
764.305
763.834
763.561
763.572
763.634
763.489
763.063
762.419
761.65
760.8
759.869
758.86
757.791
756.688
755.567
754.434
753.287
752.127
750.953
749.771
748.582
747.386
746.185
744.979
743.769
742.56
741.352
740.146
738.938
737.707
736.435
735.191
734.064
732.937
731.745
730.556
729.333
728.136
727.076
726.005
724.874
723.772
722.686
721.616
720.561
719.516
718.479
717.45
716.434
715.435
714.455
713.492
712.543
711.603
710.669
709.739
708.817
707.904
707.006
706.126
705.264
704.423
703.602
702.797
702
701.199
700.39
699.587
698.843
698.24
697.856
697.721
697.816
698.116
698.656
699.487
700.525
701.452
701.833
701.423
700.38
699.316
699.748
703.819
694.257
723.113
750.454
752.188
752.703
752.96
752.666
752.151
751.848
751.839
751.885
751.739
751.306
750.66
749.889
749.034
748.097
747.083
746.01
744.905
743.784
742.652
741.507
740.348
739.177
737.998
736.813
735.625
734.432
733.235
732.034
730.832
729.631
728.432
727.234
726.026
724.787
723.553
722.405
721.268
720.088
718.921
717.744
716.576
715.501
714.436
713.328
712.246
711.182
710.137
709.107
708.09
707.082
706.084
705.099
704.132
703.183
702.253
701.336
700.43
699.532
698.64
697.757
696.885
696.025
695.18
694.348
693.531
692.728
691.94
691.166
690.4
689.642
688.911
688.255
687.75
687.464
687.418
687.586
687.943
688.522
689.373
690.411
691.308
691.62
691.119
690.016
688.967
689.414
693.304
683.639
712.436
739.296
740.988
741.46
741.659
741.302
740.733
740.394
740.371
740.418
740.312
739.882
739.238
738.466
737.609
736.67
735.654
734.582
733.478
732.36
731.232
730.092
728.938
727.77
726.595
725.415
724.235
723.056
721.876
720.693
719.509
718.326
717.143
715.968
714.811
713.658
712.474
711.286
710.126
708.988
707.881
706.819
705.742
704.643
703.601
702.586
701.598
700.641
699.711
698.803
697.913
697.041
696.188
695.354
694.54
693.745
692.966
692.201
691.447
690.701
689.963
689.233
688.513
687.802
687.099
686.404
685.72
685.053
684.41
683.794
683.205
682.643
682.124
681.692
681.42
681.37
681.557
681.945
682.504
683.265
684.266
685.458
686.519
687.007
686.705
685.859
685.147
685.866
689.467
678.568
701.916
728.31
729.965
730.4
730.542
730.11
729.453
729.031
728.944
728.954
728.869
728.402
727.734
726.962
726.114
725.19
724.193
723.141
722.059
720.963
719.857
718.738
717.602
716.45
715.286
714.115
712.947
711.786
710.632
709.483
708.338
707.196
706.056
704.954
703.937
703.012
702.023
700.877
699.79
698.861
698.002
697.298
696.569
695.607
694.76
694.055
693.359
692.698
692.065
691.466
690.905
690.385
689.907
689.471
689.071
688.705
688.371
688.069
687.798
687.557
687.343
687.155
686.988
686.839
686.706
686.592
686.506
686.46
686.467
686.532
686.653
686.82
687.042
687.359
687.838
688.543
689.487
690.625
691.917
693.384
695.043
696.852
698.474
699.47
699.636
699.223
698.873
699.649
701.91
686.121
691.532
717.463
719.089
719.5
719.603
719.107
718.35
717.787
717.512
717.26
716.602
715.802
714.973
714.16
713.321
712.43
711.477
710.474
709.44
708.389
707.324
706.24
705.134
704.006
702.873
701.765
700.688
699.651
698.659
697.71
696.801
695.925
695.071
694.262
693.605
693.163
692.61
691.639
690.743
690.199
689.76
689.626
689.459
688.714
688.163
687.957
687.744
687.584
687.462
687.375
687.327
687.326
687.371
687.453
687.562
687.692
687.844
688.02
688.22
688.441
688.678
688.926
689.178
689.431
689.689
689.963
690.27
690.629
691.053
691.542
692.085
692.663
693.277
693.964
694.792
695.829
697.094
698.547
700.152
701.947
704.041
706.236
708.184
709.474
709.947
709.887
709.955
711.133
713.214
694.622
681.286
706.756
708.352
708.748
708.834
708.311
707.495
706.804
706.219
705.028
699.379
696.101
693.966
692.472
691.277
690.217
689.205
688.202
687.197
686.182
685.148
684.086
682.987
681.85
680.701
679.56
678.43
677.323
676.258
675.244
674.286
673.379
672.497
671.589
670.847
670.425
669.796
668.325
666.907
666.108
665.449
665.3
665.143
663.934
663.004
662.695
662.332
662.021
661.747
661.525
661.373
661.299
661.298
661.353
661.451
661.59
661.772
662.003
662.28
662.599
662.951
663.326
663.721
664.14
664.593
665.099
665.676
666.339
667.092
667.923
668.808
669.72
670.657
671.649
672.765
674.068
675.578
677.261
679.126
681.406
685.457
689.436
692.847
695.312
696.748
697.528
698.414
700.457
703.304
685.296
671.185
696.196
697.761
698.139
698.213
697.696
696.908
696.247
695.338
690.515
640.355
624.1
617.96
615.242
613.622
612.292
610.962
609.551
608.063
606.528
604.976
603.436
601.93
600.478
599.093
597.777
596.535
595.373
594.304
593.335
592.453
591.625
590.797
590.009
589.495
589.503
589.272
587.72
586.147
585.448
584.832
584.865
584.857
583.11
581.633
581.043
580.291
579.546
578.804
578.097
577.448
576.859
576.312
575.79
575.289
574.816
574.383
573.996
573.657
573.361
573.105
572.888
572.718
572.61
572.584
572.658
572.846
573.154
573.574
574.086
574.665
575.288
575.951
576.679
577.517
578.506
579.639
581.057
582.987
587.634
609.384
627.296
640.959
650.97
658.035
663.137
667.557
672.874
679.232
665.775
661.235
685.791
687.326
687.683
687.74
687.218
686.443
685.803
684.858
679.637
627.242
610.413
604.338
601.886
600.577
599.549
598.486
597.299
595.992
594.597
593.148
591.678
590.217
588.794
587.431
586.135
584.9
583.724
582.618
581.605
580.697
579.875
579.075
578.289
577.839
578.132
578.172
576.316
574.37
573.692
573.103
573.42
573.783
571.636
569.773
569.178
568.321
567.444
566.552
565.68
564.835
563.992
563.131
562.23
561.293
560.331
559.351
558.355
557.339
556.3
555.245
554.189
553.156
552.177
551.281
550.488
549.81
549.249
548.8
548.452
548.189
548.001
547.893
547.891
548.042
548.384
548.912
549.623
550.645
553.405
570.62
585.964
598.528
608.436
616.061
622.156
627.955
635.397
645.703
639.746
651.438
675.546
677.055
677.393
677.432
676.898
676.114
675.469
674.521
669.316
617.593
600.947
594.953
592.547
591.272
590.278
589.252
588.106
586.843
585.496
584.096
582.676
581.269
579.912
578.636
577.455
576.351
575.291
574.263
573.286
572.398
571.616
570.891
570.2
569.926
570.644
571.141
569.114
566.895
566.386
565.971
566.747
567.75
565.431
563.409
563.132
562.551
562.002
561.503
561.077
560.699
560.322
559.902
559.443
558.959
558.459
557.933
557.367
556.75
556.08
555.366
554.624
553.874
553.129
552.392
551.655
550.903
550.117
549.281
548.375
547.378
546.273
545.054
543.742
542.388
541.048
539.752
538.525
537.5
537.913
550.341
561.022
569.531
576.213
581.505
586.109
591.199
598.922
611.52
611.969
641.791
665.461
666.947
667.271
667.294
666.748
665.957
665.308
664.372
659.255
608.468
592.112
586.214
583.839
582.577
581.592
580.579
579.449
578.206
576.88
575.503
574.102
572.709
571.368
570.128
569.02
568.025
567.078
566.114
565.118
564.142
563.255
562.462
561.747
561.536
562.571
563.458
561.171
558.539
558.06
557.659
558.709
560.217
557.55
555.127
554.936
554.406
553.971
553.637
553.384
553.138
552.848
552.517
552.201
551.942
551.728
551.532
551.332
551.125
550.923
550.75
550.627
550.571
550.581
550.641
550.731
550.827
550.908
550.959
550.957
550.878
550.687
550.364
549.913
549.373
548.847
548.392
548.006
547.801
549.253
562.74
573.033
580.525
585.937
589.794
592.742
595.808
601.031
610.135
605.644
632.289
655.529
657.001
657.317
657.33
656.775
655.976
655.321
654.391
649.359
599.459
583.383
577.579
575.236
573.989
573.017
572.017
570.904
569.68
568.376
567.021
565.639
564.257
562.922
561.702
560.659
559.794
559.021
558.204
557.25
556.183
555.119
554.162
553.345
553.135
554.43
555.701
553.177
550.112
549.622
549.186
550.423
552.397
549.377
546.491
546.328
545.835
545.518
545.327
545.153
544.877
544.477
544.033
543.633
543.305
543.02
542.74
542.452
542.184
541.984
541.866
541.838
541.893
542.012
542.172
542.359
542.565
542.787
543.014
543.225
543.38
543.442
543.396
543.268
543.132
543.073
543.15
543.417
544.081
546.921
562.447
574.826
584.181
591.195
596.404
600.479
604.506
610.252
618.317
609.274
622.925
645.74
647.203
647.522
647.539
646.989
646.19
645.526
644.593
639.63
590.551
574.737
569.023
566.716
565.491
564.54
563.562
562.471
561.271
559.993
558.666
557.308
555.939
554.602
553.378
552.368
551.623
551.063
550.485
549.681
548.578
547.305
546.087
545.065
544.769
546.233
547.853
545.132
541.643
541.119
540.634
541.991
544.393
541.075
537.745
537.622
537.243
537.129
537.107
536.948
536.521
535.9
535.271
534.766
534.386
534.062
533.746
533.441
533.182
532.997
532.894
532.858
532.865
532.889
532.914
532.932
532.939
532.928
532.877
532.749
532.499
532.095
531.533
530.923
530.355
529.934
529.743
529.844
530.45
533.31
548.314
560.309
569.372
576.082
580.913
584.56
588.181
593.49
601.148
593.587
613.696
636.088
637.543
637.87
637.906
637.383
636.608
635.954
635.019
630.111
581.787
566.22
560.594
558.325
557.127
556.2
555.248
554.183
553.008
551.756
550.455
549.123
547.769
546.424
545.169
544.144
543.466
543.107
542.832
542.3
541.277
539.825
538.275
536.924
536.406
537.888
539.754
536.85
532.939
532.356
531.828
533.251
536.037
532.501
528.799
528.77
528.619
528.789
528.915
528.652
527.933
527.001
526.166
525.566
525.147
524.8
524.475
524.187
523.969
523.827
523.738
523.67
523.596
523.503
523.386
523.244
523.067
522.829
522.491
522.01
521.351
520.508
519.516
518.466
517.487
516.707
516.207
516.027
516.281
518.048
530.977
541.606
549.586
555.314
559.191
561.947
564.77
569.478
577.631
573.791
604.609
626.577
628.019
628.349
628.405
627.928
627.215
626.62
625.732
620.91
573.325
558.015
552.484
550.247
549.062
548.144
547.199
546.14
544.971
543.725
542.432
541.111
539.763
538.401
537.091
535.991
535.292
535.059
535.084
534.923
534.135
532.62
530.74
528.958
528.059
529.369
531.341
528.264
523.954
523.309
522.777
524.251
527.394
523.762
519.842
520.038
520.272
520.796
521.011
520.518
519.422
518.192
517.238
516.661
516.326
516.082
515.875
515.721
515.628
515.574
515.52
515.438
515.321
515.171
514.986
514.747
514.422
513.967
513.342
512.524
511.515
510.347
509.091
507.855
506.768
505.945
505.45
505.305
505.601
507.379
520.074
530.668
538.746
544.614
548.731
551.858
555.096
560.244
569.304
567.174
595.673
617.22
618.643
618.963
619.024
618.583
617.947
617.467
616.74
612.184
565.682
550.759
545.35
543.118
541.901
540.938
539.943
538.832
537.61
536.315
534.981
533.634
532.272
530.89
529.525
528.323
527.527
527.317
527.586
527.854
527.479
526.112
524.029
521.803
520.397
521.366
523.342
520.148
515.506
514.789
514.243
515.693
519.101
515.447
511.451
511.987
512.695
513.527
513.67
512.798
511.298
509.877
508.986
508.622
508.544
508.559
508.601
508.67
508.755
508.828
508.866
508.868
508.844
508.795
508.694
508.497
508.153
507.627
506.911
506.029
505.031
503.982
502.967
502.087
501.446
501.123
501.14
501.482
502.217
504.478
518.664
530.861
540.501
547.859
553.378
557.743
561.893
567.435
575.875
570.619
586.888
608.02
609.422
609.725
609.772
609.335
608.743
608.374
607.92
604.158
561.469
547.58
542.29
539.876
538.426
537.259
536.121
534.945
533.743
532.548
531.389
530.276
529.19
528.087
526.947
525.865
525.095
524.925
525.41
526.144
526.359
525.419
523.382
520.809
518.847
519.388
521.383
518.201
513.308
512.398
511.587
512.64
515.936
512.031
507.769
508.428
509.275
509.903
509.404
507.699
505.557
503.885
503.075
502.953
503.157
503.449
503.756
504.074
504.395
504.709
505.019
505.328
505.628
505.882
506.027
506.003
505.778
505.358
504.793
504.155
503.522
502.968
502.558
502.363
502.447
502.847
503.549
504.52
505.873
509.398
526.318
540.164
550.723
558.564
564.26
568.493
572.115
576.465
582.199
571.879
578.233
598.955
600.342
600.629
600.656
600.194
599.569
599.173
599.01
598.457
594.817
592.991
592.034
591.366
590.779
590.176
589.506
588.76
587.956
587.111
586.238
585.339
584.39
583.339
582.134
580.823
579.661
579.049
579.255
580.058
580.658
580.122
578.171
575.215
572.589
572.745
575.088
572.199
567.24
566.272
565.166
565.791
569.163
565.099
560.644
561.642
562.695
563.022
561.757
559.239
556.657
555.019
554.521
554.735
555.165
555.558
555.876
556.163
556.457
556.785
557.155
557.544
557.9
558.148
558.223
558.098
557.799
557.398
556.987
556.652
556.454
556.427
556.593
556.983
557.638
558.585
559.805
561.238
562.859
564.845
568.216
571.715
574.953
577.605
579.504
580.81
582.042
584.188
587.325
573.619
569.673
589.988
591.36
591.635
591.646
591.168
590.52
590.102
589.981
589.889
589.52
588.974
588.341
587.654
586.926
586.147
585.307
584.419
583.507
582.592
581.688
580.8
579.91
578.964
577.873
576.611
575.349
574.5
574.495
575.366
576.444
576.629
575.276
572.492
569.668
569.791
572.826
570.647
565.983
564.87
563.037
562.671
565.797
561.794
557.427
558.904
560.096
559.96
557.959
554.977
552.483
551.335
551.373
551.92
552.432
552.741
552.919
553.083
553.305
553.596
553.922
554.205
554.359
554.32
554.075
553.672
553.202
552.774
552.483
552.388
552.506
552.823
553.322
554.004
554.891
556.005
557.334
558.834
560.488
562.374
564.619
567.118
569.568
571.556
572.833
573.536
574.207
575.772
578.301
564.811
561.172
581.08
582.437
582.699
582.696
582.206
581.553
581.134
581.025
581.004
580.918
580.523
579.939
579.262
578.532
577.744
576.894
575.997
575.077
574.155
573.241
572.348
571.475
570.585
569.583
568.376
567.024
565.866
565.424
565.996
567.171
567.852
567.102
564.677
561.919
562.234
566.104
564.713
560.349
558.938
555.947
554.063
556.728
552.797
548.31
549.802
550.47
549.3
546.291
542.828
540.416
539.525
539.58
539.777
539.704
539.376
538.989
538.684
538.486
538.332
538.119
537.748
537.159
536.36
535.423
534.457
533.577
532.875
532.402
532.167
532.137
532.265
532.512
532.871
533.367
534.033
534.873
535.864
537.002
538.353
539.983
541.876
543.719
545.066
545.67
545.728
545.818
546.879
549.406
539.111
552.71
572.211
573.554
573.802
573.784
573.282
572.621
572.196
572.083
572.06
571.925
571.532
570.962
570.304
569.595
568.828
567.998
567.117
566.211
565.297
564.386
563.491
562.631
561.807
560.95
559.929
558.686
557.405
556.582
556.705
557.69
558.61
558.377
556.44
553.998
554.66
559.273
558.575
554.853
553.15
549.003
545.521
547.441
544.034
539.696
541.265
541.515
539.707
536.437
533.387
531.756
531.471
531.666
531.624
531.207
530.643
530.161
529.815
529.513
529.114
528.51
527.663
526.603
525.422
524.249
523.193
522.331
521.696
521.282
521.053
520.953
520.925
520.932
520.979
521.106
521.363
521.774
522.329
523.037
523.961
525.165
526.595
527.928
528.737
528.831
528.458
528.209
529.108
532.259
524.486
544.292
563.387
564.718
564.952
564.92
564.407
563.737
563.306
563.186
563.157
562.988
562.589
562.027
561.387
560.701
559.958
559.154
558.299
557.416
556.52
555.615
554.712
553.846
553.059
552.34
551.578
550.634
549.495
548.507
548.205
548.795
549.647
549.67
548.081
545.879
546.71
551.682
551.466
547.393
545.534
540.664
535.845
537.919
535.457
531.566
533.409
533.628
531.832
529.09
527.041
526.384
526.6
526.839
526.743
526.481
526.336
526.384
526.491
526.458
526.153
525.556
524.742
523.821
522.907
522.113
521.487
521.04
520.751
520.581
520.484
520.41
520.314
520.173
520.009
519.885
519.869
519.997
520.261
520.664
521.263
522.128
523.196
524.171
524.66
524.497
523.901
523.41
524.087
527.065
518.779
535.972
554.664
555.983
556.206
556.16
555.638
554.96
554.523
554.397
554.364
554.182
553.783
553.228
552.6
551.93
551.208
550.427
549.599
548.743
547.871
546.982
546.075
545.183
544.374
543.711
543.165
542.606
541.865
541.054
540.579
540.804
541.426
541.465
539.946
537.614
538.133
543.042
543.392
544.514
542.882
538.065
532.373
529.006
527.796
524.916
527.719
528.79
527.957
526.506
525.78
525.971
526.437
526.674
526.73
526.892
527.263
527.678
527.883
527.726
527.219
526.489
525.699
524.968
524.359
523.918
523.63
523.46
523.369
523.321
523.277
523.2
523.062
522.856
522.612
522.4
522.293
522.332
522.516
522.839
523.359
524.171
525.232
526.269
526.911
526.968
526.597
526.286
527.048
529.73
519.587
527.875
546.173
547.482
547.693
547.636
547.104
546.421
545.98
545.85
545.814
545.63
545.231
544.681
544.061
543.403
542.699
541.94
541.139
540.313
539.475
538.619
537.731
536.815
535.923
535.167
534.652
534.362
534.107
533.778
533.514
533.636
534.096
534.136
532.612
529.889
529.584
534.075
534.917
521.915
520.172
515.683
509.753
519.951
520.01
518.037
521.729
523.473
523.245
522.397
522.025
522.08
522.148
522.162
522.359
522.85
523.444
523.83
523.823
523.45
522.882
522.311
521.875
521.609
521.485
521.493
521.585
521.724
521.879
522.029
522.15
522.213
522.195
522.099
521.971
521.89
521.932
522.129
522.468
522.954
523.656
524.654
525.919
527.183
528.043
528.244
527.889
527.48
528.054
530.154
518.287
520.234
538.158
539.457
539.655
539.584
539.044
538.354
537.908
537.774
537.734
537.55
537.152
536.606
535.993
535.346
534.657
533.92
533.144
532.35
531.55
530.742
529.901
528.98
527.967
526.973
526.244
525.926
525.979
526.199
526.434
526.768
527.268
527.555
526.459
523.751
522.483
526.326
529.014
565.585
561.869
555.353
547.411
508.091
508.346
507.53
512.323
514.594
514.791
514.342
514.171
514.26
514.458
514.875
515.599
516.446
517.083
517.296
517.12
516.756
516.42
516.246
516.274
516.45
516.689
516.981
517.287
517.587
517.864
518.105
518.298
518.424
518.472
518.448
518.407
518.435
518.594
518.908
519.364
519.967
520.799
521.965
523.432
524.899
525.913
526.178
525.807
525.355
525.82
527.441
514.457
513.38
530.968
532.258
532.445
532.362
531.811
531.113
530.658
530.516
530.466
530.275
529.871
529.322
528.711
528.071
527.395
526.677
525.93
525.171
524.416
523.668
522.892
521.999
520.898
519.651
518.584
517.955
517.947
518.44
519.117
519.745
520.375
521.17
521.319
519.962
518.652
522.347
523.038
478.652
470.65
465.56
462.469
497.502
501.23
501.595
506.828
508.657
508.733
508.504
508.619
508.991
509.552
510.327
511.189
511.858
512.132
512.036
511.773
511.564
511.523
511.677
511.979
512.341
512.68
513.017
513.335
513.626
513.883
514.099
514.264
514.368
514.413
514.417
514.425
514.511
514.734
515.114
515.635
516.307
517.212
518.449
519.967
521.439
522.391
522.541
522.054
521.519
521.863
523.171
509.725
507.686
524.998
526.287
526.471
526.386
525.837
525.141
524.686
524.54
524.482
524.278
523.858
523.291
522.661
522.005
521.32
520.602
519.866
519.131
518.416
517.719
517.001
516.166
515.105
513.83
512.597
511.639
511.267
511.556
512.241
512.903
513.517
514.812
516.736
518.012
517.942
521.319
514.187
250.802
244.721
245.805
252.347
495.475
503.583
502.625
505.691
505.216
504.49
504.439
504.993
505.747
506.541
507.318
507.946
508.297
508.376
508.332
508.34
508.498
508.796
509.177
509.594
509.987
510.292
510.553
510.756
510.9
510.989
511.028
511.027
510.988
510.912
510.82
510.755
510.784
510.961
511.304
511.799
512.452
513.336
514.541
516.003
517.392
518.25
518.321
517.796
517.252
517.535
518.651
505.035
503.457
520.564
521.86
522.055
521.99
521.471
520.813
520.399
520.293
520.269
520.09
519.681
519.108
518.458
517.767
517.037
516.272
515.492
514.727
513.993
513.278
512.544
511.76
510.927
510.041
509.062
508.053
507.267
506.942
507.09
507.421
507.871
509.516
513.134
517.285
519.123
523.166
509.839
67.1892
63.6513
70.5829
85.3871
499.247
509.204
504.824
504.636
501.786
500.645
500.882
501.561
502.149
502.649
503.163
503.696
504.214
504.719
505.254
505.848
506.483
507.098
507.653
508.137
508.516
508.733
508.845
508.848
508.76
508.609
508.424
508.23
508.033
507.835
507.646
507.503
507.463
507.579
507.864
508.301
508.89
509.7
510.816
512.175
513.46
514.232
514.259
513.736
513.207
513.47
514.514
500.949
500.813
517.78
519.077
519.281
519.241
518.766
518.175
517.848
517.846
517.938
517.876
517.576
517.095
516.508
515.848
515.113
514.309
513.468
512.627
511.8
510.959
510.087
509.306
508.865
508.751
508.378
507.592
506.424
505.178
504.332
504.09
504.41
506.404
511.361
517.679
520.924
525.919
510.172
-4.24299
-6.29685
4.10164
23.2733
507.214
515.557
506.944
504.151
499.834
498.39
498.2
498.053
497.798
497.829
498.398
499.429
500.696
501.991
503.194
504.266
505.166
505.889
506.421
506.798
507.004
506.989
506.831
506.555
506.215
505.867
505.553
505.289
505.061
504.848
504.644
504.476
504.399
504.468
504.701
505.082
505.614
506.364
507.422
508.735
509.995
510.776
510.847
510.383
509.901
510.199
511.297
497.939
499.624
516.505
517.78
517.96
517.904
517.429
516.861
516.588
516.673
516.889
516.983
516.865
516.579
516.188
515.708
515.123
514.433
513.664
512.854
512.008
511.081
510.098
509.396
509.52
510.402
510.729
510.115
508.432
505.907
503.626
502.677
502.961
506.489
512.678
520.767
524.891
530.781
512.325
-24.5717
-31.8475
-20.8277
2.72053
522.266
528.754
515.089
509.576
503.029
499.743
497.579
495.79
494.721
494.811
495.984
497.762
499.618
501.233
502.518
503.499
503.315
503.767
503.971
503.977
503.766
503.311
502.726
502.077
501.452
500.93
500.562
500.342
500.19
500.027
499.823
499.592
499.412
499.407
499.677
500.173
500.86
501.786
503.025
504.52
505.967
506.937
507.193
506.895
506.564
507.033
508.393
495.521
499.519
516.367
517.606
517.734
517.612
517.06
516.411
516.064
516.093
516.281
516.388
516.33
516.152
515.915
515.627
515.26
514.801
514.265
513.677
513.023
512.249
511.441
511.137
512.11
514.153
515.272
515.163
512.956
508.989
504.902
502.595
502.537
505.952
512.791
522.612
528.576
538.317
521.201
-13.1766
-25.1815
-18.7435
3.96492
537.144
545.518
526.439
518.334
508.994
503.369
499.359
496.601
495.388
495.695
496.936
498.38
499.533
500.247
500.606
500.735
499.728
499.397
498.733
497.875
496.975
496.112
495.436
494.993
494.777
494.729
494.757
494.763
494.689
494.517
494.236
493.899
493.614
493.486
493.586
493.928
494.538
495.478
496.797
498.407
499.979
501.09
501.521
501.471
501.436
502.28
504.192
492.339
499.989
516.858
518.083
518.181
518.004
517.37
516.608
516.119
515.982
515.99
515.913
515.684
515.362
515.02
514.675
514.304
513.891
513.448
512.988
512.49
511.912
511.408
511.647
513.51
516.667
518.737
518.391
516.203
511.487
505.969
503.3
502.707
504.994
510.589
520.292
529.605
554.429
539.164
-19.9336
-37.5365
-32.7835
-5.75707
561.501
573.819
537.572
523.649
511.299
504.437
500.167
497.746
496.782
496.745
496.902
496.894
496.544
495.909
495.124
494.391
492.718
492.312
492.691
493.907
495.743
497.836
499.925
501.811
503.401
504.661
505.571
506.11
506.259
506.031
505.473
504.676
503.762
502.851
502.018
501.299
500.721
500.387
500.439
500.858
501.353
501.501
501.074
500.243
499.596
500.039
501.922
490.628
500.55
517.466
518.711
518.829
518.666
518.035
517.256
516.722
516.507
516.399
516.171
515.757
515.225
514.658
514.083
513.486
512.858
512.208
511.547
510.855
510.116
509.532
509.802
511.835
515.397
518.293
523.034
521.386
516.929
510.739
502.679
502.041
503.328
506.35
512.065
521.452
586.973
573.301
56.2842
35.0052
38.2737
67.1735
604.682
621.015
540.002
520.102
505.843
498.338
493.666
492.27
492.562
492.47
490.84
488.589
487.084
487.614
490.034
493.395
496.878
502.059
506.369
509.439
511.531
512.945
513.945
514.692
515.27
515.718
516.021
516.138
516.035
515.701
515.16
514.476
513.74
513.042
512.436
511.929
511.539
511.341
511.425
511.736
511.973
511.713
510.735
509.234
507.77
507.338
508.364
495.82
500.892
517.838
519.104
519.255
519.138
518.564
517.85
517.384
517.232
517.177
516.984
516.582
516.035
515.424
514.776
514.078
513.319
512.503
511.632
510.683
509.647
508.708
508.477
509.851
512.959
515.992
506.085
504.292
500.156
493.558
498.55
497.523
497.635
498.44
497.147
472.123
485.429
506.254
500.869
495.376
488.952
487.634
487.913
488.474
488.378
489.445
496.382
506.823
512.883
516.025
516.574
517.675
518.313
518.705
518.963
519.129
519.284
519.441
519.609
519.799
519.953
520.01
519.925
519.684
519.304
518.841
518.375
517.99
517.723
517.571
517.55
517.74
518.213
518.903
519.497
519.567
518.887
517.649
516.432
516.17
517.091
503.254
500.928
517.866
519.13
519.284
519.179
518.627
517.949
517.528
517.434
517.446
517.327
517.003
516.536
516.003
515.429
514.799
514.1
513.329
512.483
511.534
510.455
509.333
508.573
508.97
511.233
515.965
556.293
554.003
548.849
540.447
495.327
493.939
494.916
497.454
499.772
473.313
489.85
518.249
514.02
509.338
506.03
504.472
505.702
508.956
513.024
516.73
518.867
520.612
521.31
521.543
520.39
520.42
520.404
520.385
520.365
520.327
520.35
520.413
520.547
520.728
520.899
520.998
520.989
520.86
520.626
520.337
520.074
519.915
519.902
520.035
520.319
520.818
521.608
522.623
523.544
523.934
523.562
522.609
521.639
521.534
522.303
507.573
500.72
517.634
518.882
519.017
518.893
518.32
517.622
517.185
517.079
517.085
516.967
516.652
516.2
515.689
515.142
514.546
513.885
513.157
512.356
511.457
510.411
509.213
508.049
507.493
508.59
511.495
474.648
467.451
462.795
459.069
487.91
489.993
492.471
496.38
500.939
474.978
492.965
524.514
522.718
520.262
518.592
517.749
517.956
518.79
519.683
520.495
521.184
521.463
521.362
521.136
519.822
519.699
519.669
519.711
519.749
519.743
519.808
519.882
520.024
520.216
520.396
520.512
520.538
520.466
520.312
520.125
519.985
519.97
520.119
520.429
520.907
521.619
522.639
523.898
525.069
525.708
525.572
524.839
524.063
524.089
524.815
509.678
500.396
517.291
518.529
518.648
518.502
517.903
517.172
516.701
516.562
516.54
516.402
516.074
515.619
515.111
514.577
513.998
513.359
512.653
511.875
511
509.984
508.786
507.454
506.241
505.331
499.948
244.11
236.374
237.025
243.333
483.71
491.388
494.35
497.971
502.898
477.006
494.47
527.31
525.971
523.553
521.632
520.295
519.612
519.439
519.59
519.996
520.4
520.559
520.471
520.293
519.066
518.922
518.886
518.937
518.959
518.922
518.959
518.997
519.092
519.223
519.338
519.403
519.405
519.339
519.219
519.089
519.028
519.109
519.367
519.796
520.401
521.247
522.412
523.823
525.149
525.933
525.931
525.325
524.678
524.812
525.571
510.352
500.075
516.967
518.208
518.326
518.174
517.558
516.801
516.296
516.119
516.059
515.885
515.527
515.047
514.526
513.99
513.419
512.794
512.106
511.345
510.488
509.503
508.361
507.07
505.615
502.979
489.482
50.2583
43.0172
48.6119
63.9324
482.033
494.349
497.237
499.733
503.702
478.06
495.347
529.464
528.067
524.911
522.54
520.968
519.977
519.382
519.165
519.281
519.571
519.939
520.285
520.504
519.533
519.303
518.982
518.689
518.415
518.164
517.988
517.899
517.868
517.852
517.821
517.771
517.7
517.602
517.485
517.391
517.391
517.553
517.907
518.438
519.147
520.099
521.37
522.886
524.313
525.195
525.293
524.801
524.283
524.541
525.419
510.331
499.84
516.739
517.995
518.132
517.996
517.39
516.636
516.126
515.938
515.859
515.657
515.262
514.74
514.174
513.592
512.979
512.315
511.594
510.808
509.939
508.96
507.855
506.639
505.182
501.596
483.294
-34.0899
-41.5293
-33.748
-13.4164
481.715
495.839
497.874
498.58
500.414
475.586
495.264
531.612
529.996
525.853