/*--------------------------------*- C++ -*----------------------------------*\
| =========                 |                                                 |
| \\      /  F ield         | OpenFOAM: The Open Source CFD Toolbox           |
|  \\    /   O peration     | Version:  v2012                                 |
|   \\  /    A nd           | Website:  www.openfoam.com                      |
|    \\/     M anipulation  |                                                 |
\*---------------------------------------------------------------------------*/
FoamFile
{
    version     2.0;
    format      ascii;
    class       volScalarField;
    location    "300/air";
    object      ILambda_29_0;
}
// * * * * * * * * * * * * * * * * * * * * * * * * * * * * * * * * * * * * * //

dimensions      [1 0 -3 0 0 0 0];


internalField   nonuniform List<scalar> 
287104
(
211.931
220.87
221.236
222.463
223.661
224.616
225.439
226.227
227.013
227.77
228.46
229.067
229.603
230.085
230.527
230.934
231.311
231.66
231.986
232.294
232.585
232.861
233.123
233.372
233.609
233.836
234.053
234.262
234.462
234.655
234.841
235.021
235.195
235.365
235.529
235.688
235.844
235.996
236.145
236.29
236.432
236.571
236.709
236.845
236.979
237.111
237.241
237.369
237.494
237.618
237.74
237.861
237.982
238.102
238.222
238.341
238.458
238.573
238.684
238.791
238.895
238.997
239.097
239.195
239.294
239.394
239.495
239.598
239.704
239.809
239.914
240.014
240.111
240.21
240.323
240.463
240.643
240.862
241.109
241.368
241.629
241.887
242.136
242.36
242.545
242.7
242.856
243.065
243.473
244.923
211.179
219.938
220.27
221.446
222.596
223.507
224.288
225.037
225.785
226.506
227.162
227.737
228.241
228.694
229.108
229.489
229.84
230.164
230.466
230.75
231.018
231.271
231.511
231.738
231.955
232.161
232.358
232.546
232.727
232.901
233.068
233.229
233.385
233.535
233.68
233.821
233.958
234.093
234.226
234.353
234.478
234.599
234.719
234.839
234.956
235.071
235.185
235.297
235.407
235.516
235.622
235.727
235.831
235.935
236.038
236.14
236.242
236.341
236.437
236.531
236.622
236.71
236.797
236.882
236.968
237.054
237.142
237.232
237.324
237.416
237.507
237.594
237.678
237.764
237.863
237.99
238.155
238.361
238.594
238.839
239.086
239.331
239.566
239.776
239.948
240.088
240.227
240.428
240.867
242.462
210.472
219.089
219.413
220.569
221.697
222.589
223.353
224.087
224.82
225.528
226.17
226.734
227.227
227.67
228.075
228.447
228.789
229.104
229.398
229.674
229.935
230.181
230.414
230.634
230.844
231.043
231.234
231.416
231.591
231.758
231.919
232.074
232.224
232.368
232.507
232.64
232.771
232.901
233.028
233.15
233.268
233.383
233.496
233.61
233.723
233.832
233.939
234.045
234.15
234.253
234.354
234.453
234.551
234.649
234.745
234.841
234.936
235.029
235.12
235.208
235.293
235.376
235.457
235.537
235.617
235.697
235.779
235.863
235.948
236.034
236.118
236.199
236.276
236.355
236.447
236.566
236.725
236.922
237.147
237.385
237.625
237.863
238.091
238.294
238.459
238.592
238.725
238.924
239.369
240.94
209.773
218.253
218.572
219.709
220.817
221.693
222.443
223.164
223.885
224.582
225.214
225.769
226.254
226.689
227.087
227.452
227.788
228.098
228.387
228.658
228.913
229.155
229.383
229.599
229.805
230
230.186
230.365
230.535
230.699
230.856
231.008
231.154
231.294
231.429
231.558
231.685
231.812
231.935
232.053
232.168
232.279
232.388
232.5
232.609
232.714
232.818
232.921
233.023
233.122
233.221
233.317
233.412
233.506
233.599
233.691
233.782
233.872
233.96
234.045
234.128
234.208
234.287
234.364
234.441
234.519
234.599
234.68
234.762
234.846
234.927
235.005
235.08
235.156
235.246
235.363
235.519
235.714
235.936
236.172
236.41
236.647
236.875
237.078
237.242
237.375
237.508
237.708
238.155
239.703
209.085
217.428
217.743
218.861
219.951
220.811
221.547
222.255
222.965
223.651
224.274
224.819
225.297
225.725
226.116
226.475
226.806
227.11
227.394
227.66
227.912
228.149
228.373
228.586
228.787
228.979
229.162
229.336
229.504
229.664
229.818
229.966
230.109
230.246
230.378
230.504
230.627
230.75
230.87
230.985
231.097
231.204
231.31
231.418
231.524
231.626
231.727
231.827
231.925
232.022
232.117
232.211
232.302
232.393
232.482
232.571
232.659
232.746
232.831
232.913
232.993
233.071
233.147
233.222
233.297
233.372
233.449
233.527
233.607
233.688
233.767
233.843
233.915
233.99
234.077
234.193
234.347
234.54
234.761
234.996
235.234
235.471
235.7
235.902
236.067
236.2
236.335
236.535
236.975
238.5
208.408
216.617
216.927
218.028
219.099
219.944
220.667
221.363
222.062
222.737
223.35
223.886
224.356
224.777
225.162
225.516
225.84
226.14
226.419
226.682
226.929
227.162
227.383
227.592
227.79
227.978
228.158
228.329
228.493
228.65
228.801
228.946
229.086
229.22
229.349
229.473
229.592
229.711
229.826
229.937
230.046
230.151
230.254
230.357
230.458
230.556
230.653
230.748
230.842
230.934
231.025
231.114
231.202
231.288
231.373
231.457
231.54
231.621
231.702
231.78
231.855
231.929
232.001
232.071
232.141
232.212
232.285
232.359
232.434
232.51
232.584
232.655
232.723
232.792
232.875
232.986
233.134
233.322
233.538
233.767
234
234.233
234.456
234.652
234.809
234.934
235.061
235.248
235.657
237.11
207.742
215.818
216.124
217.208
218.262
219.091
219.802
220.486
221.174
221.84
222.442
222.968
223.43
223.845
224.224
224.572
224.892
225.187
225.462
225.72
225.964
226.194
226.411
226.616
226.811
226.996
227.172
227.34
227.5
227.653
227.8
227.942
228.078
228.209
228.335
228.457
228.572
228.683
228.79
228.895
228.998
229.1
229.198
229.292
229.384
229.475
229.564
229.651
229.736
229.82
229.901
229.981
230.059
230.136
230.211
230.285
230.357
230.429
230.498
230.566
230.631
230.694
230.755
230.815
230.874
230.934
230.996
231.059
231.123
231.187
231.248
231.306
231.36
231.416
231.484
231.579
231.713
231.885
232.085
232.298
232.515
232.731
232.936
233.113
233.249
233.353
233.458
233.615
233.96
235.237
207.086
215.032
215.334
216.401
217.437
218.253
218.95
219.623
220.3
220.952
221.571
222.096
222.548
222.953
223.324
223.666
223.979
224.269
224.54
224.794
225.035
225.262
225.477
225.68
225.872
226.054
226.227
226.391
226.547
226.696
226.838
226.974
227.105
227.23
227.351
227.469
227.578
227.674
227.766
227.86
227.952
228.045
228.134
228.209
228.284
228.361
228.435
228.508
228.578
228.646
228.712
228.776
228.838
228.898
228.956
229.012
229.066
229.118
229.168
229.215
229.26
229.302
229.342
229.38
229.417
229.454
229.492
229.531
229.571
229.61
229.648
229.681
229.711
229.742
229.786
229.857
229.965
230.112
230.286
230.475
230.66
230.845
231.023
231.175
231.288
231.373
231.463
231.604
231.892
232.915
206.442
214.259
214.557
215.607
216.626
217.427
218.112
218.774
219.437
220.064
220.69
221.183
221.597
221.975
222.331
222.668
222.985
223.284
223.567
223.836
224.092
224.334
224.563
224.779
224.981
225.171
225.348
225.513
225.668
225.813
225.951
226.081
226.205
226.322
226.435
226.548
226.65
226.727
226.8
226.879
226.958
227.044
227.124
227.178
227.232
227.293
227.352
227.406
227.458
227.508
227.555
227.601
227.645
227.687
227.728
227.766
227.801
227.835
227.867
227.897
227.924
227.949
227.972
227.994
228.014
228.035
228.056
228.079
228.102
228.126
228.147
228.166
228.18
228.197
228.227
228.283
228.378
228.512
228.674
228.857
229.024
229.194
229.358
229.497
229.598
229.673
229.756
229.89
230.137
230.938
205.808
213.498
213.792
214.825
215.828
216.615
217.288
217.936
218.579
219.147
218.463
218.377
218.633
219.003
219.429
219.882
220.337
220.781
221.206
221.61
221.987
222.337
222.659
222.952
223.216
223.454
223.667
223.858
224.03
224.187
224.333
224.47
224.601
224.722
224.838
224.957
225.062
225.131
225.193
225.271
225.351
225.443
225.531
225.577
225.622
225.683
225.739
225.791
225.838
225.882
225.923
225.963
225.999
226.032
226.062
226.088
226.11
226.129
226.145
226.157
226.166
226.171
226.174
226.173
226.171
226.168
226.165
226.162
226.158
226.154
226.148
226.137
226.123
226.11
226.108
226.133
226.193
226.288
226.409
226.551
227.097
227.608
228.002
228.292
228.49
228.626
228.753
228.925
229.208
230.009
205.184
212.749
213.039
214.056
215.042
215.815
216.476
217.112
217.727
218.179
210.047
208.004
208.31
209.185
210.211
211.251
212.241
213.151
213.974
214.706
215.348
215.902
216.372
216.765
217.085
217.343
217.546
217.705
217.829
217.928
218.01
218.082
218.147
218.208
218.272
218.35
218.422
218.453
218.48
218.535
218.599
218.685
218.774
218.812
218.852
218.919
218.984
219.046
219.104
219.16
219.213
219.262
219.307
219.347
219.38
219.407
219.427
219.441
219.449
219.451
219.445
219.433
219.414
219.389
219.357
219.32
219.276
219.228
219.175
219.115
219.049
218.975
218.894
218.81
218.731
218.668
218.626
218.599
218.564
218.508
221.411
223.844
225.533
226.685
227.449
227.948
228.307
228.645
229.094
230.116
204.57
212.012
212.298
213.299
214.269
215.028
215.677
216.301
216.898
217.303
209.298
207.273
207.562
208.424
209.444
210.483
211.476
212.394
213.227
213.97
214.624
215.189
215.669
216.068
216.394
216.653
216.854
217.006
217.12
217.205
217.272
217.328
217.378
217.428
217.49
217.581
217.674
217.716
217.756
217.843
217.947
218.087
218.241
218.326
218.415
218.549
218.684
218.821
218.96
219.104
219.251
219.4
219.549
219.696
219.841
219.984
220.125
220.263
220.398
220.529
220.654
220.773
220.885
220.99
221.087
221.175
221.254
221.323
221.381
221.427
221.459
221.476
221.476
221.465
221.45
221.443
221.452
221.474
221.498
221.555
223.883
225.822
227.169
228.092
228.7
229.091
229.375
229.688
230.225
231.549
203.966
211.287
211.569
212.554
213.508
214.254
214.892
215.505
216.091
216.482
208.599
206.597
206.876
207.722
208.725
209.748
210.726
211.632
212.454
213.188
213.833
214.389
214.86
215.249
215.563
215.81
215.999
216.136
216.232
216.297
216.341
216.373
216.401
216.429
216.471
216.549
216.632
216.645
216.65
216.714
216.794
216.918
217.06
217.111
217.161
217.27
217.378
217.489
217.604
217.724
217.846
217.969
218.092
218.215
218.339
218.464
218.591
218.721
218.853
218.989
219.128
219.271
219.418
219.57
219.728
219.891
220.06
220.235
220.416
220.602
220.79
220.979
221.167
221.358
221.556
221.772
222.012
222.274
222.548
222.871
225.121
226.941
228.187
229.038
229.609
229.991
230.286
230.645
231.321
233.01
203.372
210.574
210.852
211.822
212.759
213.492
214.118
214.72
215.297
215.681
207.926
205.955
206.228
207.058
208.045
209.052
210.016
210.908
211.718
212.441
213.077
213.624
214.087
214.469
214.777
215.02
215.206
215.341
215.434
215.492
215.527
215.549
215.566
215.585
215.622
215.702
215.79
215.79
215.776
215.831
215.904
216.027
216.177
216.21
216.239
216.339
216.439
216.542
216.649
216.759
216.867
216.971
217.07
217.165
217.256
217.344
217.428
217.51
217.59
217.667
217.743
217.819
217.895
217.972
218.049
218.129
218.21
218.295
218.382
218.473
218.566
218.662
218.761
218.867
218.984
219.121
219.285
219.482
219.705
219.961
222.152
223.912
225.097
225.908
226.482
226.923
227.336
227.856
228.684
230.473
202.788
209.872
210.146
211.1
212.022
212.742
213.356
213.949
214.517
214.895
207.269
205.329
205.597
206.414
207.385
208.375
209.324
210.202
210.999
211.711
212.337
212.876
213.33
213.705
214.007
214.246
214.431
214.568
214.663
214.721
214.75
214.762
214.771
214.783
214.816
214.901
214.999
214.993
214.964
215.017
215.088
215.215
215.378
215.404
215.42
215.522
215.626
215.737
215.853
215.969
216.079
216.181
216.279
216.374
216.47
216.565
216.658
216.748
216.834
216.915
216.992
217.065
217.135
217.203
217.269
217.333
217.395
217.455
217.514
217.569
217.619
217.664
217.703
217.739
217.781
217.84
217.923
218.029
218.142
218.238
220.342
221.985
223.065
223.787
224.277
224.627
224.942
225.349
226.026
227.506
202.213
209.18
209.451
210.39
211.297
212.003
212.606
213.189
213.748
214.121
206.622
204.715
204.979
205.783
206.738
207.713
208.646
209.511
210.295
210.996
211.612
212.142
212.588
212.955
213.25
213.485
213.669
213.811
213.912
213.974
214.002
214.008
214.007
214.011
214.04
214.129
214.238
214.228
214.188
214.239
214.31
214.444
214.625
214.65
214.659
214.768
214.885
215.012
215.144
215.27
215.383
215.485
215.584
215.684
215.788
215.893
215.995
216.093
216.189
216.283
216.374
216.463
216.551
216.637
216.721
216.805
216.888
216.97
217.051
217.131
217.208
217.28
217.347
217.409
217.477
217.561
217.669
217.802
217.943
218.074
220.104
221.691
222.734
223.432
223.903
224.238
224.535
224.914
225.554
227.004
201.647
208.5
208.767
209.691
210.582
211.276
211.868
212.44
212.991
213.359
205.984
204.111
204.373
205.165
206.105
207.065
207.984
208.835
209.607
210.297
210.903
211.424
211.863
212.222
212.509
212.737
212.919
213.064
213.174
213.247
213.28
213.283
213.272
213.266
213.288
213.377
213.493
213.479
213.424
213.472
213.545
213.686
213.888
213.919
213.928
214.05
214.187
214.337
214.486
214.619
214.732
214.834
214.936
215.045
215.161
215.277
215.391
215.502
215.611
215.719
215.827
215.933
216.04
216.146
216.253
216.36
216.467
216.576
216.685
216.794
216.903
217.008
217.111
217.216
217.331
217.467
217.635
217.834
218.058
218.337
220.425
222.063
223.14
223.862
224.354
224.706
225.017
225.408
226.067
227.663
201.091
207.831
208.094
209.004
209.88
210.56
211.141
211.704
212.247
212.612
205.335
203.488
203.749
204.531
205.46
206.406
207.312
208.15
208.909
209.586
210.179
210.688
211.114
211.46
211.734
211.947
212.117
212.256
212.369
212.449
212.489
212.488
212.464
212.44
212.443
212.517
212.623
212.595
212.516
212.553
212.626
212.774
212.999
213.044
213.063
213.206
213.371
213.547
213.712
213.846
213.952
214.048
214.149
214.262
214.38
214.497
214.61
214.721
214.83
214.939
215.05
215.161
215.273
215.387
215.503
215.621
215.741
215.865
215.991
216.119
216.247
216.374
216.499
216.627
216.766
216.928
217.119
217.342
217.588
217.891
219.993
221.67
222.808
223.589
224.129
224.519
224.853
225.252
225.926
227.566
200.545
207.174
207.433
208.329
209.189
209.857
210.427
210.98
211.517
211.89
204.678
202.842
203.1
203.878
204.796
205.729
206.615
207.429
208.158
208.798
209.349
209.812
210.189
210.484
210.706
210.869
210.992
211.093
211.18
211.247
211.277
211.263
211.215
211.156
211.12
211.155
211.232
211.178
211.07
211.092
211.163
211.32
211.571
211.645
211.697
211.886
212.105
212.329
212.526
212.677
212.792
212.897
213.009
213.127
213.244
213.35
213.446
213.533
213.615
213.694
213.772
213.848
213.924
214.001
214.079
214.157
214.237
214.318
214.399
214.481
214.559
214.633
214.702
214.768
214.84
214.927
215.035
215.165
215.305
215.472
217.642
219.41
220.622
221.451
222.014
222.399
222.7
223.033
223.586
224.909
200.008
206.528
206.784
207.665
208.511
209.167
209.726
210.271
210.808
211.216
205.047
203.544
203.809
204.516
205.335
206.15
206.907
207.58
208.161
208.65
209.05
209.368
209.611
209.789
209.911
209.991
210.048
210.102
210.163
210.226
210.268
210.267
210.224
210.156
210.099
210.116
210.19
210.138
210.027
210.05
210.122
210.275
210.531
210.614
210.685
210.917
211.189
211.461
211.691
211.869
212.014
212.156
212.305
212.451
212.58
212.683
212.76
212.817
212.859
212.888
212.909
212.923
212.933
212.941
212.948
212.955
212.962
212.969
212.977
212.984
212.988
212.987
212.982
212.974
212.973
212.987
213.024
213.081
213.144
213.191
215.344
217.116
218.345
219.191
219.764
220.152
220.445
220.746
221.197
222.245
199.48
205.892
206.145
207.011
207.843
208.486
209.034
209.572
210.116
210.611
210.979
211.3
211.632
211.963
212.284
212.588
212.874
213.14
213.388
213.621
213.84
214.045
214.236
214.411
214.567
214.706
214.839
214.982
215.149
215.336
215.513
215.642
215.707
215.718
215.725
215.822
216.01
216.037
215.974
216.038
216.106
216.216
216.412
216.367
216.292
216.415
216.57
216.694
216.751
216.75
216.739
216.759
216.816
216.891
216.964
217.026
217.077
217.122
217.163
217.2
217.233
217.263
217.289
217.312
217.332
217.351
217.369
217.388
217.406
217.425
217.443
217.457
217.469
217.483
217.509
217.561
217.649
217.774
217.929
218.111
218.329
218.555
218.764
218.935
219.058
219.145
219.233
219.378
219.657
220.436
198.958
205.263
205.513
206.366
207.183
207.814
208.352
208.881
209.424
209.949
210.41
210.818
211.183
211.516
211.824
212.108
212.37
212.611
212.835
213.045
213.244
213.433
213.613
213.78
213.932
214.067
214.192
214.323
214.48
214.668
214.864
215.023
215.115
215.139
215.154
215.282
215.547
215.637
215.626
215.703
215.717
215.748
215.88
215.789
215.684
215.813
215.966
216.063
216.08
216.051
216.033
216.062
216.13
216.211
216.285
216.347
216.401
216.45
216.498
216.542
216.584
216.622
216.657
216.688
216.717
216.743
216.768
216.791
216.814
216.837
216.857
216.873
216.885
216.899
216.925
216.976
217.063
217.187
217.339
217.508
217.69
217.874
218.047
218.191
218.293
218.363
218.434
218.556
218.801
219.563
198.44
204.64
204.886
205.725
206.528
207.147
207.674
208.194
208.731
209.256
209.731
210.146
210.509
210.837
211.139
211.417
211.672
211.907
212.126
212.332
212.527
212.713
212.891
213.059
213.215
213.355
213.479
213.602
213.745
213.923
214.122
214.3
214.414
214.457
214.498
214.689
215.062
215.23
215.276
215.338
215.238
215.136
215.187
215.066
214.947
215.092
215.248
215.324
215.321
215.293
215.301
215.363
215.46
215.561
215.648
215.723
215.792
215.857
215.92
215.98
216.035
216.087
216.135
216.179
216.219
216.257
216.292
216.326
216.359
216.39
216.419
216.444
216.465
216.488
216.522
216.583
216.679
216.813
216.975
217.152
217.337
217.525
217.704
217.857
217.968
218.048
218.127
218.254
218.525
219.446
197.926
204.019
204.262
205.088
205.877
206.484
207.001
207.512
208.041
208.56
209.032
209.444
209.804
210.127
210.425
210.699
210.951
211.183
211.4
211.603
211.795
211.978
212.153
212.322
212.483
212.63
212.762
212.884
213.014
213.174
213.362
213.543
213.67
213.73
213.806
214.072
214.548
214.791
214.902
214.919
214.661
214.377
214.317
214.186
214.065
214.219
214.358
214.4
214.372
214.345
214.369
214.446
214.543
214.633
214.709
214.775
214.838
214.9
214.959
215.014
215.066
215.114
215.16
215.203
215.243
215.282
215.321
215.359
215.398
215.437
215.475
215.511
215.545
215.581
215.632
215.708
215.822
215.973
216.153
216.349
216.553
216.761
216.961
217.135
217.267
217.367
217.464
217.609
217.913
218.915
197.414
203.403
203.643
204.455
205.23
205.826
206.333
206.835
207.355
207.867
208.333
208.739
209.095
209.414
209.707
209.978
210.227
210.457
210.672
210.874
211.064
211.245
211.417
211.585
211.749
211.908
212.055
212.187
212.316
212.463
212.636
212.81
212.939
213.007
213.104
213.418
213.954
214.25
214.388
214.34
213.913
213.402
213.187
213.03
212.887
213.012
213.099
213.079
213.008
212.961
212.969
213.013
213.061
213.095
213.119
213.141
213.166
213.192
213.218
213.242
213.268
213.295
213.326
213.359
213.397
213.439
213.486
213.537
213.594
213.655
213.719
213.783
213.847
213.915
213.998
214.108
214.256
214.441
214.652
214.879
215.112
215.348
215.576
215.778
215.937
216.06
216.178
216.343
216.666
217.626
196.91
202.796
203.033
203.831
204.593
205.176
205.674
206.167
206.679
207.184
207.643
208.044
208.394
208.71
208.999
209.267
209.513
209.742
209.955
210.156
210.346
210.524
210.694
210.858
211.022
211.187
211.351
211.504
211.647
211.795
211.96
212.128
212.254
212.318
212.405
212.711
213.246
213.572
213.857
213.661
212.974
212.1
211.357
211.042
210.782
210.789
210.758
210.632
210.482
210.379
210.33
210.306
210.284
210.265
210.26
210.275
210.307
210.352
210.406
210.468
210.539
210.619
210.706
210.8
210.9
211.005
211.113
211.226
211.342
211.459
211.575
211.689
211.801
211.914
212.038
212.184
212.363
212.576
212.814
213.064
213.318
213.57
213.808
214.013
214.17
214.286
214.394
214.546
214.836
215.64
196.421
202.206
202.44
203.226
203.974
204.546
205.034
205.518
206.023
206.52
206.974
207.369
207.714
208.025
208.311
208.576
208.82
209.046
209.259
209.459
209.649
209.828
209.995
210.154
210.31
210.471
210.64
210.813
210.982
211.15
211.325
211.497
211.63
211.693
211.752
212.004
212.503
212.824
212.343
211.49
210.135
208.65
207.869
207.37
207.001
206.953
206.914
206.831
206.767
206.763
206.815
206.891
206.982
207.092
207.228
207.384
207.55
207.716
207.881
208.044
208.208
208.372
208.535
208.695
208.854
209.011
209.166
209.318
209.467
209.613
209.754
209.887
210.014
210.138
210.269
210.42
210.599
210.807
211.035
211.273
211.513
211.751
211.976
212.167
212.308
212.404
212.49
212.614
212.852
213.498
195.962
201.652
201.882
202.656
203.392
203.954
204.432
204.908
205.405
205.896
206.343
206.733
207.075
207.382
207.665
207.927
208.169
208.393
208.605
208.805
208.996
209.176
209.343
209.495
209.635
209.78
209.937
210.115
210.31
210.509
210.712
210.902
211.061
211.155
211.219
211.415
211.879
212.105
213.38
211.186
208.731
206.841
203.377
202.831
202.81
203.104
203.399
203.655
203.913
204.186
204.459
204.719
204.972
205.23
205.492
205.749
205.992
206.217
206.427
206.626
206.816
206.999
207.175
207.342
207.502
207.656
207.804
207.945
208.08
208.208
208.33
208.443
208.547
208.646
208.749
208.87
209.019
209.197
209.396
209.605
209.819
210.033
210.235
210.403
210.522
210.597
210.662
210.765
210.973
211.522
195.551
201.157
201.385
202.148
202.872
203.425
203.895
204.364
204.854
205.338
205.78
206.165
206.503
206.807
207.087
207.347
207.587
207.811
208.022
208.223
208.415
208.598
208.765
208.91
209.034
209.161
209.296
209.465
209.672
209.896
210.124
210.335
210.538
210.719
210.876
211.07
211.502
211.429
204.014
199.945
197.816
196.651
199.252
199.991
200.391
201.061
201.671
202.216
202.713
203.157
203.54
203.877
204.189
204.49
204.776
205.038
205.273
205.483
205.675
205.853
206.02
206.178
206.325
206.461
206.588
206.706
206.816
206.919
207.014
207.102
207.183
207.256
207.321
207.385
207.457
207.548
207.67
207.822
207.997
208.184
208.379
208.577
208.765
208.923
209.032
209.1
209.159
209.252
209.439
209.924
195.214
200.75
200.976
201.73
202.446
202.991
203.454
203.917
204.402
204.881
205.319
205.7
206.034
206.335
206.613
206.87
207.109
207.332
207.543
207.745
207.94
208.124
208.292
208.437
208.562
208.687
208.813
208.973
209.173
209.396
209.62
209.831
210.082
210.398
210.734
210.985
211.383
211.008
189.015
184.33
183.178
182.504
197.237
199.472
199.72
200.31
200.885
201.462
202.015
202.506
202.933
203.319
203.681
204.016
204.318
204.583
204.812
205.015
205.199
205.369
205.526
205.672
205.806
205.926
206.034
206.129
206.212
206.285
206.348
206.402
206.448
206.487
206.519
206.55
206.591
206.654
206.748
206.874
207.025
207.191
207.365
207.544
207.716
207.859
207.958
208.017
208.07
208.155
208.328
208.774
194.966
200.452
200.676
201.425
202.134
202.675
203.135
203.595
204.077
204.554
204.99
205.369
205.701
206
206.277
206.533
206.77
206.992
207.202
207.404
207.598
207.781
207.953
208.116
208.278
208.432
208.584
208.749
208.927
209.114
209.293
209.478
209.765
210.228
210.767
211.1
211.479
210.813
178.052
173.06
172.689
172.384
196.196
199.446
199.495
199.948
200.412
200.941
201.476
201.962
202.404
202.826
203.23
203.611
203.956
204.263
204.533
204.776
205.003
205.208
205.395
205.566
205.717
205.848
205.959
206.05
206.122
206.177
206.217
206.244
206.258
206.261
206.255
206.247
206.248
206.272
206.328
206.418
206.535
206.67
206.818
206.973
207.124
207.25
207.333
207.38
207.42
207.494
207.653
208.076
194.815
200.27
200.493
201.238
201.944
202.482
202.941
203.401
203.884
204.363
204.8
205.182
205.516
205.818
206.096
206.353
206.591
206.813
207.023
207.224
207.414
207.594
207.776
207.987
208.23
208.448
208.655
208.833
208.961
209.075
209.181
209.322
209.649
210.232
210.908
211.248
211.586
210.806
174.162
169.125
169.112
169.041
196.994
200.511
200.229
200.419
200.633
200.979
201.38
201.771
202.162
202.574
202.999
203.417
203.81
204.171
204.502
204.811
205.09
205.356
205.599
205.82
206.02
206.193
206.342
206.464
206.559
206.629
206.674
206.695
206.693
206.668
206.624
206.569
206.517
206.484
206.483
206.517
206.582
206.668
206.771
206.887
207.002
207.096
207.151
207.173
207.192
207.247
207.392
207.8
194.751
200.192
200.414
201.156
201.86
202.397
202.855
203.315
203.8
204.281
204.722
205.108
205.448
205.756
206.041
206.304
206.549
206.777
206.992
207.194
207.381
207.561
207.77
208.06
208.425
208.728
208.998
209.166
209.189
209.182
209.203
209.292
209.83
210.468
211.14
211.322
211.565
210.974
173.972
169.049
169.252
169.453
202.34
205.673
204.341
203.668
203.144
202.919
202.874
202.924
203.073
203.324
203.649
204.005
204.36
204.7
205.028
205.357
205.485
205.766
206.041
206.303
206.556
206.795
207.013
207.205
207.366
207.493
207.587
207.648
207.676
207.667
207.623
207.545
207.45
207.358
207.285
207.244
207.236
207.254
207.292
207.347
207.406
207.448
207.455
207.433
207.414
207.436
207.559
207.959
194.749
200.189
200.411
201.152
201.854
202.389
202.845
203.303
203.786
204.265
204.706
205.094
205.437
205.75
206.04
206.312
206.565
206.804
207.029
207.239
207.429
207.619
207.872
208.263
208.764
209.161
209.501
209.629
209.496
209.31
209.205
209.227
209.658
210.153
210.588
210.495
210.886
210.394
174.106
169.24
169.545
170.05
205.677
209.827
208.22
207.355
206.626
206.156
205.795
205.499
205.318
205.271
205.32
205.416
205.531
205.663
205.828
206.05
206.126
206.398
206.705
207.033
207.366
207.687
207.983
208.242
208.454
208.611
208.711
208.753
208.74
208.678
208.58
208.461
208.341
208.241
208.175
208.149
208.155
208.18
208.216
208.256
208.287
208.289
208.25
208.177
208.108
208.087
208.181
208.583
194.78
200.227
200.448
201.19
201.892
202.426
202.88
203.335
203.814
204.29
204.726
205.109
205.449
205.758
206.048
206.32
206.577
206.821
207.054
207.27
207.468
207.672
207.967
208.443
209.049
209.533
209.907
209.991
209.705
209.295
209.01
208.887
209.068
209.173
209.092
208.866
210.207
210.026
173.636
168.525
168.84
169.638
206.8
211.648
209.115
208.025
207.443
207.177
206.96
206.773
206.622
206.497
206.374
206.274
206.231
206.278
206.416
206.677
206.874
207.316
207.792
208.23
208.579
208.818
208.958
209.029
209.059
209.064
209.051
209.023
208.977
208.914
208.833
208.743
208.657
208.591
208.557
208.559
208.59
208.641
208.706
208.778
208.846
208.887
208.886
208.849
208.809
208.812
208.927
209.384
194.815
200.27
200.492
201.236
201.94
202.475
202.93
203.385
203.864
204.337
204.771
205.151
205.486
205.791
206.075
206.343
206.596
206.838
207.07
207.287
207.486
207.696
208.005
208.506
209.149
209.694
210.235
210.258
209.815
209.103
208.302
207.915
207.774
207.455
206.862
206.582
208.395
208.421
175.865
171.574
171.747
172.609
208.311
213.551
211.168
210.512
209.311
208.506
207.789
207.467
207.392
207.255
206.894
206.522
206.419
206.873
207.772
208.664
208.922
209.052
209.038
208.988
208.944
208.912
208.891
208.878
208.872
208.87
208.868
208.864
208.853
208.83
208.797
208.758
208.724
208.707
208.72
208.764
208.831
208.911
208.997
209.085
209.163
209.212
209.216
209.184
209.151
209.165
209.299
209.784
194.837
200.296
200.52
201.265
201.971
202.509
202.966
203.424
203.905
204.381
204.817
205.199
205.535
205.84
206.125
206.392
206.644
206.885
207.116
207.335
207.54
207.752
208.048
208.516
209.135
209.702
209.649
209.332
208.499
207.315
206.497
205.904
205.658
205.383
204.919
203.647
206.21
212.158
209.931
208.716
207.884
207.702
207.776
208.005
208.297
208.611
208.864
209.043
209.159
209.168
208.813
208.672
208.557
208.467
208.408
208.374
208.362
208.365
208.379
208.398
208.422
208.446
208.465
208.477
208.48
208.481
208.488
208.515
208.57
208.655
208.76
208.873
208.99
209.104
209.205
209.272
209.29
209.269
209.242
209.258
209.387
209.823
194.84
200.3
200.523
201.269
201.975
202.513
202.972
203.431
203.914
204.392
204.831
205.215
205.554
205.862
206.15
206.421
206.676
206.921
207.157
207.385
207.603
207.825
208.098
208.503
209.067
209.576
211.87
210.835
209.149
207.56
203.842
203.204
203.457
203.933
204.661
204.122
205.242
211.746
210.009
209.175
208.758
208.525
208.485
208.562
208.625
208.602
208.495
208.383
208.324
208.254
207.918
207.81
207.741
207.7
207.689
207.695
207.717
207.747
207.788
207.838
207.892
207.943
207.989
208.025
208.052
208.073
208.1
208.144
208.217
208.319
208.444
208.579
208.718
208.856
208.982
209.073
209.115
209.116
209.11
209.14
209.275
209.663
194.828
200.285
200.508
201.252
201.958
202.495
202.953
203.411
203.893
204.372
204.811
205.195
205.535
205.844
206.133
206.405
206.663
206.91
207.15
207.386
207.619
207.851
208.104
208.434
208.882
209.107
203.526
200.475
198.754
197.751
200.35
201.159
202.037
203.178
204.685
204.824
205.119
211.646
210.006
209.194
208.671
208.25
207.987
207.839
207.721
207.588
207.475
207.404
207.35
207.311
207.054
207.027
207.04
207.073
207.128
207.187
207.253
207.319
207.39
207.466
207.543
207.616
207.679
207.732
207.774
207.808
207.844
207.896
207.975
208.082
208.209
208.347
208.489
208.63
208.76
208.857
208.906
208.913
208.915
208.951
209.079
209.435
194.809
200.262
200.484
201.228
201.932
202.468
202.924
203.381
203.862
204.34
204.777
205.161
205.501
205.81
206.099
206.372
206.63
206.878
207.12
207.361
207.602
207.842
208.081
208.336
208.603
208.463
187.927
183.808
182.894
182.382
198.118
200.704
201.596
202.834
204.622
205.22
205.11
211.603
209.91
208.951
208.263
207.698
207.283
207.015
206.851
206.771
206.764
206.777
206.788
206.823
206.654
206.693
206.762
206.839
206.922
207.001
207.084
207.165
207.251
207.34
207.429
207.512
207.588
207.652
207.704
207.747
207.791
207.848
207.928
208.034
208.157
208.288
208.421
208.554
208.674
208.763
208.804
208.806
208.803
208.833
208.951
209.289
194.791
200.24
200.463
201.206
201.909
202.444
202.899
203.354
203.834
204.31
204.746
205.129
205.467
205.776
206.064
206.337
206.595
206.842
207.084
207.324
207.567
207.812
208.051
208.264
208.357
207.755
175.765
170.983
170.768
170.697
196.57
200.469
201.259
202.362
204.072
204.801
205.236
211.817
210.014
208.971
208.195
207.562
207.086
206.789
206.63
206.59
206.617
206.672
206.754
206.861
206.773
206.863
206.95
207.023
207.082
207.136
207.199
207.277
207.363
207.45
207.537
207.621
207.7
207.771
207.834
207.889
207.946
208.014
208.103
208.212
208.334
208.458
208.58
208.697
208.799
208.868
208.89
208.874
208.855
208.871
208.977
209.309
194.779
200.227
200.449
201.192
201.896
202.431
202.885
203.34
203.819
204.294
204.73
205.112
205.448
205.755
206.042
206.312
206.567
206.81
207.048
207.285
207.523
207.764
208.004
208.206
208.204
207.287
170.72
165.684
165.803
166.07
196.465
200.824
201.356
202.08
203.315
203.748
205.706
212.708
210.791
209.594
208.681
207.981
207.454