/*--------------------------------*- C++ -*----------------------------------*\
| =========                 |                                                 |
| \\      /  F ield         | OpenFOAM: The Open Source CFD Toolbox           |
|  \\    /   O peration     | Version:  v2012                                 |
|   \\  /    A nd           | Website:  www.openfoam.com                      |
|    \\/     M anipulation  |                                                 |
\*---------------------------------------------------------------------------*/
FoamFile
{
    version     2.0;
    format      ascii;
    class       volScalarField;
    location    "300/air";
    object      ILambda_28_0;
}
// * * * * * * * * * * * * * * * * * * * * * * * * * * * * * * * * * * * * * //

dimensions      [1 0 -3 0 0 0 0];


internalField   nonuniform List<scalar> 
287104
(
204.696
221.103
221.925
222.33
223.41
224.455
225.314
226.098
226.874
227.627
228.318
228.929
229.47
229.957
230.404
230.816
231.196
231.548
231.877
232.186
232.479
232.757
233.02
233.271
233.509
233.737
233.956
234.165
234.367
234.56
234.747
234.928
235.103
235.273
235.438
235.598
235.754
235.907
236.056
236.202
236.345
236.484
236.622
236.758
236.892
237.024
237.155
237.283
237.409
237.533
237.655
237.777
237.897
238.018
238.138
238.258
238.376
238.491
238.603
238.712
238.818
238.921
239.022
239.122
239.222
239.322
239.423
239.526
239.631
239.736
239.84
239.94
240.037
240.135
240.246
240.382
240.557
240.771
241.016
241.277
241.541
241.804
242.059
242.29
242.482
242.639
242.79
242.987
243.354
244.786
204.075
220.181
220.959
221.33
222.363
223.361
224.178
224.923
225.661
226.378
227.034
227.613
228.123
228.581
229
229.385
229.738
230.065
230.369
230.655
230.924
231.179
231.421
231.649
231.867
232.074
232.272
232.461
232.643
232.818
232.985
233.147
233.304
233.455
233.601
233.742
233.879
234.015
234.148
234.276
234.401
234.523
234.642
234.762
234.88
234.996
235.11
235.222
235.332
235.441
235.548
235.653
235.757
235.861
235.964
236.067
236.169
236.269
236.367
236.462
236.554
236.644
236.732
236.818
236.905
236.992
237.08
237.169
237.261
237.352
237.443
237.53
237.614
237.699
237.796
237.918
238.079
238.28
238.51
238.757
239.008
239.258
239.499
239.716
239.894
240.037
240.171
240.358
240.748
242.324
203.48
219.328
220.092
220.453
221.467
222.444
223.244
223.973
224.696
225.399
226.042
226.609
227.108
227.555
227.964
228.34
228.685
229.003
229.299
229.577
229.839
230.086
230.321
230.542
230.753
230.953
231.145
231.327
231.503
231.671
231.832
231.988
232.138
232.283
232.422
232.556
232.687
232.817
232.944
233.067
233.186
233.301
233.414
233.528
233.641
233.75
233.857
233.964
234.068
234.171
234.272
234.372
234.47
234.568
234.665
234.761
234.856
234.95
235.042
235.131
235.217
235.301
235.383
235.464
235.544
235.625
235.707
235.79
235.875
235.96
236.044
236.124
236.201
236.279
236.369
236.485
236.638
236.831
237.053
237.292
237.535
237.778
238.012
238.222
238.393
238.528
238.656
238.84
239.236
240.791
202.893
218.487
219.239
219.595
220.591
221.551
222.335
223.052
223.763
224.455
225.088
225.645
226.136
226.576
226.978
227.347
227.686
227.998
228.289
228.561
228.818
229.061
229.29
229.508
229.714
229.91
230.098
230.277
230.448
230.612
230.77
230.922
231.068
231.209
231.345
231.475
231.602
231.728
231.852
231.971
232.086
232.197
232.306
232.417
232.527
232.633
232.737
232.84
232.941
233.041
233.139
233.236
233.331
233.425
233.518
233.61
233.702
233.792
233.881
233.967
234.051
234.133
234.212
234.29
234.368
234.446
234.526
234.606
234.688
234.771
234.852
234.93
235.004
235.08
235.167
235.28
235.431
235.621
235.841
236.077
236.318
236.56
236.793
237.003
237.173
237.308
237.436
237.621
238.019
239.553
202.315
217.658
218.399
218.749
219.728
220.671
221.441
222.145
222.845
223.526
224.149
224.698
225.18
225.613
226.008
226.371
226.705
227.012
227.297
227.565
227.817
228.056
228.282
228.495
228.698
228.89
229.074
229.249
229.417
229.578
229.733
229.881
230.025
230.163
230.295
230.422
230.545
230.667
230.788
230.903
231.015
231.123
231.229
231.337
231.443
231.546
231.646
231.746
231.844
231.941
232.036
232.13
232.222
232.313
232.402
232.491
232.58
232.667
232.752
232.836
232.917
232.996
233.073
233.149
233.224
233.3
233.376
233.454
233.534
233.614
233.693
233.768
233.84
233.914
233.999
234.111
234.259
234.448
234.667
234.902
235.143
235.385
235.618
235.828
235.999
236.134
236.263
236.449
236.843
238.353
201.746
216.843
217.572
217.917
218.88
219.806
220.563
221.254
221.943
222.614
223.227
223.767
224.241
224.667
225.056
225.414
225.741
226.044
226.324
226.588
226.836
227.071
227.293
227.503
227.702
227.891
228.072
228.244
228.408
228.566
228.717
228.863
229.003
229.138
229.268
229.392
229.512
229.63
229.746
229.858
229.966
230.072
230.175
230.278
230.379
230.477
230.574
230.669
230.764
230.856
230.947
231.037
231.124
231.21
231.296
231.38
231.463
231.546
231.627
231.706
231.783
231.857
231.93
232.002
232.073
232.144
232.216
232.29
232.365
232.441
232.515
232.586
232.653
232.722
232.803
232.91
233.053
233.237
233.45
233.68
233.916
234.153
234.382
234.585
234.749
234.877
234.999
235.173
235.54
236.981
201.186
216.04
216.759
217.099
218.046
218.956
219.699
220.379
221.057
221.717
222.321
222.851
223.317
223.736
224.119
224.471
224.794
225.092
225.368
225.628
225.873
226.104
226.322
226.529
226.724
226.91
227.087
227.256
227.417
227.571
227.719
227.861
227.997
228.129
228.256
228.378
228.494
228.605
228.713
228.819
228.922
229.024
229.123
229.217
229.31
229.401
229.49
229.578
229.663
229.747
229.829
229.91
229.988
230.065
230.141
230.215
230.289
230.361
230.431
230.5
230.566
230.631
230.693
230.754
230.815
230.876
230.938
231.001
231.065
231.129
231.192
231.25
231.304
231.36
231.427
231.519
231.648
231.816
232.014
232.228
232.449
232.669
232.881
233.065
233.207
233.314
233.414
233.56
233.87
235.14
200.636
215.251
215.958
216.293
217.225
218.119
218.849
219.518
220.185
220.832
221.436
221.964
222.42
222.83
223.205
223.551
223.869
224.162
224.435
224.691
224.933
225.162
225.378
225.583
225.776
225.959
226.133
226.298
226.455
226.605
226.748
226.885
227.016
227.142
227.263
227.381
227.491
227.59
227.683
227.776
227.868
227.962
228.051
228.129
228.204
228.281
228.356
228.429
228.5
228.569
228.635
228.7
228.762
228.823
228.882
228.938
228.993
229.046
229.097
229.146
229.192
229.235
229.277
229.316
229.354
229.392
229.43
229.469
229.508
229.548
229.585
229.619
229.649
229.68
229.722
229.789
229.892
230.034
230.206
230.396
230.588
230.781
230.966
231.127
231.248
231.335
231.421
231.551
231.814
232.84
200.094
214.474
215.171
215.501
216.417
217.296
218.013
218.67
219.324
219.948
220.552
221.055
221.483
221.87
222.231
222.57
222.889
223.189
223.472
223.741
223.996
224.237
224.466
224.681
224.884
225.073
225.25
225.416
225.571
225.716
225.854
225.984
226.108
226.225
226.338
226.45
226.553
226.634
226.706
226.784
226.863
226.948
227.029
227.087
227.14
227.2
227.259
227.315
227.367
227.417
227.465
227.511
227.556
227.599
227.64
227.679
227.715
227.75
227.783
227.814
227.843
227.869
227.893
227.916
227.938
227.959
227.981
228.004
228.027
228.051
228.073
228.092
228.107
228.123
228.151
228.204
228.294
228.423
228.583
228.765
228.942
229.12
229.291
229.437
229.544
229.62
229.698
229.821
230.051
230.858
199.561
213.709
214.395
214.721
215.622
216.486
217.19
217.834
218.469
219.074
218.713
218.567
218.786
219.157
219.571
220.003
220.44
220.872
221.287
221.682
222.054
222.4
222.72
223.012
223.277
223.517
223.732
223.925
224.1
224.26
224.408
224.548
224.682
224.804
224.922
225.041
225.15
225.225
225.287
225.364
225.444
225.535
225.625
225.677
225.721
225.78
225.837
225.89
225.938
225.982
226.024
226.063
226.101
226.135
226.166
226.193
226.216
226.237
226.254
226.268
226.28
226.287
226.292
226.295
226.295
226.294
226.293
226.292
226.291
226.289
226.285
226.277
226.265
226.254
226.254
226.278
226.337
226.432
226.555
226.693
227.127
227.602
227.98
228.254
228.441
228.569
228.683
228.84
229.101
229.907
199.037
212.957
213.633
213.953
214.84
215.688
216.38
217.012
217.618
218.289
211.031
208.137
208.175
209.074
210.117
211.153
212.141
213.057
213.886
214.625
215.274
215.835
216.313
216.712
217.039
217.303
217.512
217.675
217.803
217.905
217.989
218.063
218.129
218.191
218.254
218.33
218.404
218.44
218.465
218.516
218.578
218.66
218.748
218.791
218.827
218.889
218.952
219.012
219.069
219.122
219.172
219.219
219.262
219.299
219.329
219.354
219.372
219.383
219.389
219.387
219.38
219.365
219.344
219.317
219.284
219.244
219.2
219.15
219.095
219.035
218.968
218.894
218.813
218.729
218.65
218.585
218.542
218.515
218.485
218.363
220.937
223.476
225.279
226.486
227.283
227.804
228.169
228.5
228.925
229.956
198.521
212.216
212.882
213.198
214.07
214.904
215.583
216.203
216.792
217.413
210.217
207.346
207.37
208.255
209.293
210.332
211.328
212.254
213.096
213.849
214.512
215.087
215.576
215.983
216.316
216.583
216.79
216.948
217.066
217.154
217.223
217.281
217.332
217.382
217.442
217.53
217.625
217.674
217.713
217.794
217.896
218.033
218.187
218.28
218.367
218.496
218.631
218.768
218.907
219.05
219.197
219.345
219.494
219.641
219.786
219.928
220.069
220.206
220.34
220.47
220.594
220.712
220.823
220.926
221.021
221.107
221.183
221.249
221.304
221.347
221.375
221.388
221.384
221.367
221.346
221.331
221.33
221.344
221.361
221.355
223.438
225.466
226.907
227.876
228.515
228.925
229.211
229.51
230.005
231.327
198.014
211.488
212.143
212.455
213.312
214.131
214.798
215.408
215.986
216.591
209.503
206.669
206.687
207.554
208.575
209.598
210.58
211.493
212.325
213.068
213.722
214.288
214.768
215.165
215.488
215.742
215.937
216.08
216.18
216.248
216.294
216.328
216.357
216.384
216.424
216.498
216.582
216.605
216.609
216.665
216.744
216.863
217.006
217.068
217.117
217.218
217.328
217.439
217.554
217.673
217.795
217.918
218.042
218.166
218.29
218.417
218.545
218.675
218.809
218.946
219.086
219.23
219.379
219.532
219.69
219.854
220.024
220.2
220.382
220.569
220.758
220.948
221.136
221.327
221.524
221.738
221.974
222.233
222.506
222.778
224.82
226.726
228.058
228.948
229.543
229.938
230.229
230.562
231.176
232.863
197.515
210.771
211.417
211.724
212.567
213.371
214.026
214.625
215.194
215.788
208.815
206.025
206.041
206.893
207.897
208.904
209.871
210.771
211.59
212.323
212.967
213.524
213.996
214.386
214.702
214.952
215.144
215.285
215.382
215.444
215.48
215.504
215.522
215.54
215.574
215.649
215.738
215.75
215.735
215.781
215.852
215.969
216.119
216.167
216.193
216.284
216.385
216.488
216.594
216.703
216.812
216.916
217.016
217.112
217.203
217.291
217.376
217.458
217.538
217.616
217.693
217.77
217.846
217.924
218.002
218.083
218.166
218.251
218.34
218.432
218.527
218.625
218.726
218.833
218.951
219.087
219.251
219.447
219.671
219.885
221.868
223.717
224.989
225.839
226.433
226.883
227.292
227.79
228.569
230.378
197.024
210.066
210.702
211.004
211.833
212.623
213.266
213.855
214.415
215
208.143
205.398
205.413
206.251
207.239
208.229
209.181
210.067
210.873
211.594
212.229
212.777
213.24
213.623
213.933
214.179
214.369
214.512
214.611
214.672
214.704
214.719
214.727
214.738
214.768
214.847
214.946
214.953
214.924
214.966
215.035
215.156
215.319
215.362
215.375
215.465
215.57
215.68
215.795
215.911
216.021
216.124
216.222
216.317
216.413
216.508
216.601
216.691
216.777
216.858
216.935
217.008
217.078
217.146
217.212
217.276
217.338
217.398
217.457
217.512
217.563
217.608
217.647
217.684
217.725
217.782
217.862
217.965
218.08
218.134
220.021
221.756
222.92
223.678
224.187
224.548
224.859
225.247
225.881
227.378
196.541
209.372
209.998
210.295
211.11
211.886
212.517
213.096
213.647
214.224
207.48
204.781
204.797
205.621
206.593
207.568
208.504
209.376
210.17
210.88
211.504
212.043
212.499
212.874
213.177
213.418
213.607
213.753
213.858
213.924
213.956
213.964
213.963
213.966
213.99
214.073
214.183
214.189
214.148
214.186
214.255
214.382
214.562
214.606
214.612
214.707
214.824
214.951
215.082
215.208
215.322
215.425
215.523
215.623
215.726
215.83
215.932
216.031
216.126
216.219
216.31
216.399
216.486
216.572
216.656
216.739
216.821
216.902
216.983
217.062
217.138
217.21
217.277
217.338
217.403
217.483
217.586
217.714
217.855
217.939
219.761
221.432
222.554
223.286
223.774
224.117
224.41
224.769
225.365
226.822
196.066
208.688
209.304
209.598
210.399
211.161
211.78
212.348
212.891
213.46
206.827
204.174
204.191
205.004
205.961
206.921
207.843
208.701
209.482
210.181
210.795
211.325
211.773
212.14
212.435
212.669
212.855
213.003
213.117
213.194
213.231
213.237
213.227
213.219
213.237
213.318
213.435
213.438
213.384
213.417
213.488
213.621
213.821
213.874
213.881
213.986
214.122
214.271
214.421
214.556
214.671
214.774
214.875
214.984
215.098
215.214
215.328
215.439
215.548
215.656
215.763
215.869
215.975
216.081
216.186
216.292
216.399
216.506
216.615
216.723
216.83
216.934
217.036
217.138
217.25
217.382
217.543
217.737
217.957
218.186
220.077
221.8
222.957
223.713
224.221
224.581
224.887
225.258
225.868
227.463
195.599
208.016
208.623
208.912
209.699
210.447
211.055
211.613
212.148
212.711
206.178
203.565
203.584
204.387
205.332
206.278
207.185
208.03
208.797
209.483
210.084
210.602
211.037
211.392
211.674
211.894
212.069
212.212
212.328
212.413
212.458
212.462
212.441
212.416
212.416
212.482
212.59
212.58
212.503
212.524
212.593
212.732
212.954
213.021
213.037
213.162
213.324
213.499
213.665
213.803
213.912
214.007
214.107
214.218
214.336
214.453
214.567
214.679
214.788
214.898
215.009
215.12
215.233
215.347
215.463
215.582
215.702
215.826
215.952
216.08
216.209
216.337
216.463
216.591
216.73
216.889
217.078
217.299
217.545
217.804
219.707
221.464
222.678
223.491
224.049
224.449
224.781
225.163
225.79
227.441
195.14
207.356
207.953
208.237
209.011
209.746
210.342
210.891
211.419
211.985
205.522
202.931
202.946
203.74
204.674
205.608
206.499
207.321
208.061
208.713
209.277
209.752
210.141
210.448
210.682
210.854
210.983
211.088
211.178
211.248
211.284
211.276
211.232
211.174
211.134
211.162
211.24
211.204
211.098
211.102
211.167
211.313
211.559
211.655
211.703
211.872
212.086
212.309
212.507
212.661
212.778
212.881
212.989
213.106
213.222
213.33
213.427
213.516
213.599
213.68
213.76
213.838
213.917
213.996
214.075
214.156
214.238
214.322
214.406
214.489
214.571
214.647
214.719
214.788
214.862
214.949
215.058
215.188
215.332
215.456
217.392
219.232
220.52
221.382
221.963
222.36
222.66
222.98
223.496
224.836
194.689
206.707
207.295
207.575
208.336
209.057
209.642
210.183
210.71
211.278
205.567
203.37
203.422
204.142
204.987
205.821
206.598
207.292
207.893
208.399
208.814
209.145
209.398
209.584
209.712
209.795
209.852
209.903
209.961
210.021
210.063
210.064
210.023
209.954
209.892
209.898
209.968
209.932
209.824
209.827
209.892
210.035
210.285
210.392
210.464
210.678
210.95
211.228
211.468
211.656
211.807
211.951
212.101
212.25
212.383
212.49
212.571
212.631
212.675
212.706
212.728
212.743
212.753
212.762
212.769
212.776
212.784
212.791
212.8
212.807
212.811
212.812
212.807
212.799
212.796
212.808
212.841
212.895
212.957
212.957
214.928
216.817
218.156
219.062
219.672
220.082
220.383
220.68
221.11
222.179
194.245
206.068
206.647
206.923
207.671
208.378
208.952
209.484
210.02
210.514
210.845
211.154
211.478
211.809
212.134
212.446
212.737
213.008
213.261
213.497
213.718
213.926
214.12
214.297
214.455
214.595
214.728
214.868
215.032
215.215
215.394
215.528
215.599
215.614
215.617
215.7
215.882
215.931
215.878
215.926
215.992
216.096
216.284
216.269
216.194
216.293
216.449
216.582
216.648
216.655
216.644
216.66
216.714
216.788
216.862
216.926
216.978
217.024
217.065
217.102
217.136
217.165
217.191
217.215
217.236
217.255
217.273
217.291
217.309
217.328
217.345
217.36
217.371
217.385
217.409
217.457
217.54
217.66
217.811
217.99
218.22
218.459
218.681
218.866
219
219.092
219.177
219.311
219.572
220.364
193.806
205.437
206.007
206.278
207.013
207.708
208.271
208.795
209.329
209.849
210.31
210.718
211.084
211.42
211.732
212.019
212.284
212.527
212.752
212.963
213.163
213.354
213.534
213.703
213.856
213.993
214.119
214.249
214.402
214.586
214.782
214.947
215.046
215.077
215.087
215.198
215.45
215.565
215.571
215.642
215.663
215.691
215.806
215.738
215.63
215.73
215.886
215.995
216.022
215.995
215.973
215.994
216.058
216.138
216.213
216.276
216.33
216.379
216.426
216.47
216.512
216.55
216.584
216.616
216.644
216.671
216.695
216.719
216.741
216.763
216.783
216.799
216.811
216.824
216.848
216.895
216.978
217.097
217.246
217.415
217.598
217.785
217.964
218.115
218.224
218.295
218.361
218.472
218.698
219.464
193.372
204.811
205.372
205.639
206.361
207.043
207.595
208.109
208.636
209.156
209.631
210.047
210.414
210.745
211.05
211.331
211.589
211.826
212.046
212.253
212.448
212.635
212.813
212.983
213.14
213.282
213.408
213.53
213.67
213.843
214.041
214.223
214.345
214.395
214.43
214.597
214.952
215.15
215.222
215.292
215.214
215.11
215.131
215.021
214.896
215.009
215.17
215.262
215.268
215.24
215.24
215.295
215.389
215.49
215.579
215.655
215.723
215.789
215.852
215.912
215.967
216.019
216.067
216.112
216.153
216.19
216.226
216.26
216.293
216.324
216.353
216.378
216.399
216.421
216.453
216.51
216.601
216.73
216.889
217.065
217.251
217.442
217.626
217.785
217.902
217.983
218.057
218.172
218.418
219.335
192.939
204.188
204.74
205.003
205.713
206.381
206.923
207.428
207.948
208.461
208.933
209.346
209.71
210.037
210.338
210.615
210.869
211.103
211.321
211.525
211.718
211.901
212.077
212.246
212.408
212.557
212.691
212.812
212.94
213.096
213.282
213.466
213.6
213.666
213.733
213.97
214.429
214.704
214.848
214.895
214.673
214.388
214.282
214.146
214.017
214.136
214.284
214.345
214.326
214.296
214.312
214.383
214.481
214.574
214.652
214.72
214.785
214.848
214.909
214.966
215.019
215.069
215.116
215.159
215.201
215.241
215.279
215.318
215.356
215.395
215.433
215.468
215.501
215.537
215.584
215.656
215.764
215.91
216.086
216.281
216.486
216.695
216.899
217.078
217.216
217.316
217.408
217.54
217.815
218.814
192.51
203.57
204.113
204.372
205.069
205.725
206.256
206.752
207.263
207.77
208.235
208.643
209.001
209.324
209.621
209.895
210.146
210.378
210.594
210.797
210.987
211.168
211.341
211.509
211.674
211.833
211.982
212.115
212.243
212.387
212.557
212.732
212.867
212.941
213.029
213.311
213.831
214.159
214.332
214.333
213.957
213.45
213.182
213.005
212.857
212.952
213.053
213.056
212.995
212.944
212.947
212.991
213.042
213.082
213.109
213.132
213.158
213.185
213.21
213.235
213.26
213.287
213.316
213.349
213.385
213.425
213.47
213.52
213.574
213.633
213.695
213.757
213.819
213.885
213.964
214.069
214.211
214.389
214.597
214.822
215.056
215.294
215.526
215.733
215.898
216.023
216.136
216.289
216.585
217.549
192.087
202.959
203.494
203.749
204.434
205.078
205.598
206.085
206.588
207.087
207.546
207.949
208.302
208.621
208.914
209.184
209.433
209.663
209.877
210.079
210.269
210.448
210.618
210.783
210.947
211.112
211.276
211.429
211.573
211.719
211.881
212.049
212.181
212.251
212.33
212.606
213.127
213.476
213.831
213.736
213.12
212.268
211.452
211.075
210.815
210.798
210.781
210.675
210.528
210.416
210.36
210.333
210.31
210.289
210.279
210.288
210.316
210.356
210.406
210.465
210.532
210.608
210.693
210.784
210.881
210.983
211.09
211.2
211.314
211.429
211.544
211.657
211.768
211.879
212
212.142
212.315
212.523
212.759
213.009
213.264
213.518
213.76
213.972
214.136
214.256
214.359
214.501
214.77
215.582
191.676
202.367
202.893
203.145
203.817
204.449
204.959
205.437
205.932
206.424
206.877
207.274
207.623
207.937
208.226
208.493
208.74
208.968
209.181
209.382
209.572
209.751
209.92
210.079
210.236
210.396
210.564
210.735
210.904
211.071
211.245
211.418
211.556
211.626
211.68
211.905
212.389
212.746
212.281
211.535
210.267
208.784
208.003
207.469
207.083
206.998
206.959
206.879
206.805
206.785
206.823
206.892
206.977
207.08
207.209
207.359
207.52
207.684
207.847
208.008
208.17
208.332
208.494
208.654
208.812
208.968
209.122
209.274
209.423
209.569
209.71
209.844
209.971
210.095
210.224
210.372
210.548
210.752
210.979
211.217
211.459
211.7
211.929
212.128
212.276
212.377
212.459
212.573
212.796
213.452
191.288
201.809
202.328
202.575
203.237
203.856
204.357
204.827
205.315
205.8
206.246
206.638
206.982
207.293
207.579
207.844
208.088
208.314
208.526
208.727
208.918
209.099
209.267
209.42
209.562
209.707
209.861
210.036
210.228
210.427
210.629
210.822
210.984
211.083
211.144
211.319
211.773
212.002
213.359
211.657
209.218
207.275
203.853
202.911
202.808
203.07
203.367
203.626
203.874
204.137
204.404
204.662
204.913
205.167
205.426
205.683
205.928
206.154
206.365
206.565
206.756
206.94
207.116
207.285
207.446
207.601
207.75
207.892
208.028
208.157
208.281
208.395
208.501
208.6
208.703
208.821
208.967
209.141
209.338
209.548
209.763
209.98
210.186
210.361
210.487
210.566
210.627
210.72
210.915
211.476
190.942
201.311
201.822
202.066
202.718
203.327
203.819
204.282
204.762
205.241
205.682
206.069
206.409
206.717
207
207.262
207.505
207.73
207.941
208.143
208.336
208.519
208.688
208.835
208.961
209.088
209.221
209.385
209.587
209.809
210.037
210.25
210.453
210.634
210.788
210.971
211.4
211.574
205.264
200.71
198.375
197.091
199.031
199.99
200.367
200.944
201.562
202.125
202.627
203.072
203.458
203.797
204.109
204.409
204.696
204.961
205.199
205.412
205.605
205.785
205.953
206.112
206.26
206.398
206.526
206.645
206.756
206.86
206.956
207.046
207.128
207.202
207.269
207.333
207.404
207.493
207.611
207.76
207.932
208.12
208.316
208.516
208.708
208.872
208.989
209.061
209.116
209.201
209.376
209.874
190.656
200.9
201.405
201.647
202.29
202.891
203.376
203.833
204.308
204.782
205.218
205.601
205.938
206.242
206.523
206.783
207.024
207.248
207.46
207.662
207.857
208.042
208.212
208.359
208.485
208.61
208.737
208.891
209.086
209.306
209.529
209.741
209.986
210.292
210.623
210.879
211.28
211.545
191.919
184.908
183.458
182.578
195.608
199.465
199.83
200.201
200.757
201.355
201.918
202.414
202.844
203.231
203.593
203.93
204.235
204.502
204.735
204.939
205.124
205.293
205.45
205.597
205.732
205.853
205.961
206.057
206.141
206.215
206.28
206.335
206.383
206.423
206.456
206.488
206.528
206.589
206.679
206.802
206.951
207.116
207.292
207.473
207.649
207.799
207.905
207.968
208.017
208.094
208.256
208.715
190.446
200.598
201.099
201.338
201.976
202.573
203.054
203.508
203.98
204.452
204.886
205.267
205.602
205.904
206.183
206.442
206.681
206.904
207.115
207.317
207.512
207.696
207.868
208.031
208.191
208.346
208.502
208.667
208.841
209.027
209.201
209.382
209.655
210.096
210.631
210.986
211.376
211.645
182.004
173.321
172.595
172.017
193.505
199.451
199.719
199.86
200.283
200.83
201.376
201.869
202.314
202.735
203.139
203.52
203.867
204.176
204.447
204.691
204.915
205.121
205.308
205.478
205.63
205.761
205.872
205.964
206.037
206.093
206.134
206.162
206.177
206.182
206.177
206.17
206.171
206.193
206.246
206.334
206.449
206.585
206.733
206.891
207.047
207.179
207.27
207.32
207.358
207.423
207.573
208.008
190.317
200.412
200.91
201.149
201.784
202.378
202.857
203.311
203.784
204.257
204.693
205.076
205.413
205.718
205.998
206.258
206.498
206.721
206.932
207.133
207.324
207.504
207.685
207.889
208.127
208.347
208.566
208.752
208.884
208.999
209.094
209.222
209.518
210.071
210.749
211.133
211.486
211.738
178.426
169.183
168.774
168.376
193.673
200.432
200.441
200.284
200.461
200.833
201.252
201.656
202.051
202.461
202.885
203.304
203.7
204.063
204.395
204.704
204.989
205.255
205.499
205.721
205.92
206.094
206.242
206.363
206.458
206.528
206.573
206.594
206.592
206.568
206.525
206.472
206.421
206.387
206.384
206.417
206.481
206.569
206.674
206.792
206.912
207.013
207.076
207.102
207.118
207.165
207.301
207.721
190.26
200.332
200.828
201.065
201.698
202.29
202.769
203.223
203.697
204.172
204.611
204.999
205.342
205.653
205.94
206.206
206.452
206.681
206.896
207.099
207.287
207.466
207.669
207.946
208.302
208.612
208.901
209.092
209.133
209.129
209.129
209.191
209.674
210.302
210.995
211.242
211.487
211.923
178.253
169.031
168.813
168.572
198.465
205.697
204.702
203.579
202.981
202.764
202.727
202.783
202.931
203.178
203.501
203.862
204.225
204.574
204.907
205.242
205.393
205.656
205.931
206.192
206.441
206.675
206.891
207.08
207.24
207.367
207.463
207.528
207.559
207.555
207.515
207.441
207.347
207.254
207.179
207.135
207.125
207.142
207.181
207.238
207.301
207.35
207.366
207.349
207.327
207.342
207.454
207.865
190.258
200.328
200.823
201.058
201.69
202.28
202.757
203.209
203.681
204.155
204.594
204.983
205.329
205.644
205.938
206.211
206.467
206.706
206.932
207.143
207.335
207.522
207.763
208.134
208.624
209.034
209.4
209.571
209.473
209.291
209.152
209.139
209.523
210.02
210.496
210.46
210.786
211.322
178.347
169.257
169.134
169.113
201.543
209.878
208.75
207.374
206.544
206.074
205.716
205.415
205.222
205.161
205.205
205.306
205.431
205.571
205.735
205.95
206.034
206.276
206.571
206.889
207.217
207.538
207.838
208.104
208.324
208.491
208.6
208.65
208.643
208.587
208.493
208.376
208.256
208.152
208.082
208.05
208.052
208.075
208.111
208.152
208.186
208.194
208.161
208.091
208.017
207.987
208.067
208.474
190.284
200.364
200.86
201.095
201.727
202.316
202.791
203.24
203.709
204.178
204.613
204.998
205.34
205.652
205.944
206.219
206.477
206.722
206.956
207.174
207.372
207.572
207.852
208.303
208.901
209.401
209.805
209.947
209.711
209.312
208.991
208.832
208.984
209.115
209.084
208.835
209.974
210.931
177.814
168.421
168.253
168.443
202.343
211.564
209.76
208.037
207.312
207.056
206.871
206.695
206.543
206.418
206.308
206.219
206.174
206.192
206.288
206.515
206.713
207.135
207.618
208.071
208.439
208.695
208.849
208.931
208.967
208.976
208.966
208.94
208.896
208.833
208.753
208.663
208.575
208.504
208.465
208.462
208.49
208.54
208.604
208.677
208.748
208.795
208.801
208.767
208.723
208.715
208.815
209.276
190.314
200.407
200.904
201.141
201.774
202.365
202.841
203.29
203.758
204.226
204.658
205.039
205.376
205.684
205.971
206.241
206.496
206.738
206.971
207.189
207.389
207.594
207.887
208.364
209
209.552
210.158
210.281
209.902
209.221
208.369
207.916
207.758
207.475
206.921
206.578
208.302
209.331
179.639
171.828
171.631
171.9
204.605
213.683
211.521
210.613
209.417
208.469
207.739
207.416
207.326
207.164
206.789
206.402
206.281
206.703
207.573
208.47
208.79
208.933
208.944
208.907
208.869
208.839
208.818
208.805
208.798
208.796
208.794
208.79
208.778
208.756
208.723
208.682
208.645
208.625
208.632
208.671
208.735
208.813
208.9
208.989
209.071
209.126
209.137
209.109
209.072
209.075
209.194
209.686
190.333
200.435
200.933
201.171
201.806
202.399
202.877
203.329
203.799
204.27
204.704
205.087
205.425
205.733
206.02
206.29
206.543
206.785
207.016
207.236
207.441
207.649
207.932
208.378
208.988
209.571
209.501
209.264
208.518
207.364
206.586
205.953
205.666
205.391
204.949
203.708
200.602
212.497
210.77
208.8
207.795
207.603
207.675
207.879
208.153
208.466
208.737
208.94
209.071
209.096
208.779
208.616
208.5
208.41
208.349
208.314
208.299
208.3
208.312
208.33
208.353
208.376
208.395
208.406
208.409
208.409
208.414
208.437
208.488
208.568
208.67
208.782
208.899
209.015
209.12
209.193
209.218
209.2
209.169
209.174
209.289
209.736
190.336
200.439
200.937
201.175
201.81
202.404
202.883
203.336
203.809
204.282
204.719
205.104
205.445
205.756
206.047
206.319
206.576
206.821
207.057
207.286
207.504
207.722
207.986
208.374
208.932
209.402
211.673
211.136
209.532
207.951
204.319
203.241
203.371
203.816
204.535
204.111
199.763
211.973
210.749
209.209
208.63
208.437
208.41
208.479
208.543
208.534
208.441
208.334
208.271
208.205
207.895
207.76
207.687
207.643
207.629
207.633
207.652
207.68
207.719
207.767
207.82
207.87
207.916
207.952
207.979
208
208.024
208.065
208.133
208.231
208.353
208.488
208.628
208.769
208.898
208.996
209.045
209.049
209.039
209.059
209.183
209.584
190.326
200.424
200.922
201.159
201.794
202.387
202.865
203.317
203.789
204.262
204.699
205.085
205.427
205.739
206.03
206.304
206.563
206.811
207.051
207.287
207.519
207.749
207.998
208.317
208.763
209.159
204.547
201.16
199.31
198.203
200.117
201.114
201.926
202.966
204.453
204.768
199.63
211.869
210.737
209.235
208.573
208.203
207.955
207.797
207.674
207.542
207.426
207.351
207.294
207.256
207.021
206.967
206.974
207.004
207.057
207.116
207.18
207.245
207.315
207.389
207.465
207.538
207.602
207.655
207.696
207.73
207.764
207.813
207.887
207.99
208.115
208.252
208.396
208.54
208.674
208.778
208.834
208.846
208.843
208.87
208.989
209.36
190.31
200.401
200.898
201.135
201.769
202.36
202.837
203.288
203.758
204.23
204.666
205.052
205.393
205.705
205.997
206.271
206.531
206.78
207.022
207.262
207.502
207.741
207.979
208.231
208.5
208.921
190.672
184.38
183.204
182.459
196.36
200.63
201.614
202.62
204.349
205.146
199.613
211.829
210.646
209.01
208.186
207.668
207.264
206.979
206.8
206.71
206.695
206.707
206.717
206.752
206.605
206.62
206.683
206.759
206.84
206.92
207.003
207.085
207.17
207.258
207.346
207.43
207.505
207.57
207.622
207.665
207.706
207.76
207.836
207.937
208.058
208.189
208.324
208.46
208.585
208.681
208.73
208.736
208.729
208.752
208.861
209.213
190.294
200.38
200.876
201.113
201.746
202.336
202.812
203.261
203.73
204.2
204.635
205.02
205.36
205.671
205.962
206.236
206.496
206.744
206.985
207.225
207.467
207.711
207.951
208.168
208.272
208.536
179.635
171.257
170.692
170.284
193.614
200.379
201.392
202.177
203.803
204.731
199.707
212.016
210.744
209.022
208.114
207.526
207.059
206.741
206.562
206.511
206.533
206.585
206.663
206.77
206.707
206.779
206.865
206.939
206.995
207.048
207.114
207.191
207.277
207.364
207.451
207.535
207.614
207.686
207.749
207.803
207.857
207.922
208.006
208.111
208.23
208.354
208.478
208.598
208.705
208.781
208.811
208.798
208.775
208.784
208.881
209.226
190.284
200.366
200.863
201.1
201.732
202.323
202.798
203.247
203.716
204.185
204.619
205.002
205.341
205.651
205.94
206.212
206.468
206.713
206.951
207.186
207.424
207.665
207.905
208.115
208.131
208.203
174.96
165.742
165.456
165.323
192.905
200.706
201.544
201.932
203.094
203.702
200.087
212.82
211.497
209.644
208.601
207.938
207.418
207.067