/*--------------------------------*- C++ -*----------------------------------*\
| =========                 |                                                 |
| \\      /  F ield         | OpenFOAM: The Open Source CFD Toolbox           |
|  \\    /   O peration     | Version:  v2012                                 |
|   \\  /    A nd           | Website:  www.openfoam.com                      |
|    \\/     M anipulation  |                                                 |
\*---------------------------------------------------------------------------*/
FoamFile
{
    version     2.0;
    format      ascii;
    class       volScalarField;
    location    "300/air";
    object      ILambda_58_0;
}
// * * * * * * * * * * * * * * * * * * * * * * * * * * * * * * * * * * * * * //

dimensions      [1 0 -3 0 0 0 0];


internalField   nonuniform List<scalar> 
287104
(
166.808
166.819
166.826
166.834
166.841
166.849
166.857
166.865
166.874
166.882
166.891
166.899
166.908
166.916
166.925
166.934
166.943
166.952
166.961
166.969
166.978
166.987
166.996
167.004
167.013
167.021
167.029
167.037
167.045
167.053
167.061
167.068
167.076
167.083
167.09
167.097
167.103
167.11
167.116
167.122
167.128
167.134
167.139
167.144
167.149
167.154
167.159
167.164
167.168
167.172
167.176
167.18
167.184
167.188
167.191
167.195
167.198
167.201
167.203
167.206
167.208
167.21
167.213
167.217
167.224
167.232
167.244
167.257
167.271
167.284
167.296
167.306
167.313
167.318
167.321
167.322
167.323
167.323
167.323
167.323
167.325
167.327
167.33
167.336
167.351
167.383
167.43
167.591
168.902
175.686
166.807
166.818
166.825
166.833
166.841
166.849
166.857
166.865
166.873
166.882
166.89
166.899
166.907
166.916
166.925
166.934
166.942
166.951
166.96
166.969
166.977
166.986
166.995
167.003
167.011
167.02
167.028
167.036
167.044
167.051
167.059
167.066
167.074
167.081
167.087
167.094
167.101
167.107
167.113
167.119
167.125
167.13
167.135
167.14
167.145
167.15
167.155
167.159
167.163
167.168
167.171
167.175
167.179
167.182
167.186
167.189
167.192
167.195
167.197
167.2
167.202
167.204
167.207
167.211
167.217
167.226
167.237
167.25
167.263
167.277
167.289
167.298
167.306
167.311
167.314
167.316
167.316
167.317
167.317
167.318
167.319
167.322
167.326
167.333
167.349
167.381
167.433
167.601
168.904
175.526
166.807
166.818
166.825
166.833
166.841
166.848
166.856
166.865
166.873
166.881
166.89
166.898
166.907
166.915
166.924
166.933
166.942
166.95
166.959
166.968
166.976
166.985
166.993
167.002
167.01
167.018
167.026
167.034
167.042
167.05
167.057
167.064
167.071
167.078
167.085
167.092
167.098
167.104
167.11
167.116
167.121
167.127
167.132
167.137
167.142
167.147
167.151
167.155
167.159
167.163
167.167
167.171
167.174
167.178
167.181
167.184
167.187
167.189
167.192
167.194
167.196
167.198
167.2
167.205
167.211
167.219
167.23
167.243
167.256
167.269
167.281
167.29
167.297
167.302
167.305
167.307
167.308
167.308
167.309
167.309
167.311
167.314
167.318
167.327
167.344
167.38
167.436
167.598
168.829
175.219
166.807
166.818
166.824
166.832
166.84
166.848
166.856
166.864
166.872
166.88
166.889
166.897
166.906
166.914
166.923
166.932
166.94
166.949
166.958
166.966
166.975
166.983
166.992
167
167.008
167.017
167.024
167.032
167.04
167.047
167.055
167.062
167.069
167.076
167.082
167.089
167.095
167.101
167.107
167.113
167.118
167.124
167.129
167.134
167.138
167.143
167.147
167.151
167.155
167.159
167.163
167.166
167.17
167.173
167.176
167.179
167.182
167.184
167.186
167.188
167.19
167.192
167.195
167.199
167.205
167.213
167.224
167.236
167.249
167.262
167.273
167.282
167.289
167.294
167.297
167.298
167.299
167.3
167.3
167.301
167.303
167.307
167.312
167.322
167.341
167.377
167.43
167.583
168.79
175.084
166.806
166.817
166.824
166.832
166.84
166.847
166.855
166.863
166.871
166.88
166.888
166.896
166.905
166.913
166.922
166.931
166.939
166.948
166.956
166.965
166.974
166.982
166.99
166.998
167.007
167.015
167.022
167.03
167.038
167.045
167.052
167.059
167.066
167.073
167.08
167.086
167.092
167.098
167.104
167.109
167.115
167.12
167.125
167.13
167.134
167.139
167.143
167.147
167.151
167.154
167.158
167.161
167.164
167.168
167.17
167.173
167.176
167.178
167.18
167.182
167.184
167.186
167.188
167.192
167.198
167.207
167.217
167.229
167.242
167.254
167.265
167.274
167.28
167.285
167.287
167.289
167.29
167.29
167.291
167.293
167.295
167.299
167.306
167.317
167.337
167.371
167.417
167.558
168.752
174.984
166.806
166.817
166.824
166.831
166.839
166.847
166.855
166.863
166.871
166.879
166.887
166.895
166.904
166.912
166.921
166.929
166.938
166.946
166.955
166.963
166.972
166.98
166.988
166.997
167.005
167.012
167.02
167.028
167.035
167.043
167.05
167.057
167.063
167.07
167.076
167.083
167.089
167.094
167.1
167.105
167.111
167.116
167.121
167.125
167.13
167.134
167.138
167.142
167.146
167.149
167.152
167.156
167.159
167.162
167.164
167.167
167.17
167.172
167.174
167.176
167.177
167.179
167.181
167.185
167.191
167.199
167.21
167.221
167.234
167.246
167.256
167.264
167.27
167.274
167.276
167.278
167.278
167.279
167.28
167.282
167.285
167.289
167.296
167.308
167.329
167.362
167.4
167.518
168.656
174.722
166.806
166.816
166.823
166.831
166.838
166.846
166.854
166.862
166.87
166.878
166.886
166.894
166.903
166.911
166.919
166.928
166.936
166.945
166.953
166.962
166.97
166.978
166.986
166.994
167.002
167.01
167.017
167.025
167.032
167.039
167.046
167.053
167.06
167.066
167.073
167.079
167.084
167.09
167.096
167.101
167.106
167.111
167.115
167.12
167.124
167.128
167.132
167.136
167.139
167.143
167.146
167.149
167.152
167.154
167.157
167.159
167.162
167.164
167.166
167.167
167.168
167.17
167.172
167.176
167.181
167.189
167.199
167.211
167.223
167.234
167.244
167.252
167.257
167.26
167.261
167.262
167.262
167.262
167.263
167.265
167.268
167.273
167.28
167.291
167.312
167.348
167.389
167.477
168.425
173.935
166.805
166.816
166.822
166.83
166.837
166.845
166.853
166.861
166.868
166.876
166.884
166.893
166.901
166.909
166.918
166.926
166.934
166.943
166.951
166.959
166.967
166.975
166.983
166.991
166.999
167.007
167.014
167.022
167.029
167.036
167.043
167.049
167.056
167.062
167.068
167.074
167.08
167.085
167.09
167.095
167.1
167.105
167.109
167.114
167.118
167.121
167.125
167.129
167.132
167.135
167.138
167.14
167.143
167.145
167.148
167.15
167.152
167.153
167.154
167.156
167.156
167.157
167.159
167.162
167.168
167.175
167.185
167.196
167.207
167.218
167.227
167.233
167.237
167.239
167.24
167.239
167.239
167.238
167.239
167.24
167.243
167.247
167.254
167.265
167.286
167.327
167.386
167.478
168.174
172.536
166.804
166.815
166.821
166.829
166.836
166.844
166.851
166.859
166.867
166.875
166.883
166.891
166.899
166.907
166.915
166.924
166.932
166.94
166.948
166.957
166.965
166.973
166.98
166.988
166.996
167.003
167.011
167.018
167.025
167.032
167.039
167.045
167.051
167.057
167.063
167.069
167.075
167.08
167.085
167.09
167.094
167.099
167.103
167.107
167.111
167.114
167.118
167.121
167.124
167.126
167.129
167.131
167.134
167.136
167.137
167.139
167.141
167.142
167.143
167.144
167.144
167.145
167.146
167.149
167.154
167.161
167.171
167.181
167.192
167.203
167.211
167.217
167.22
167.221
167.22
167.219
167.218
167.218
167.218
167.219
167.222
167.226
167.232
167.243
167.264
167.31
167.388
167.507
168.076
171.477
166.803
166.814
166.82
166.827
166.835
166.842
166.85
166.857
166.865
166.873
166.881
166.889
166.897
166.905
166.913
166.922
166.93
166.939
166.947
166.955
166.963
166.972
166.98
166.987
166.995
167.003
167.01
167.018
167.025
167.032
167.039
167.045
167.052
167.058
167.065
167.071
167.076
167.082
167.087
167.093
167.097
167.102
167.107
167.111
167.115
167.119
167.122
167.126
167.129
167.132
167.135
167.137
167.14
167.142
167.144
167.146
167.148
167.149
167.15
167.151
167.151
167.152
167.153
167.156
167.161
167.168
167.177
167.188
167.198
167.208
167.216
167.221
167.224
167.224
167.223
167.221
167.219
167.218
167.218
167.219
167.221
167.225
167.23
167.239
167.259
167.311
167.423
167.608
168.22
171.478
166.802
166.812
166.819
166.826
166.833
166.84
166.847
166.855
166.863
166.871
166.88
166.889
166.898
166.908
166.918
166.927
166.937
166.946
166.955
166.965
166.974
166.983
166.991
167
167.008
167.017
167.025
167.033
167.04
167.048
167.055
167.063
167.07
167.077
167.084
167.09
167.097
167.103
167.109
167.115
167.121
167.127
167.132
167.137
167.142
167.147
167.152
167.156
167.16
167.164
167.168
167.172
167.175
167.178
167.181
167.184
167.187
167.189
167.191
167.193
167.194
167.195
167.197
167.201
167.206
167.213
167.223
167.234
167.245
167.254
167.262
167.267
167.269
167.269
167.267
167.264
167.261
167.259
167.258
167.257
167.258
167.26
167.263
167.265
167.273
167.33
167.533
167.98
168.987
172.623
166.801
166.811
166.817
166.824
166.831
166.838
166.845
166.853
166.86
166.868
166.877
166.886
166.896
166.905
166.914
166.924
166.933
166.943
166.952
166.961
166.97
166.979
166.988
166.997
167.005
167.013
167.021
167.029
167.037
167.044
167.052
167.059
167.066
167.073
167.08
167.086
167.093
167.099
167.105
167.111
167.117
167.123
167.129
167.134
167.14
167.145
167.15
167.155
167.16
167.165
167.169
167.174
167.179
167.183
167.188
167.192
167.197
167.201
167.205
167.209
167.213
167.217
167.222
167.228
167.237
167.247
167.26
167.274
167.288
167.301
167.312
167.321
167.326
167.329
167.33
167.329
167.329
167.329
167.33
167.332
167.335
167.339
167.342
167.332
167.308
167.349
167.733
168.866
171.042
175.484
166.799
166.809
166.815
166.822
166.829
166.836
166.843
166.85
166.858
166.866
166.874
166.883
166.893
166.902
166.911
166.921
166.93
166.939
166.948
166.957
166.966
166.975
166.984
166.992
167
167.008
167.016
167.024
167.031
167.038
167.045
167.052
167.059
167.066
167.072
167.079
167.085
167.091
167.097
167.102
167.108
167.113
167.118
167.123
167.128
167.132
167.137
167.141
167.145
167.149
167.153
167.157
167.161
167.165
167.168
167.172
167.175
167.179
167.182
167.185
167.189
167.192
167.197
167.203
167.211
167.222
167.235
167.249
167.264
167.279
167.292
167.302
167.309
167.315
167.319
167.322
167.325
167.329
167.335
167.343
167.353
167.365
167.375
167.371
167.338
167.343
167.737
169.281
172.778
178.85
166.798
166.807
166.813
166.82
166.827
166.834
166.841
166.848
166.855
166.863
166.872
166.881
166.89
166.899
166.908
166.918
166.927
166.936
166.945
166.954
166.963
166.971
166.98
166.988
166.996
167.004
167.012
167.019
167.026
167.034
167.04
167.047
167.054
167.06
167.067
167.073
167.079
167.085
167.09
167.096
167.101
167.106
167.111
167.116
167.12
167.125
167.129
167.133
167.137
167.141
167.144
167.148
167.151
167.154
167.157
167.16
167.163
167.165
167.168
167.17
167.172
167.174
167.177
167.182
167.188
167.197
167.208
167.221
167.234
167.246
167.256
167.263
167.268
167.27
167.27
167.27
167.269
167.269
167.271
167.275
167.282
167.291
167.301
167.307
167.3
167.308
167.504
168.389
170.999
177.12
166.796
166.806
166.812
166.819
166.825
166.832
166.839
166.846
166.853
166.861
166.87
166.878
166.887
166.896
166.905
166.915
166.924
166.933
166.942
166.95
166.959
166.968
166.976
166.984
166.992
167
167.007
167.015
167.022
167.029
167.036
167.043
167.049
167.056
167.062
167.068
167.074
167.08
167.085
167.091
167.096
167.101
167.106
167.11
167.115
167.119
167.123
167.127
167.131
167.135
167.138
167.142
167.145
167.148
167.151
167.154
167.156
167.159
167.161
167.163
167.165
167.167
167.17
167.175
167.181
167.189
167.2
167.212
167.224
167.235
167.244
167.251
167.254
167.255
167.254
167.251
167.248
167.245
167.245
167.246
167.249
167.255
167.263
167.269
167.272
167.289
167.423
167.99
169.81
174.866
166.795
166.805
166.81
166.817
166.824
166.83
166.837
166.844
166.851
166.859
166.867
166.876
166.885
166.894
166.903
166.912
166.921
166.93
166.939
166.947
166.956
166.964
166.973
166.981
166.989
166.996
167.004
167.011
167.018
167.025
167.032
167.039
167.045
167.052
167.058
167.064
167.07
167.075
167.081
167.086
167.091
167.096
167.101
167.106
167.11
167.115
167.119
167.123
167.127
167.13
167.134
167.137
167.141
167.144
167.147
167.15
167.153
167.155
167.158
167.16
167.162
167.164
167.167
167.172
167.178
167.187
167.197
167.209
167.222
167.233
167.242
167.249
167.253
167.254
167.252
167.249
167.246
167.243
167.242
167.242
167.245
167.251
167.259
167.266
167.269
167.281
167.392
167.919
169.761
175.057
166.794
166.803
166.809
166.816
166.822
166.829
166.836
166.842
166.849
166.857
166.865
166.874
166.883
166.892
166.9
166.909
166.918
166.927
166.936
166.944
166.953
166.961
166.969
166.977
166.985
166.993
167
167.008
167.015
167.022
167.028
167.035
167.041
167.048
167.054
167.06
167.066
167.071
167.077
167.082
167.087
167.092
167.097
167.102
167.106
167.111
167.115
167.119
167.123
167.126
167.13
167.134
167.137
167.14
167.143
167.147
167.15
167.152
167.155
167.158
167.16
167.163
167.166
167.171
167.178
167.187
167.198
167.21
167.223
167.235
167.245
167.252
167.257
167.258
167.258
167.255
167.253
167.251
167.25
167.251
167.255
167.262
167.271
167.279
167.277
167.279
167.397
168.048
170.312
176.36
166.793
166.802
166.808
166.814
166.821
166.827
166.834
166.841
166.848
166.855
166.863
166.872
166.881
166.889
166.898
166.907
166.916
166.925
166.933
166.942
166.95
166.958
166.966
166.974
166.982
166.99
166.997
167.004
167.011
167.018
167.025
167.031
167.038
167.044
167.05
167.056
167.061
167.067
167.072
167.077
167.082
167.087
167.092
167.096
167.1
167.105
167.109
167.113
167.117
167.12
167.124
167.127
167.131
167.134
167.137
167.141
167.144
167.147
167.15
167.152
167.155
167.158
167.161
167.167
167.174
167.183
167.195
167.207
167.221
167.233
167.244
167.252
167.257
167.26
167.26
167.259
167.257
167.256
167.256
167.259
167.263
167.271
167.281
167.288
167.278
167.264
167.412
168.271
170.978
177.165
166.792
166.801
166.807
166.813
166.819
166.826
166.833
166.839
166.846
166.853
166.862
166.87
166.879
166.887
166.896
166.905
166.913
166.922
166.931
166.939
166.947
166.955
166.963
166.971
166.979
166.986
166.993
167
167.007
167.013
167.02
167.026
167.032
167.038
167.043
167.049
167.054
167.059
167.064
167.068
167.073
167.077
167.082
167.086
167.09
167.094
167.098
167.101
167.105
167.109
167.112
167.115
167.118
167.121
167.125
167.127
167.13
167.133
167.136
167.138
167.141
167.143
167.147
167.152
167.159
167.168
167.179
167.192
167.205
167.217
167.227
167.235
167.24
167.242
167.242
167.24
167.238
167.236
167.235
167.236
167.238
167.244
167.252
167.256
167.245
167.235
167.386
168.156
170.364
175.387
166.791
166.8
166.806
166.812
166.818
166.825
166.831
166.838
166.845
166.852
166.86
166.868
166.877
166.885
166.894
166.902
166.911
166.919
166.927
166.935
166.943
166.95
166.958
166.965
166.972
166.978
166.985
166.991
166.998
167.004
167.009
167.015
167.021
167.026
167.031
167.036
167.041
167.046
167.05
167.054
167.059
167.063
167.067
167.071
167.075
167.079
167.082
167.086
167.089
167.093
167.096
167.099
167.101
167.104
167.107
167.109
167.111
167.113
167.115
167.117
167.119
167.12
167.123
167.127
167.133
167.141
167.151
167.162
167.174
167.185
167.194
167.2
167.203
167.204
167.202
167.199
167.195
167.191
167.188
167.186
167.186
167.189
167.195
167.201
167.204
167.22
167.33
167.753
169.058
173.065
166.79
166.799
166.805
166.811
166.817
166.823
166.83
166.836
166.843
166.85
166.857
166.864
166.871
166.878
166.885
166.893
166.9
166.907
166.914
166.922
166.929
166.936
166.943
166.949
166.956
166.963
166.969
166.975
166.982
166.988
166.994
166.999
167.005
167.01
167.015
167.02
167.025
167.03
167.034
167.039
167.043
167.047
167.05
167.054
167.057
167.061
167.064
167.066
167.069
167.072
167.074
167.076
167.078
167.08
167.082
167.083
167.085
167.086
167.087
167.088
167.089
167.09
167.092
167.095
167.1
167.107
167.116
167.126
167.137
167.147
167.155
167.16
167.163
167.163
167.16
167.157
167.152
167.148
167.145
167.143
167.143
167.145
167.15
167.158
167.171
167.206
167.297
167.514
168.26
171.495
166.79
166.798
166.804
166.81
166.816
166.822
166.829
166.835
166.842
166.849
166.855
166.862
166.869
166.876
166.884
166.891
166.898
166.905
166.912
166.919
166.926
166.933
166.94
166.947
166.953
166.96
166.966
166.973
166.979
166.985
166.99
166.996
167.002
167.007
167.012
167.017
167.022
167.027
167.031
167.035
167.039
167.043
167.047
167.051
167.054
167.057
167.06
167.063
167.065
167.068
167.07
167.072
167.074
167.075
167.077
167.079
167.08
167.081
167.082
167.083
167.083
167.084
167.086
167.089
167.093
167.1
167.109
167.119
167.129
167.139
167.147
167.152
167.154
167.153
167.151
167.147
167.142
167.138
167.135
167.132
167.132
167.133
167.136
167.143
167.159
167.199
167.276
167.417
168.011
171.146
166.789
166.798
166.803
166.809
166.815
166.821
166.828
166.834
166.841
166.847
166.854
166.861
166.868
166.875
166.882
166.889
166.896
166.903
166.91
166.917
166.924
166.931
166.938
166.945
166.951
166.958
166.964
166.971
166.977
166.983
166.989
166.994
167
167.005
167.01
167.015
167.02
167.025
167.029
167.034
167.038
167.042
167.046
167.049
167.053
167.056
167.059
167.062
167.064
167.067
167.069
167.072
167.074
167.076
167.077
167.079
167.081
167.082
167.083
167.084
167.085
167.086
167.088
167.091
167.096
167.103
167.112
167.122
167.133
167.143
167.15
167.156
167.158
167.158
167.156
167.152
167.148
167.145
167.142
167.14
167.139
167.139
167.141
167.146
167.161
167.199
167.266
167.387
168.069
171.901
166.788
166.797
166.802
166.808
166.814
166.821
166.827
166.833
166.84
166.846
166.853
166.86
166.867
166.874
166.881
166.888
166.895
166.902
166.909
166.916
166.923
166.929
166.936
166.943
166.949
166.956
166.962
166.969
166.975
166.981
166.987
166.992
166.998
167.003
167.008
167.013
167.018
167.023
167.027
167.032
167.036
167.04
167.044
167.047
167.051
167.054
167.057
167.06
167.063
167.065
167.068
167.07
167.072
167.075
167.076
167.078
167.08
167.082
167.083
167.084
167.085
167.086
167.088
167.092
167.097
167.104
167.114
167.124
167.135
167.145
167.153
167.159
167.161
167.161
167.16
167.157
167.153
167.151
167.148
167.147
167.146
167.145
167.144
167.145
167.157
167.193
167.263
167.43
168.295
172.48
166.788
166.796
166.802
166.808
166.814
166.82
166.826
166.832
166.839
166.845
166.852
166.859
166.865
166.872
166.879
166.886
166.893
166.9
166.907
166.914
166.921
166.928
166.934
166.941
166.948
166.954
166.961
166.967
166.973
166.979
166.985
166.99
166.996
167.001
167.006
167.011
167.016
167.021
167.025
167.03
167.034
167.038
167.042
167.045
167.049
167.052
167.055
167.058
167.061
167.064
167.066
167.069
167.071
167.073
167.075
167.077
167.078
167.08
167.081
167.082
167.083
167.084
167.086
167.09
167.095
167.102
167.111
167.122
167.133
167.143
167.151
167.157
167.16
167.16
167.159
167.156
167.153
167.151
167.149
167.148
167.146
167.142
167.137
167.134
167.141
167.177
167.266
167.499
168.448
172.436
166.788
166.796
166.801
166.807
166.813
166.819
166.825
166.831
166.838
166.844
166.851
166.858
166.864
166.871
166.878
166.885
166.892
166.899
166.906
166.913
166.919
166.926
166.933
166.94
166.946
166.953
166.959
166.965
166.971
166.977
166.983
166.988
166.994
167
167.005
167.01
167.015
167.019
167.023
167.027
167.032
167.036
167.039
167.043
167.046
167.049
167.052
167.055
167.057
167.06
167.062
167.064
167.066
167.068
167.069
167.071
167.072
167.074
167.075
167.076
167.076
167.078
167.079
167.083
167.088
167.095
167.104
167.115
167.125
167.135
167.144
167.149
167.152
167.152
167.151
167.148
167.146
167.144
167.142
167.14
167.136
167.129
167.119
167.11
167.113
167.15
167.256
167.515
168.385
171.754
166.787
166.795
166.801
166.807
166.812
166.818
166.825
166.831
166.837
166.843
166.85
166.857
166.863
166.87
166.877
166.884
166.891
166.898
166.904
166.911
166.918
166.925
166.932
166.938
166.945
166.951
166.957
166.963
166.969
166.975
166.981
166.987
166.993
166.999
167.005
167.01
167.013
167.014
167.016
167.02
167.024
167.03
167.035
167.037
167.04
167.043
167.045
167.048
167.05
167.052
167.054
167.056
167.058
167.06
167.061
167.063
167.064
167.065
167.066
167.067
167.068
167.069
167.071
167.074
167.078
167.086
167.095
167.105
167.116
167.125
167.133
167.138
167.141
167.141
167.139
167.137
167.134
167.133
167.131
167.128
167.121
167.11
167.095
167.08
167.079
167.113
167.22
167.465
168.199
170.98
166.787
166.795
166.8
166.806
166.812
166.818
166.824
166.83
166.836
166.843
166.849
166.856
166.862
166.869
166.876
166.883
166.89
166.897
166.903
166.91
166.917
166.924
166.93
166.937
166.943
166.95
166.956
166.962
166.968
166.974
166.98
166.986
166.99
166.994
166.999
167.008
167.024
167.042
167.052
167.051
167.042
167.028
167.022
167.029
167.031
167.033
167.036
167.038
167.041
167.043
167.045
167.047
167.049
167.051
167.053
167.054
167.055
167.057
167.058
167.058
167.059
167.06
167.062
167.064
167.069
167.076
167.085
167.095
167.105
167.115
167.122
167.127
167.129
167.129
167.127
167.125
167.123
167.121
167.118
167.114
167.105
167.09
167.07
167.05
167.043
167.071
167.166
167.383
168.003
170.352
166.787
166.795
166.8
166.806
166.812
166.817
166.823
166.83
166.836
166.842
166.849
166.855
166.862
166.868
166.875
166.882
166.889
166.896
166.902
166.909
166.916
166.923
166.929
166.936
166.942
166.948
166.954
166.96
166.967
166.977
166.987
166.989
166.974
166.942
166.927
166.996
167.209
167.503
167.672
167.631
167.481
167.157
166.949
167.024
167.018
167.021
167.025
167.028
167.031
167.033
167.036
167.038
167.04
167.042
167.044
167.046
167.047
167.048
167.049
167.05
167.051
167.051
167.053
167.056
167.06
167.067
167.075
167.085
167.095
167.105
167.112
167.117
167.119
167.118
167.117
167.114
167.112
167.11
167.107
167.101
167.09
167.072
167.048
167.024
167.01
167.029
167.109
167.296
167.834
169.904
166.786
166.795
166.8
166.805
166.811
166.817
166.823
166.829
166.835
166.842
166.848
166.854
166.861
166.868
166.874
166.881
166.888
166.895
166.902
166.908
166.915
166.922
166.928
166.935
166.941
166.947
166.953
166.959
166.967
166.98
166.995
166.994
166.954
166.868
166.778
166.78
166.951
167.204
167.295
167.206
167.175
167.078
166.979
166.993
167.007
167.008
167.013
167.017
167.02
167.024
167.027
167.029
167.032
167.034
167.036
167.038
167.04
167.041
167.042
167.043
167.043
167.044
167.046
167.049
167.053
167.06
167.068
167.078
167.088
167.097
167.104
167.109
167.111
167.11
167.108
167.106
167.103
167.101
167.098
167.092
167.079
167.059
167.032
167.003
166.983
166.993
167.06
167.224
167.71
169.611
166.786
166.794
166.799
166.805
166.811
166.817
166.823
166.829
166.835
166.841
166.847
166.854
166.861
166.867
166.874
166.881
166.887
166.894
166.901
166.908
166.914
166.921
166.927
166.934
166.94
166.946
166.952
166.957
166.966
166.981
166.998
166.997
166.95
166.845
166.725
166.697
166.847
167.076
167.12
166.997
167.022
167.037
166.992
166.976
167
166.999
167.006
167.01
167.014
167.018
167.021
167.025
167.027
167.03
167.032
167.034
167.036
167.038
167.039
167.04
167.04
167.041
167.043
167.046
167.05
167.057
167.065
167.075
167.084
167.093
167.101
167.105
167.107
167.106
167.104
167.102
167.099
167.097
167.094
167.087
167.074
167.052
167.023
166.991
166.966
166.967
167.025
167.177
167.64
169.463
166.786
166.794
166.799
166.805
166.811
166.816
166.822
166.828
166.834
166.841
166.847
166.854
166.86
166.867
166.873
166.88
166.887
166.894
166.9
166.907
166.914
166.92
166.927
166.933
166.94
166.946
166.951
166.957
166.965
166.979
166.994
166.996
166.961
166.877
166.781
166.765
166.907
167.124
167.171
167.057
167.063
167.045
166.988
166.982
167.001
167.002
167.008
167.012
167.016
167.02
167.023
167.026
167.029
167.032
167.034
167.037
167.039
167.04
167.042
167.043
167.044
167.045
167.047
167.049
167.054
167.06
167.069
167.078
167.088
167.097
167.103
167.108
167.109
167.109
167.106
167.103
167.1
167.098
167.094
167.088
167.075
167.053
167.023
166.988
166.959
166.956
167.009
167.162
167.63
169.45
166.786
166.794
166.799
166.805
166.81
166.816
166.822
166.828
166.834
166.84
166.847
166.853
166.86
166.866
166.873
166.88
166.886
166.893
166.9
166.906
166.913
166.92
166.926
166.933
166.939
166.945
166.952
166.958
166.964
166.97
166.975
166.982
166.991
167.003
167.015
167.023
167.024
167.021
167.016
167.012
167.008
167.008
167.01
167.011
167.013
167.017
167.021
167.024
167.028
167.031
167.034
167.037
167.04
167.042
167.045
167.047
167.05
167.052
167.053
167.055
167.056
167.057
167.059
167.062
167.067
167.073
167.081
167.091
167.1
167.109
167.115
167.119
167.12
167.119
167.116
167.112
167.109
167.106
167.102
167.096
167.083
167.062
167.032
166.996
166.965
166.961
167.016
167.182
167.688
169.589
166.786
166.794
166.799
166.804
166.81
166.816
166.822
166.828
166.834
166.84
166.846
166.853
166.859
166.866
166.873
166.879
166.886
166.893
166.899
166.906
166.913
166.919
166.926
166.932
166.939
166.945
166.952
166.96
166.97
166.974
166.965
166.932
166.879
166.82
166.772
166.747
166.748
166.771
166.796
166.833
166.886
166.94
166.988
167.026
167.039
167.037
167.042
167.045
167.048
167.051
167.054
167.057
167.06
167.063
167.066
167.068
167.071
167.074
167.076
167.078
167.08
167.082
167.084
167.087
167.091
167.097
167.105
167.114
167.122
167.13
167.136
167.139
167.139
167.137
167.133
167.129
167.124
167.12
167.116
167.11
167.099
167.08
167.051
167.016
166.985
166.981
167.044
167.236
167.815
169.919
166.786
166.794
166.799
166.804
166.81
166.816
166.822
166.828
166.834
166.84
166.846
166.853
166.859
166.866
166.872
166.879
166.886
166.892
166.899
166.906
166.912
166.919
166.926
166.932
166.938
166.944
166.949
166.958
166.973
166.989
166.985
166.923
166.774
166.539
166.243
165.928
165.701
165.977
166.287
166.297
166.336
166.321
166.306
166.736
167.124
167.055
167.073
167.074
167.078
167.081
167.084
167.087
167.09
167.093
167.097
167.1
167.103
167.105
167.107
167.107
167.107
167.106
167.105
167.104
167.106
167.109
167.114
167.121
167.129
167.136
167.142
167.145
167.145
167.144
167.14
167.136
167.132
167.129
167.125
167.121
167.112
167.096
167.071
167.04
167.011
167.011
167.082
167.301
167.974
170.337
166.785
166.793
166.798
166.804
166.81
166.816
166.821
166.827
166.834
166.84
166.846
166.853
166.859
166.866
166.872
166.879
166.885
166.892
166.899
166.905
166.912
166.919
166.925
166.931
166.939
166.949
166.955
166.939
166.891
166.862
166.996
167.48
168.392
169.619
170.941
172.153
172.919
171.997
170.921
170.646
170.164
169.85
169.609
168.117
166.917
167.175
167.117
167.129
167.125
167.125
167.125
167.125
167.126
167.126
167.125
167.123
167.12
167.115
167.109
167.104
167.098
167.094
167.092
167.091
167.092
167.096
167.102
167.11
167.118
167.126
167.132
167.136
167.138
167.137
167.134
167.131
167.127
167.124
167.121
167.118
167.112
167.1
167.08
167.055
167.032
167.036
167.112
167.347
168.061
170.411
166.785
166.793
166.798
166.804
166.81
166.815
166.821
166.827
166.833
166.84
166.846
166.852
166.859
166.865
166.872
166.878
166.885
166.892
166.898
166.905
166.913
166.921
166.925
166.92
166.918
166.951
167.049
167.157
167.088
166.635
165.853
165.204
165.223
165.981
167.041
168.116
167.184
167.16
167.154
167.147
167.144
167.14
167.136
167.132
167.126
167.118
167.109
167.101
167.095
167.09
167.085
167.081
167.078
167.075
167.074
167.074
167.076
167.081
167.088
167.096
167.105
167.113
167.12
167.124
167.126
167.126
167.124
167.12
167.117
167.114
167.111
167.108
167.103
167.094
167.079
167.059
167.043
167.052
167.128
167.351
167.989
170.048
166.785
166.793
166.798
166.804
166.81
166.815
166.821
166.827
166.833
166.839
166.846
166.852
166.859
166.865
166.872
166.878
166.885
166.891
166.898
166.906
166.913
166.92
166.923
166.922
166.928
166.969
167.069
167.177
167.109
166.642
165.821
165.118
165.109
165.904
167.012
168.069
167.149
167.132
167.127
167.122
167.118
167.112
167.106
167.099
167.092
167.086
167.08
167.075
167.072
167.069
167.066
167.063
167.061
167.059
167.058
167.059
167.062
167.067
167.075
167.084
167.093
167.102
167.109
167.113
167.115
167.115
167.113
167.11
167.107
167.104
167.101
167.098
167.092
167.084
167.072
167.057
167.047
167.059
167.127
167.311
167.829
169.645
166.785
166.793
166.798
166.804
166.809
166.815
166.821
166.827
166.833
166.839
166.846
166.852
166.858
166.865
166.871
166.877
166.884
166.894
166.906
166.913
166.905
166.88
166.855
166.885
167.023
167.242
167.415
167.47
167.351
166.729
165.7
164.886
164.75
165.547
166.813
168.061
167.122
167.104
167.098
167.092
167.087
167.082
167.077
167.072
167.068
167.064
167.06
167.057
167.055
167.053
167.051
167.049
167.047
167.046
167.046
167.048
167.051
167.057
167.065
167.074
167.083
167.092
167.1
167.104
167.107
167.107
167.105
167.102
167.099
167.096
167.093
167.089
167.084
167.075
167.064
167.051
167.043
167.055
167.111
167.253
167.683
169.363
166.785
166.793
166.798
166.804
166.809
166.815
166.821
166.827
166.833
166.839
166.846
166.852
166.858
166.865
166.87
166.876
166.885
166.9
166.917
166.921
166.883
166.788
166.666
166.606
166.683
166.84
166.901
166.889
166.939
166.619
165.677
164.658
164.426
165.167
166.527
167.982
167.104
167.086
167.079
167.073
167.068
167.063
167.059
167.055
167.051
167.048
167.046
167.044
167.042
167.041
167.04
167.039
167.038
167.037
167.038
167.04
167.043
167.049
167.058
167.067
167.077
167.086
167.094
167.099
167.101
167.102
167.1
167.097
167.095
167.092
167.089
167.084
167.078
167.069
167.057
167.045
167.037
167.045
167.089
167.202
167.583
169.205
166.785
166.793
166.798
166.804
166.809
166.815
166.821
166.827
166.833
166.839
166.846
166.852
166.859
166.865
166.87
166.876
166.886
166.902
166.923
166.927
166.879
166.757
166.592
166.485
166.522
166.629
166.609
166.546
166.686
166.544
165.666
164.545
164.259
164.908
166.223
167.769
167.095
167.074
167.067
167.061
167.055
167.05
167.046
167.042
167.04
167.038
167.036
167.035
167.034
167.033
167.032
167.032
167.032
167.032
167.033
167.035
167.039
167.046
167.054
167.064
167.074
167.084
167.091
167.097
167.099
167.1
167.098
167.096
167.093
167.091
167.088
167.084
167.077
167.068
167.056
167.042
167.032
167.036
167.071
167.172
167.543
169.169
166.785
166.793
166.798
166.804
166.81
166.815
166.821
166.827
166.833
166.84
166.846
166.852
166.859
166.865
166.871
166.877
166.886
166.901
166.919
166.925
166.887
166.783
166.64
166.541
166.564
166.648
166.625
166.571
166.695
166.53
165.644
164.522
164.202
164.771
165.991
167.531
167.092
167.068
167.06
167.052
167.046
167.041
167.037