/*--------------------------------*- C++ -*----------------------------------*\
| =========                 |                                                 |
| \\      /  F ield         | OpenFOAM: The Open Source CFD Toolbox           |
|  \\    /   O peration     | Version:  v2012                                 |
|   \\  /    A nd           | Website:  www.openfoam.com                      |
|    \\/     M anipulation  |                                                 |
\*---------------------------------------------------------------------------*/
FoamFile
{
    version     2.0;
    format      ascii;
    class       volScalarField;
    location    "300/air";
    object      ILambda_45_0;
}
// * * * * * * * * * * * * * * * * * * * * * * * * * * * * * * * * * * * * * //

dimensions      [1 0 -3 0 0 0 0];


internalField   nonuniform List<scalar> 
287104
(
166.916
166.936
166.948
166.962
166.975
166.988
167.001
167.013
167.025
167.037
167.049
167.061
167.073
167.084
167.096
167.107
167.118
167.129
167.14
167.151
167.162
167.173
167.183
167.194
167.205
167.215
167.226
167.236
167.246
167.257
167.267
167.277
167.287
167.297
167.307
167.317
167.326
167.336
167.346
167.355
167.365
167.374
167.384
167.393
167.402
167.412
167.421
167.431
167.441
167.45
167.46
167.47
167.48
167.491
167.501
167.512
167.524
167.535
167.547
167.56
167.573
167.587
167.602
167.618
167.635
167.654
167.675
167.699
167.726
167.757
167.792
167.833
167.881
167.937
168.003
168.083
168.178
168.292
168.427
168.587
168.777
169.009
169.308
169.725
170.349
171.321
172.84
175.141
178.44
182.833
166.907
166.926
166.939
166.952
166.965
166.977
166.989
167.002
167.013
167.025
167.037
167.048
167.06
167.071
167.082
167.093
167.104
167.115
167.126
167.136
167.147
167.158
167.168
167.179
167.189
167.2
167.21
167.22
167.23
167.241
167.251
167.261
167.271
167.281
167.291
167.301
167.31
167.32
167.33
167.339
167.349
167.358
167.368
167.377
167.387
167.396
167.406
167.415
167.425
167.435
167.445
167.455
167.465
167.476
167.486
167.497
167.509
167.52
167.532
167.545
167.558
167.572
167.587
167.604
167.621
167.64
167.661
167.685
167.711
167.742
167.776
167.816
167.863
167.917
167.982
168.059
168.152
168.262
168.394
168.549
168.734
168.959
169.249
169.653
170.258
171.204
172.685
174.934
178.159
182.45
166.902
166.922
166.934
166.947
166.959
166.971
166.983
166.995
167.007
167.018
167.03
167.041
167.052
167.063
167.074
167.084
167.095
167.106
167.116
167.127
167.137
167.148
167.158
167.168
167.179
167.189
167.199
167.209
167.219
167.23
167.24
167.25
167.259
167.269
167.279
167.289
167.299
167.308
167.318
167.327
167.337
167.346
167.355
167.365
167.374
167.384
167.393
167.403
167.412
167.422
167.432
167.442
167.452
167.462
167.473
167.484
167.495
167.507
167.519
167.531
167.544
167.558
167.573
167.588
167.606
167.624
167.645
167.668
167.694
167.723
167.756
167.795
167.84
167.892
167.955
168.029
168.119
168.225
168.352
168.502
168.68
168.896
169.174
169.559
170.137
171.041
172.463
174.637
177.776
181.977
166.897
166.916
166.928
166.94
166.952
166.964
166.976
166.988
166.999
167.01
167.021
167.032
167.043
167.054
167.064
167.075
167.085
167.095
167.106
167.116
167.126
167.136
167.146
167.157
167.167
167.177
167.187
167.197
167.207
167.217
167.227
167.236
167.246
167.256
167.266
167.275
167.285
167.295
167.304
167.313
167.323
167.332
167.342
167.351
167.36
167.369
167.379
167.388
167.398
167.408
167.417
167.427
167.437
167.448
167.458
167.469
167.48
167.492
167.504
167.516
167.529
167.543
167.557
167.573
167.59
167.608
167.628
167.651
167.676
167.704
167.736
167.773
167.816
167.866
167.926
167.997
168.083
168.185
168.307
168.452
168.625
168.838
169.114
169.499
170.077
170.98
172.393
174.54
177.626
181.747
166.892
166.911
166.922
166.935
166.946
166.958
166.97
166.981
166.992
167.003
167.014
167.024
167.035
167.045
167.055
167.065
167.076
167.086
167.096
167.106
167.115
167.125
167.135
167.145
167.155
167.165
167.175
167.184
167.194
167.204
167.214
167.223
167.233
167.242
167.252
167.261
167.271
167.28
167.29
167.299
167.308
167.317
167.327
167.336
167.345
167.354
167.363
167.373
167.382
167.392
167.401
167.411
167.421
167.431
167.442
167.452
167.463
167.475
167.486
167.499
167.511
167.525
167.539
167.554
167.571
167.589
167.608
167.63
167.654
167.681
167.712
167.747
167.787
167.834
167.89
167.956
168.036
168.131
168.245
168.381
168.545
168.747
169.013
169.392
169.969
170.878
172.3
174.445
177.501
181.547
166.888
166.906
166.917
166.929
166.941
166.952
166.964
166.974
166.985
166.996
167.006
167.017
167.027
167.037
167.047
167.057
167.067
167.076
167.086
167.096
167.105
167.115
167.124
167.134
167.143
167.153
167.162
167.172
167.181
167.191
167.2
167.21
167.219
167.229
167.238
167.247
167.256
167.265
167.275
167.284
167.293
167.302
167.311
167.319
167.328
167.337
167.346
167.355
167.365
167.374
167.383
167.393
167.402
167.412
167.422
167.433
167.443
167.454
167.466
167.477
167.49
167.503
167.517
167.531
167.547
167.564
167.583
167.604
167.627
167.653
167.682
167.714
167.751
167.794
167.844
167.904
167.975
168.06
168.161
168.28
168.423
168.598
168.831
169.169
169.7
170.563
171.948
174.067
177.098
181.092
166.884
166.902
166.913
166.925
166.936
166.947
166.958
166.969
166.979
166.99
167
167.01
167.02
167.03
167.039
167.049
167.058
167.068
167.077
167.086
167.096
167.105
167.114
167.123
167.133
167.142
167.151
167.16
167.169
167.178
167.187
167.196
167.206
167.215
167.224
167.232
167.241
167.25
167.259
167.268
167.276
167.285
167.293
167.302
167.31
167.319
167.327
167.336
167.345
167.353
167.362
167.371
167.38
167.389
167.399
167.408
167.418
167.428
167.439
167.449
167.461
167.473
167.486
167.5
167.515
167.531
167.549
167.569
167.591
167.616
167.643
167.674
167.709
167.749
167.794
167.846
167.906
167.977
168.06
168.157
168.269
168.404
168.579
168.832
169.244
169.946
171.135
173.055
175.928
179.842
166.88
166.898
166.909
166.92
166.931
166.942
166.953
166.964
166.974
166.984
166.994
167.004
167.013
167.023
167.032
167.042
167.051
167.06
167.069
167.078
167.087
167.096
167.105
167.114
167.122
167.131
167.14
167.149
167.158
167.167
167.175
167.184
167.193
167.202
167.21
167.219
167.227
167.236
167.244
167.253
167.261
167.269
167.277
167.285
167.293
167.301
167.308
167.316
167.324
167.332
167.34
167.348
167.356
167.364
167.372
167.38
167.389
167.398
167.407
167.416
167.426
167.437
167.448
167.461
167.475
167.49
167.507
167.526
167.549
167.574
167.603
167.636
167.674
167.716
167.764
167.817
167.876
167.94
168.01
168.085
168.166
168.257
168.371
168.536
168.812
169.302
170.174
171.657
174.011
177.422
166.877
166.894
166.905
166.916
166.927
166.938
166.949
166.959
166.969
166.979
166.989
166.999
167.008
167.018
167.027
167.036
167.045
167.055
167.064
167.073
167.082
167.091
167.099
167.108
167.117
167.126
167.135
167.144
167.153
167.162
167.171
167.18
167.189
167.198
167.207
167.216
167.224
167.233
167.242
167.25
167.258
167.267
167.275
167.283
167.291
167.298
167.306
167.314
167.321
167.329
167.336
167.344
167.352
167.359
167.367
167.375
167.383
167.391
167.399
167.408
167.417
167.427
167.438
167.45
167.463
167.478
167.495
167.516
167.54
167.569
167.604
167.645
167.695
167.755
167.824
167.905
167.994
168.09
168.186
168.276
168.355
168.42
168.482
168.569
168.736
169.078
169.73
170.873
172.707
175.381
166.874
166.891
166.902
166.913
166.924
166.934
166.945
166.955
166.966
166.976
166.987
166.998
167.008
167.019
167.03
167.041
167.051
167.062
167.072
167.083
167.094
167.104
167.114
167.125
167.135
167.146
167.157
167.167
167.178
167.188
167.199
167.21
167.221
167.232
167.243
167.254
167.265
167.276
167.286
167.297
167.308
167.319
167.329
167.34
167.35
167.36
167.371
167.381
167.391
167.401
167.411
167.42
167.43
167.44
167.449
167.459
167.469
167.479
167.488
167.498
167.509
167.52
167.531
167.544
167.558
167.574
167.593
167.615
167.641
167.675
167.716
167.769
167.836
167.922
168.031
168.167
168.331
168.521
168.729
168.94
169.131
169.281
169.376
169.43
169.497
169.689
170.172
171.146
172.806
175.272
166.872
166.888
166.898
166.91
166.92
166.931
166.941
166.952
166.964
166.978
166.993
167.008
167.024
167.039
167.054
167.069
167.084
167.099
167.113
167.127
167.141
167.154
167.167
167.18
167.193
167.205
167.218
167.23
167.243
167.255
167.268
167.28
167.293
167.305
167.318
167.331
167.344
167.357
167.37
167.383
167.397
167.41
167.424
167.437
167.451
167.465
167.478
167.492
167.506
167.52
167.534
167.548
167.562
167.577
167.591
167.605
167.62
167.634
167.649
167.663
167.679
167.694
167.711
167.728
167.746
167.766
167.789
167.815
167.846
167.884
167.931
167.991
168.071
168.176
168.316
168.503
168.747
169.055
169.43
169.862
170.325
170.778
171.169
171.456
171.638
171.793
172.102
172.84
174.298
176.653
166.869
166.885
166.896
166.907
166.917
166.928
166.938
166.949
166.961
166.974
166.989
167.004
167.019
167.034
167.049
167.064
167.079
167.093
167.107
167.121
167.135
167.148
167.161
167.174
167.186
167.198
167.21
167.222
167.234
167.246
167.258
167.27
167.281
167.293
167.306
167.318
167.33
167.343
167.355
167.368
167.381
167.395
167.408
167.422
167.436
167.45
167.465
167.48
167.496
167.512
167.528
167.545
167.562
167.58
167.598
167.617
167.636
167.656
167.676
167.697
167.719
167.741
167.765
167.79
167.816
167.844
167.875
167.909
167.948
167.992
168.045
168.109
168.191
168.297
168.438
168.629
168.886
169.23
169.681
170.251
170.944
171.74
172.596
173.445
174.215
174.87
175.469
176.215
177.449
179.502
166.867
166.883
166.893
166.904
166.914
166.925
166.935
166.946
166.957
166.97
166.985
167
167.015
167.03
167.045
167.059
167.074
167.088
167.101
167.115
167.128
167.141
167.153
167.165
167.177
167.188
167.2
167.211
167.222
167.232
167.243
167.254
167.265
167.276
167.287
167.298
167.309
167.32
167.331
167.342
167.353
167.365
167.376
167.388
167.399
167.411
167.423
167.436
167.448
167.461
167.474
167.487
167.501
167.515
167.53
167.545
167.56
167.577
167.593
167.611
167.63
167.65
167.671
167.694
167.718
167.745
167.775
167.808
167.846
167.889
167.939
167.999
168.072
168.162
168.277
168.427
168.626
168.891
169.243
169.708
170.308
171.066
171.995
173.093
174.342
175.711
177.173
178.742
180.511
182.667
166.865
166.881
166.891
166.902
166.912
166.922
166.932
166.943
166.954
166.967
166.982
166.996
167.011
167.026
167.04
167.055
167.069
167.083
167.096
167.109
167.122
167.134
167.147
167.158
167.17
167.181
167.192
167.203
167.213
167.224
167.234
167.245
167.255
167.266
167.276
167.287
167.297
167.308
167.318
167.329
167.34
167.351
167.362
167.372
167.383
167.395
167.406
167.417
167.429
167.44
167.452
167.464
167.476
167.488
167.5
167.513
167.526
167.539
167.552
167.566
167.58
167.595
167.611
167.628
167.646
167.666
167.688
167.713
167.741
167.774
167.813
167.858
167.914
167.982
168.067
168.175
168.313
168.49
168.717
169.007
169.376
169.84
170.42
171.146
172.058
173.21
174.672
176.514
178.77
181.421
166.863
166.879
166.889
166.899
166.909
166.919
166.93
166.94
166.951
166.964
166.978
166.993
167.007
167.022
167.036
167.05
167.064
167.078
167.091
167.104
167.116
167.129
167.14
167.152
167.163
167.174
167.185
167.196
167.206
167.216
167.226
167.237
167.247
167.257
167.267
167.278
167.288
167.298
167.309
167.319
167.33
167.341
167.351
167.362
167.373
167.384
167.395
167.407
167.418
167.43
167.441
167.453
167.465
167.478
167.49
167.503
167.516
167.529
167.542
167.556
167.57
167.584
167.6
167.616
167.633
167.652
167.672
167.695
167.722
167.752
167.788
167.83
167.882
167.947
168.028
168.13
168.26
168.425
168.632
168.891
169.208
169.594
170.058
170.617
171.299
172.152
173.253
174.701
176.6
179.004
166.862
166.877
166.887
166.897
166.907
166.917
166.927
166.937
166.948
166.961
166.975
166.989
167.003
167.018
167.032
167.046
167.059
167.073
167.086
167.099
167.111
167.123
167.135
167.146
167.157
167.168
167.179
167.189
167.199
167.209
167.219
167.229
167.239
167.25
167.26
167.27
167.28
167.29
167.301
167.311
167.322
167.332
167.343
167.354
167.365
167.376
167.387
167.399
167.41
167.422
167.434
167.447
167.459
167.472
167.485
167.498
167.512
167.526
167.54
167.555
167.57
167.585
167.601
167.619
167.637
167.657
167.678
167.702
167.73
167.761
167.798
167.843
167.898
167.966
168.054
168.167
168.312
168.5
168.738
169.037
169.405
169.851
170.382
171.013
171.767
172.685
173.833
175.297
177.168
179.503
166.86
166.875
166.885
166.895
166.905
166.915
166.925
166.935
166.946
166.958
166.972
166.986
167
167.014
167.028
167.041
167.055
167.068
167.081
167.093
167.106
167.118
167.129
167.14
167.151
167.162
167.172
167.182
167.192
167.202
167.212
167.222
167.231
167.241
167.25
167.26
167.27
167.28
167.29
167.3
167.31
167.32
167.331
167.341
167.352
167.363
167.375
167.386
167.398
167.41
167.423
167.436
167.449
167.462
167.476
167.491
167.505
167.52
167.536
167.552
167.568
167.585
167.603
167.622
167.642
167.664
167.687
167.713
167.742
167.775
167.814
167.86
167.917
167.989
168.082
168.204
168.366
168.579
168.859
169.217
169.668
170.223
170.889
171.678
172.607
173.709
175.039
176.669
178.668
181.078
166.859
166.874
166.883
166.893
166.903
166.913
166.922
166.932
166.943
166.955
166.969
166.982
166.996
167.01
167.024
167.037
167.05
167.063
167.076
167.088
167.1
167.112
167.123
167.134
167.144
167.154
167.164
167.173
167.182
167.191
167.2
167.209
167.218
167.226
167.235
167.243
167.252
167.26
167.269
167.278
167.287
167.296
167.306
167.316
167.326
167.336
167.347
167.358
167.369
167.381
167.393
167.406
167.419
167.432
167.446
167.461
167.476
167.491
167.507
167.524
167.541
167.56
167.579
167.599
167.62
167.643
167.667
167.694
167.724
167.757
167.795
167.839
167.893
167.96
168.045
168.157
168.307
168.509
168.779
169.135
169.593
170.17
170.877
171.725
172.727
173.907
175.306
176.98
178.976
181.317
166.857
166.872
166.882
166.891
166.901
166.91
166.92
166.93
166.94
166.952
166.965
166.979
166.993
167.006
167.019
167.032
167.045
167.058
167.069
167.081
167.092
167.103
167.113
167.122
167.131
167.14
167.148
167.156
167.163
167.171
167.178
167.185
167.192
167.198
167.205
167.212
167.219
167.225
167.232
167.24
167.247
167.255
167.263
167.271
167.28
167.289
167.298
167.308
167.317
167.328
167.338
167.349
167.361
167.373
167.385
167.398
167.412
167.426
167.441
167.456
167.472
167.489
167.507
167.526
167.545
167.567
167.589
167.614
167.64
167.67
167.703
167.74
167.784
167.836
167.901
167.983
168.091
168.234
168.424
168.675
169.001
169.418
169.935
170.566
171.325
172.241
173.367
174.792
176.631
178.992
166.856
166.871
166.88
166.89
166.899
166.908
166.918
166.927
166.937
166.948
166.96
166.973
166.985
166.998
167.01
167.021
167.032
167.043
167.053
167.062
167.071
167.079
167.087
167.094
167.101
167.108
167.114
167.12
167.126
167.132
167.137
167.143
167.148
167.154
167.159
167.164
167.17
167.175
167.181
167.187
167.193
167.199
167.205
167.212
167.219
167.226
167.233
167.241
167.249
167.257
167.265
167.273
167.282
167.291
167.301
167.31
167.321
167.331
167.342
167.354
167.367
167.38
167.394
167.41
167.426
167.444
167.463
167.483
167.506
167.531
167.559
167.59
167.626
167.668
167.716
167.775
167.848
167.937
168.049
168.188
168.361
168.577
168.845
169.185
169.627
170.232
171.095
172.356
174.174
176.662
166.855
166.869
166.878
166.888
166.897
166.906
166.915
166.924
166.932
166.941
166.949
166.957
166.964
166.972
166.98
166.987
166.994
167.002
167.009
167.016
167.023
167.03
167.037
167.043
167.05
167.056
167.063
167.069
167.075
167.081
167.087
167.092
167.098
167.103
167.108
167.113
167.118
167.123
167.128
167.132
167.137
167.141
167.145
167.149
167.153
167.157
167.161
167.165
167.169
167.173
167.178
167.182
167.187
167.192
167.198
167.204
167.211
167.218
167.226
167.235
167.244
167.255
167.267
167.28
167.295
167.311
167.329
167.35
167.372
167.398
167.426
167.458
167.493
167.534
167.581
167.636
167.699
167.773
167.859
167.958
168.07
168.197
168.347
168.538
168.806
169.221
169.89
170.96
172.598
174.926
166.853
166.867
166.876
166.886
166.895
166.904
166.913
166.921
166.93
166.938
166.947
166.955
166.962
166.97
166.977
166.984
166.991
166.997
167.004
167.011
167.017
167.024
167.03
167.037
167.043
167.049
167.056
167.062
167.068
167.073
167.079
167.084
167.09
167.095
167.099
167.104
167.108
167.113
167.117
167.121
167.124
167.128
167.131
167.134
167.137
167.14
167.143
167.146
167.149
167.152
167.155
167.158
167.161
167.165
167.169
167.174
167.179
167.185
167.191
167.199
167.207
167.217
167.228
167.241
167.255
167.271
167.29
167.311
167.336
167.363
167.394
167.429
167.468
167.513
167.565
167.624
167.691
167.769
167.857
167.955
168.064
168.185
168.324
168.501
168.757
169.161
169.822
170.883
172.492
174.744
166.852
166.865
166.874
166.883
166.892
166.901
166.909
166.918
166.927
166.935
166.944
166.952
166.96
166.968
166.975
166.982
166.989
166.995
167.001
167.007
167.012
167.018
167.024
167.029
167.035
167.041
167.048
167.054
167.06
167.066
167.072
167.078
167.083
167.088
167.093
167.097
167.101
167.105
167.109
167.112
167.116
167.119
167.122
167.124
167.127
167.129
167.131
167.134
167.136
167.138
167.141
167.144
167.146
167.15
167.153
167.157
167.162
167.167
167.173
167.18
167.188
167.197
167.208
167.22
167.235
167.252
167.271
167.294
167.32
167.35
167.385
167.424
167.469
167.52
167.579
167.648
167.726
167.817
167.921
168.039
168.172
168.323
168.503
168.733
169.062
169.569
170.379
171.655
173.574
176.256
166.85
166.864
166.872
166.881
166.889
166.897
166.905
166.913
166.921
166.929
166.937
166.945
166.954
166.962
166.971
166.979
166.986
166.993
166.999
167.005
167.01
167.014
167.019
167.023
167.027
167.032
167.037
167.042
167.047
167.053
167.059
167.065
167.072
167.078
167.084
167.089
167.093
167.097
167.101
167.104
167.107
167.109
167.111
167.113
167.115
167.117
167.118
167.119
167.121
167.122
167.124
167.125
167.127
167.129
167.131
167.134
167.137
167.141
167.146
167.151
167.158
167.166
167.175
167.186
167.199
167.215
167.234
167.256
167.282
167.312
167.347
167.388
167.435
167.49
167.554
167.628
167.714
167.815
167.932
168.068
168.225
168.408
168.63
168.915
169.312
169.902
170.808
172.185
174.189
176.915
166.849
166.863
166.871
166.879
166.887
166.894
166.901
166.907
166.912
166.917
166.923
166.929
166.936
166.943
166.951
166.96
166.97
166.979
166.988
166.997
167.005
167.012
167.017
167.022
167.026
167.029
167.031
167.033
167.035
167.037
167.04
167.044
167.05
167.057
167.066
167.074
167.082
167.088
167.093
167.096
167.098
167.099
167.1
167.101
167.101
167.102
167.102
167.101
167.101
167.101
167.1
167.1
167.1
167.1
167.1
167.1
167.101
167.103
167.105
167.107
167.111
167.116
167.123
167.131
167.141
167.154
167.17
167.189
167.212
167.24
167.272
167.311
167.356
167.409
167.471
167.544
167.63
167.731
167.849
167.987
168.147
168.335
168.561
168.847
169.237
169.804
170.662
171.96
173.851
176.432
166.849
166.863
166.871
166.88
166.887
166.893
166.898
166.902
166.904
166.905
166.905
166.905
166.905
166.907
166.91
166.916
166.925
166.935
166.948
166.962
166.978
166.993
167.008
167.021
167.033
167.043
167.05
167.055
167.057
167.056
167.054
167.051
167.048
167.047
167.05
167.056
167.065
167.074
167.08
167.084
167.085
167.083
167.082
167.08
167.078
167.076
167.073
167.071
167.068
167.065
167.062
167.06
167.057
167.055
167.053
167.051
167.05
167.049
167.048
167.049
167.05
167.052
167.056
167.061
167.068
167.077
167.089
167.104
167.123
167.146
167.174
167.207
167.247
167.295
167.351
167.418
167.496
167.589
167.697
167.823
167.969
168.138
168.338
168.586
168.917
169.391
170.107
171.202
172.82
175.058
166.852
166.864
166.87
166.876
166.881
166.884
166.886
166.887
166.885
166.882
166.877
166.872
166.865
166.859
166.855
166.853
166.854
166.861
166.871
166.887
166.907
166.931
166.958
166.988
167.019
167.051
167.083
167.114
167.141
167.164
167.179
167.184
167.178
167.162
167.139
167.114
167.092
167.075
167.066
167.062
167.059
167.055
167.051
167.047
167.043
167.039
167.036
167.032
167.028
167.024
167.02
167.017
167.013
167.01
167.006
167.003
167
166.998
166.996
166.994
166.993
166.993
166.994
166.996
166.999
167.005
167.013
167.023
167.037
167.055
167.077
167.105
167.138
167.179
167.227
167.285
167.354
167.436
167.532
167.644
167.772
167.92
168.092
168.301
168.576
168.966
169.554
170.458
171.816
173.733
166.857
166.866
166.867
166.864
166.857
166.847
166.834
166.82
166.805
166.791
166.778
166.766
166.757
166.75
166.746
166.746
166.748
166.754
166.765
166.78
166.8
166.826
166.857
166.895
166.941
166.995
167.057
167.129
167.208
167.29
167.369
167.434
167.476
167.482
167.448
167.375
167.276
167.171
167.084
167.033
167.016
167.017
167.017
167.013
167.009
167.007
167.003
167
166.996
166.993
166.989
166.985
166.981
166.977
166.972
166.968
166.964
166.96
166.956
166.953
166.949
166.947
166.945
166.944
166.945
166.947
166.951
166.957
166.967
166.979
166.996
167.018
167.045
167.079
167.12
167.17
167.231
167.303
167.388
167.487
167.6
167.729
167.879
168.059
168.295
168.628
169.131
169.902
171.061
172.712
166.859
166.869
166.867
166.856
166.835
166.802
166.76
166.709
166.654
166.598
166.546
166.502
166.47
166.452
166.447
166.456
166.476
166.506
166.543
166.583
166.626
166.67
166.714
166.761
166.812
166.87
166.94
167.025
167.127
167.245
167.371
167.496
167.601
167.665
167.668
167.6
167.466
167.29
167.117
166.999
166.954
166.97
166.992
166.986
166.985
166.984
166.982
166.98
166.977
166.974
166.97
166.965
166.961
166.956
166.951
166.945
166.94
166.935
166.929
166.924
166.919
166.915
166.911
166.908
166.906
166.905
166.906
166.909
166.914
166.923
166.936
166.953
166.975
167.003
167.038
167.082
167.135
167.199
167.276
167.365
167.467
167.583
167.716
167.877
168.086
168.382
168.829
169.517
170.547
172.008
166.84
166.867
166.882
166.89
166.886
166.865
166.821
166.755
166.666
166.558
166.44
166.319
166.205
166.109
166.037
165.996
165.987
166.008
166.058
166.129
166.215
166.309
166.406
166.503
166.597
166.688
166.779
166.875
166.976
167.084
167.195
167.299
167.381
167.427
167.423
167.365
167.265
167.148
167.045
166.982
166.956
166.961
166.974
166.974
166.974
166.974
166.973
166.972
166.97
166.967
166.963
166.959
166.954
166.949
166.943
166.937
166.931
166.925
166.918
166.912
166.906
166.9
166.894
166.889
166.885
166.882
166.881
166.882
166.885
166.89
166.9
166.913
166.932
166.956
166.987
167.026
167.074
167.133
167.203
167.285
167.38
167.488
167.611
167.759
167.951
168.224
168.637
169.272
170.221
171.563
166.792
166.837
166.891
166.962
167.043
167.126
167.199
167.25
167.266
167.239
167.163
167.04
166.878
166.687
166.483
166.283
166.103
165.956
165.851
165.792
165.78
165.811
165.88
165.979
166.102
166.241
166.391
166.548
166.71
166.873
167.031
167.174
167.287
167.357
167.371
167.329
167.245
167.146
167.06
167.008
166.98
166.975
166.982
166.984
166.985
166.986
166.986
166.985
166.983
166.98
166.977
166.973
166.968
166.963
166.957
166.951
166.944
166.937
166.93
166.922
166.915
166.908
166.901
166.895
166.889
166.885
166.882
166.88
166.881
166.885
166.892
166.904
166.92
166.941
166.97
167.006
167.051
167.107
167.174
167.253
167.344
167.448
167.567
167.709
167.893
168.155
168.551
169.16
170.067
171.347
166.733
166.759
166.83
166.951
167.13
167.369
167.659
167.985
168.322
168.641
168.911
169.105
169.199
169.183
169.056
168.826
168.514
168.144
167.744
167.34
166.959
166.62
166.339
166.124
165.98
165.907
165.901
165.957
166.065
166.216
166.395
166.587
166.773
166.932
167.045
167.104
167.113
167.094
167.072
167.06
167.047
167.039
167.033
167.024
167.024
167.026
167.024
167.023
167.021
167.019
167.015
167.011
167.007
167.002
166.996
166.989
166.983
166.976
166.968
166.96
166.952
166.945
166.937
166.93
166.923
166.917
166.913
166.91
166.909
166.911
166.917
166.926
166.941
166.961
166.988
167.024
167.068
167.124
167.191
167.271
167.363
167.467
167.588
167.732
167.918
168.18
168.574
169.175
170.069
171.327
166.717
166.663
166.673
166.732
166.876
167.125
167.496
167.993
168.608
169.312
170.067
170.821
171.52
172.109
172.545
172.799
172.855
172.719
172.406
171.946
171.372
170.722
170.031
169.332
168.656
168.025
167.461
166.979
166.591
166.304
166.12
166.037
166.044
166.126
166.255
166.403
166.536
166.639
166.741
166.862
166.979
167.071
167.119
167.112
167.095
167.094
167.093
167.089
167.086
167.083
167.079
167.075
167.07
167.065
167.06
167.054
167.048
167.041
167.034
167.026
167.019
167.011
167.003
166.995
166.988
166.981
166.976
166.972
166.97
166.97
166.975
166.983
166.996
167.016
167.043
167.079
167.125
167.182
167.253
167.337
167.435
167.547
167.677
167.833
168.032
168.31
168.721
169.342
170.255
171.534
166.764
166.632
166.531
166.43
166.365
166.37
166.484
166.742
167.169
167.777
168.557
169.483
170.508
171.573
172.616
173.575
174.399
175.05
175.508
175.766
175.83
175.712
175.428
174.996
174.433
173.756
172.984
172.139
171.246
170.333
169.434
168.586
167.83
167.209
166.765
166.528
166.495
166.557
166.448
166.269
166.265
166.41
166.733
167.112
167.22
167.159
167.173
167.165
167.161
167.157
167.152
167.148
167.143
167.138
167.133
167.128
167.123
167.117
167.11
167.103
167.096
167.089
167.081
167.073
167.065
167.058
167.052
167.047
167.044
167.044
167.047
167.055
167.068
167.088
167.116
167.153
167.202
167.264
167.341
167.433
167.542
167.668
167.817
167.995
168.224
168.539
168.997
169.676
170.665
172.045
166.819
166.693
166.55
166.353
166.117
165.859
165.61
165.407
165.291
165.302
165.473
165.822
166.352
167.048
167.881
168.813
169.801
170.807
171.799
172.754
173.654
174.488
175.243
175.907
176.46
176.884
177.156
177.258
177.17
176.876
176.363
175.625
174.655
173.454
172.038
170.486
169.13
169.259
169.576
168.616
167.569
166.335
165.321
166.213
167.382
167.209
167.222
167.217
167.21
167.205
167.198
167.192
167.186
167.18
167.174
167.168
167.162
167.154
167.147
167.138
167.128
167.117
167.107
167.096
167.086
167.078
167.072
167.067
167.066
167.067
167.073
167.083
167.099
167.121
167.153
167.194
167.247
167.314
167.398
167.499
167.619
167.761
167.93
168.135
168.4
168.761
169.281
170.041
171.132
172.625
166.8
166.75
166.673
166.546
166.363
166.12
165.821
165.478
165.111
164.747
164.417
164.152
163.979
163.914
163.968
164.14
164.423
164.806
165.28
165.839
166.479
167.202
168.006
168.886
169.833
170.832
171.868
172.926
173.997
175.075
176.153
177.229
178.304
179.376
180.411
181.222
180.992
176.383
173.15
174.518
175.361
176.363
176.22
170.696
166.525
167.413
167.208
167.238
167.217
167.207
167.195
167.184
167.173
167.161
167.15
167.139
167.127
167.114
167.102
167.09
167.079
167.071
167.063
167.057
167.052
167.048
167.046
167.046
167.047
167.052
167.059
167.071
167.089
167.112
167.144
167.185
167.238
167.306
167.389
167.49
167.612
167.756
167.928
168.139
168.412
168.785
169.317
170.083
171.152
172.555
166.714
166.706
166.701
166.686
166.658
166.607
166.528
166.416
166.267
166.085
165.875
165.649
165.418
165.194
164.988
164.806
164.651
164.523
164.42
164.341
164.29
164.272
164.298
164.377
164.512
164.702
164.931
165.185
165.454
165.738
166.048
166.399
166.802
167.273
167.821
168.463
167.254
167.201
167.198
167.182
167.171
167.158
167.144
167.13
167.116
167.101
167.085
167.072
167.061
167.053
167.046
167.039
167.034
167.03
167.026
167.023
167.021
167.02
167.02
167.021
167.024
167.029
167.038
167.049
167.065
167.087
167.116
167.153
167.201
167.261
167.336
167.427
167.536
167.664
167.817
168.003
168.243
168.571
169.041
169.72
170.672
171.944
166.648
166.608
166.598
166.596
166.609
166.636
166.676
166.724
166.776
166.825
166.868
166.901
166.925
166.943
166.957
166.972
166.989
167.006
167.016
167.01
166.977
166.912
166.82
166.722
166.651
166.642
166.721
166.881
167.085
167.282
167.445
167.594
167.768
167.981
168.243
168.569
167.159
167.131
167.122
167.111
167.1
167.09
167.078
167.067
167.056
167.047
167.038
167.031
167.026
167.02
167.016
167.012
167.008
167.005
167.003
167.001
167
167
167.001
167.003
167.006
167.011
167.019
167.029
167.043
167.062
167.087
167.119
167.159
167.211
167.274
167.352
167.443
167.551
167.677
167.831
168.029
168.305
168.709
169.314
170.197
171.43
166.666
166.575
166.518
166.457
166.405
166.369
166.353
166.359
166.386
166.431
166.49
166.558
166.631
166.709
166.792
166.884
166.986
167.096
167.202
167.286
167.321
167.279
167.142
166.915
166.641
166.394
166.269
166.339
166.594
166.929
167.213
167.42
167.661
167.935
168.251
168.622
167.117
167.087
167.078
167.067
167.058
167.049
167.042
167.034
167.028
167.022
167.017
167.012
167.008
167.004
167.001
166.998
166.995
166.993
166.992
166.99
166.99
166.99
166.991
166.993
166.996
167.001
167.008
167.017
167.029
167.046
167.067
167.095
167.13
167.174
167.229
167.294
167.372
167.463
167.57
167.7
167.871
168.115
168.483
169.049
169.894
171.092
166.75
166.648
166.56
166.448
166.329
166.209
166.1
166.011
165.952
165.927
165.936
165.977
166.047
166.139
166.25
166.375
166.51
166.649
166.775
166.869
166.903
166.85
166.699
166.463
166.193
165.972
165.888
165.996
166.27
166.62
166.942
167.212
167.516
167.851
168.216
168.619
167.094
167.063
167.054
167.043
167.035
167.027
167.021
167.015
167.011
167.007
167.003
167
166.997
166.995
166.992
166.99
166.989
166.987
166.986
166.985
166.985
166.986
166.987
166.989
166.993
166.998
167.005
167.014
167.026
167.042
167.062
167.088
167.12
167.161
167.211
167.271
167.341
167.423
167.518
167.636
167.792
168.018
168.368
168.913
169.738
170.92
166.832
166.767
166.689
166.578
166.438
166.274
166.097
165.92
165.759
165.626
165.534
165.491
165.499
165.556
165.659
165.799
165.968
166.154
166.337
166.49
166.581
166.576
166.456
166.231
165.953
165.71
165.599
165.678
165.927
166.27
166.611
166.925
167.279
167.659
168.056
168.471
167.076
167.044
167.035
167.024
167.016
167.009
167.003
166.998
166.995
166.992
166.989
166.987
166.985
166.984
166.983
166.982
166.981
166.98
166.98
166.98
166.981
166.982
166.985
166.988
166.993
166.999
167.008
167.019
167.033
167.05
167.073
167.1
167.135
167.177
167.228
167.288
167.358
167.439
167.533
167.647
167.801
168.024
168.37
168.912
169.732
170.906
166.859
166.85
166.822
166.77
166.69
166.579
166.438
166.273
166.092
165.908
165.734
165.583
165.467
165.393
165.364
165.381
165.44
165.535
165.654
165.783
165.897
165.968
165.968
165.887
165.744
165.595
165.518
165.573
165.762
166.052
166.376
166.699
167.067
167.457
167.852
168.258
167.065
167.029
167.019
167.007
166.999
166.991
166.985
166.981
166.977