/*--------------------------------*- C++ -*----------------------------------*\
| =========                 |                                                 |
| \\      /  F ield         | OpenFOAM: The Open Source CFD Toolbox           |
|  \\    /   O peration     | Version:  v2012                                 |
|   \\  /    A nd           | Website:  www.openfoam.com                      |
|    \\/     M anipulation  |                                                 |
\*---------------------------------------------------------------------------*/
FoamFile
{
    version     2.0;
    format      ascii;
    class       volScalarField;
    location    "300/air";
    object      ILambda_46_0;
}
// * * * * * * * * * * * * * * * * * * * * * * * * * * * * * * * * * * * * * //

dimensions      [1 0 -3 0 0 0 0];


internalField   nonuniform List<scalar> 
287104
(
166.887
167.075
167.227
167.376
167.518
167.655
167.787
167.915
168.039
168.16
168.278
168.392
168.505
168.615
168.722
168.828
168.931
169.033
169.133
169.232
169.329
169.425
169.519
169.613
169.705
169.796
169.886
169.975
170.063
170.151
170.237
170.323
170.408
170.493
170.576
170.659
170.742
170.823
170.905
170.985
171.065
171.145
171.224
171.302
171.38
171.458
171.535
171.612
171.688
171.764
171.839
171.914
171.989
172.063
172.137
172.211
172.284
172.358
172.431
172.503
172.576
172.649
172.721
172.794
172.866
172.938
173.011
173.083
173.156
173.229
173.302
173.376
173.449
173.524
173.598
173.674
173.75
173.827
173.906
173.985
174.067
174.149
174.232
174.315
174.391
174.444
174.485
174.724
176.04
180.525
166.701
166.7
166.696
166.697
166.699
166.704
166.711
166.719
166.728
166.738
166.75
166.763
166.776
166.79
166.805
166.82
166.836
166.852
166.869
166.886
166.903
166.921
166.939
166.957
166.976
166.994
167.013
167.032
167.051
167.07
167.089
167.109
167.128
167.148
167.168
167.187
167.207
167.227
167.247
167.267
167.287
167.307
167.327
167.348
167.368
167.388
167.409
167.429
167.45
167.471
167.492
167.513
167.534
167.556
167.577
167.599
167.621
167.643
167.665
167.687
167.71
167.732
167.755
167.779
167.802
167.826
167.849
167.873
167.898
167.922
167.947
167.972
167.997
168.022
168.048
168.074
168.1
168.126
168.153
168.179
168.205
168.231
168.258
168.29
168.327
168.384
168.578
169.417
172.228
179.099
166.727
166.731
166.731
166.734
166.736
166.739
166.742
166.746
166.75
166.754
166.759
166.764
166.769
166.775
166.781
166.787
166.794
166.8
166.807
166.814
166.822
166.829
166.837
166.844
166.852
166.86
166.869
166.877
166.885
166.894
166.903
166.912
166.921
166.93
166.939
166.948
166.957
166.967
166.976
166.986
166.995
167.005
167.015
167.025
167.035
167.045
167.055
167.066
167.076
167.086
167.097
167.108
167.118
167.129
167.14
167.151
167.162
167.173
167.184
167.195
167.206
167.217
167.228
167.239
167.25
167.261
167.272
167.283
167.294
167.305
167.315
167.326
167.337
167.347
167.358
167.368
167.378
167.388
167.397
167.406
167.416
167.431
167.46
167.516
167.618
167.798
168.185
169.256
172.191
178.847
166.751
166.764
166.772
166.781
166.789
166.798
166.806
166.814
166.821
166.829
166.837
166.845
166.852
166.86
166.868
166.875
166.883
166.891
166.898
166.906
166.914
166.921
166.929
166.937
166.944
166.952
166.96
166.968
166.976
166.983
166.991
166.999
167.007
167.015
167.023
167.031
167.039
167.047
167.056
167.064
167.072
167.081
167.089
167.098
167.106
167.115
167.123
167.132
167.141
167.149
167.158
167.167
167.176
167.184
167.193
167.202
167.211
167.219
167.228
167.237
167.245
167.254
167.262
167.271
167.279
167.287
167.295
167.303
167.311
167.319
167.327
167.335
167.343
167.35
167.358
167.365
167.371
167.378
167.385
167.395
167.41
167.44
167.497
167.6
167.765
168.011
168.437
169.468
172.247
178.666
166.764
166.778
166.787
166.797
166.807
166.816
166.825
166.834
166.843
166.852
166.861
166.869
166.878
166.886
166.895
166.903
166.911
166.92
166.928
166.936
166.944
166.952
166.96
166.968
166.976
166.984
166.991
166.999
167.007
167.015
167.023
167.03
167.038
167.046
167.054
167.061
167.069
167.077
167.085
167.093
167.101
167.109
167.116
167.124
167.132
167.14
167.148
167.156
167.164
167.172
167.18
167.188
167.196
167.204
167.212
167.22
167.228
167.236
167.244
167.252
167.259
167.267
167.275
167.282
167.29
167.298
167.305
167.312
167.32
167.327
167.334
167.342
167.348
167.355
167.362
167.368
167.374
167.382
167.392
167.408
167.434
167.481
167.56
167.684
167.863
168.105
168.503
169.486
172.205
178.523
166.776
166.79
166.798
166.808
166.817
166.826
166.836
166.845
166.854
166.863
166.871
166.88
166.889
166.897
166.906
166.914
166.923
166.931
166.939
166.947
166.955
166.963
166.971
166.979
166.987
166.995
167.003
167.01
167.018
167.026
167.034
167.041
167.049
167.057
167.065
167.072
167.08
167.088
167.096
167.104
167.111
167.119
167.127
167.135
167.143
167.15
167.158
167.166
167.174
167.182
167.189
167.197
167.205
167.213
167.22
167.228
167.236
167.243
167.251
167.258
167.266
167.273
167.28
167.288
167.295
167.302
167.309
167.316
167.323
167.33
167.337
167.343
167.349
167.354
167.36
167.366
167.373
167.382
167.396
167.417
167.451
167.505
167.588
167.71
167.876
168.096
168.469
169.429
172.099
178.236
166.787
166.801
166.809
166.819
166.828
166.837
166.846
166.855
166.864
166.872
166.881
166.89
166.898
166.906
166.915
166.923
166.931
166.939
166.947
166.956
166.963
166.971
166.979
166.987
166.995
167.003
167.011
167.019
167.026
167.034
167.042
167.05
167.058
167.066
167.074
167.082
167.089
167.097
167.105
167.113
167.121
167.129
167.137
167.145
167.153
167.16
167.168
167.176
167.184
167.191
167.199
167.207
167.214
167.222
167.229
167.237
167.244
167.251
167.258
167.266
167.273
167.28
167.287
167.294
167.3
167.307
167.313
167.32
167.326
167.331
167.336
167.341
167.345
167.35
167.354
167.359
167.367
167.377
167.393
167.417
167.452
167.504
167.582
167.694
167.846
168.047
168.385
169.253
171.687
177.347
166.798
166.812
166.82
166.829
166.838
166.847
166.856
166.865
166.873
166.882
166.89
166.899
166.907
166.915
166.923
166.931
166.939
166.947
166.955
166.963
166.971
166.979
166.987
166.995
167.003
167.011
167.019
167.027
167.035
167.043
167.051
167.059
167.067
167.075
167.083
167.091
167.099
167.107
167.115
167.123
167.131
167.139
167.147
167.155
167.162
167.17
167.177
167.185
167.192
167.2
167.207
167.214
167.222
167.229
167.235
167.242
167.249
167.256
167.262
167.269
167.275
167.281
167.287
167.293
167.299
167.304
167.309
167.313
167.317
167.321
167.324
167.326
167.328
167.331
167.334
167.339
167.346
167.356
167.371
167.394
167.426
167.474
167.545
167.649
167.792
167.978
168.261
168.931
170.834
175.454
166.809
166.822
166.83
166.839
166.848
166.857
166.866
166.874
166.883
166.891
166.899
166.907
166.916
166.924
166.932
166.94
166.948
166.956
166.964
166.972
166.98
166.988
166.996
167.004
167.013
167.021
167.029
167.037
167.045
167.053
167.061
167.07
167.078
167.086
167.094
167.102
167.11
167.118
167.126
167.133
167.141
167.149
167.156
167.164
167.171
167.178
167.185
167.192
167.199
167.206
167.213
167.219
167.225
167.232
167.238
167.244
167.25
167.255
167.261
167.266
167.272
167.277
167.281
167.286
167.29
167.293
167.296
167.299
167.301
167.302
167.303
167.303
167.304
167.305
167.308
167.312
167.318
167.328
167.343
167.363
167.393
167.436
167.501
167.598
167.731
167.898
168.12
168.602
170.023
173.68
166.819
166.832
166.84
166.849
166.858
166.866
166.875
166.883
166.892
166.9
166.908
166.916
166.925
166.933
166.942
166.95
166.959
166.967
166.976
166.984
166.993
167.001
167.01
167.019
167.027
167.036
167.045
167.053
167.062
167.07
167.079
167.088
167.096
167.105
167.113
167.122
167.13
167.138
167.146
167.154
167.162
167.17
167.178
167.185
167.192
167.2
167.207
167.213
167.22
167.227
167.233
167.239
167.245
167.251
167.256
167.262
167.267
167.272
167.277
167.281
167.285
167.289
167.292
167.295
167.297
167.299
167.3
167.3
167.3
167.3
167.299
167.299
167.298
167.299
167.301
167.305
167.311
167.32
167.333
167.351
167.378
167.418
167.478
167.569
167.692
167.841
168.024
168.422
169.716
173.315
166.829
166.842
166.85
166.858
166.867
166.875
166.884
166.892
166.901
166.91
166.92
166.931
166.942
166.952
166.963
166.974
166.985
166.995
167.006
167.016
167.027
167.037
167.047
167.057
167.067
167.077
167.087
167.096
167.106
167.116
167.125
167.135
167.144
167.154
167.163
167.173
167.182
167.191
167.2
167.209
167.218
167.227
167.235
167.244
167.252
167.26
167.268
167.276
167.283
167.29
167.297
167.304
167.31
167.316
167.322
167.328
167.333
167.338
167.342
167.346
167.349
167.351
167.353
167.354
167.355
167.355
167.354
167.353
167.351
167.349
167.347
167.345
167.344
167.344
167.344
167.347
167.351
167.358
167.368
167.382
167.404
167.439
167.492
167.575
167.693
167.849
168.076
168.595
170.163
174.28
166.838
166.851
166.859
166.868
166.876
166.885
166.893
166.902
166.911
166.92
166.931
166.943
166.954
166.966
166.977
166.989
167
167.012
167.023
167.034
167.045
167.056
167.067
167.078
167.089
167.099
167.11
167.12
167.13
167.141
167.151
167.161
167.171
167.181
167.19
167.2
167.21
167.22
167.229
167.239
167.249
167.258
167.267
167.277
167.286
167.295
167.304
167.313
167.322
167.33
167.339
167.347
167.355
167.363
167.371
167.379
167.386
167.392
167.399
167.404
167.409
167.414
167.418
167.421
167.424
167.426
167.427
167.429
167.43
167.43
167.431
167.431
167.432
167.434
167.436
167.439
167.444
167.45
167.46
167.473
167.491
167.517
167.563
167.656
167.85
168.221
168.854
169.937
172.106
176.77
166.847
166.86
166.868
166.877
166.886
166.895
166.904
166.913
166.922
166.932
166.943
166.955
166.966
166.978
166.99
167.002
167.013
167.025
167.037
167.048
167.059
167.07
167.081
167.092
167.103
167.113
167.123
167.134
167.144
167.154
167.163
167.173
167.183
167.192
167.202
167.211
167.22
167.23
167.239
167.248
167.257
167.266
167.274
167.283
167.292
167.3
167.309
167.317
167.325
167.333
167.341
167.349
167.357
167.365
167.373
167.38
167.388
167.394
167.401
167.407
167.413
167.418
167.424
167.429
167.434
167.439
167.444
167.449
167.454
167.46
167.466
167.472
167.479
167.487
167.496
167.506
167.517
167.531
167.546
167.565
167.586
167.618
167.686
167.86
168.278
169.126
170.574
172.723
175.797
180.489
166.857
166.87
166.878
166.888
166.897
166.906
166.915
166.924
166.934
166.944
166.956
166.968
166.979
166.991
167.003
167.015
167.027
167.039
167.05
167.061
167.073
167.083
167.094
167.105
167.115
167.125
167.135
167.145
167.154
167.164
167.173
167.182
167.191
167.2
167.209
167.217
167.226
167.234
167.243
167.251
167.259
167.267
167.274
167.282
167.29
167.297
167.304
167.312
167.319
167.326
167.333
167.34
167.346
167.353
167.359
167.365
167.37
167.375
167.38
167.385
167.389
167.393
167.397
167.401
167.405
167.409
167.414
167.418
167.424
167.429
167.435
167.442
167.449
167.457
167.467
167.478
167.491
167.506
167.523
167.543
167.571
167.621
167.74
168.027
168.642
169.758
171.457
173.682
176.452
180.231
166.868
166.881
166.89
166.899
166.909
166.918
166.928
166.937
166.947
166.957
166.969
166.981
166.993
167.005
167.017
167.028
167.04
167.051
167.063
167.074
167.085
167.095
167.105
167.116
167.125
167.135
167.144
167.153
167.162
167.171
167.18
167.188
167.197
167.205
167.213
167.221
167.228
167.236
167.243
167.251
167.258
167.265
167.272
167.279
167.285
167.292
167.299
167.305
167.312
167.318
167.324
167.33
167.336
167.341
167.346
167.351
167.355
167.359
167.362
167.365
167.368
167.371
167.373
167.376
167.378
167.381
167.384
167.388
167.391
167.395
167.398
167.403
167.408
167.413
167.42
167.428
167.438
167.45
167.465
167.485
167.518
167.586
167.734
168.045
168.623
169.543
170.798
172.348
174.409
177.737
166.879
166.894
166.902
166.912
166.922
166.931
166.941
166.95
166.96
166.971
166.982
166.994
167.005
167.017
167.029
167.04
167.051
167.062
167.073
167.084
167.094
167.104
167.114
167.123
167.132
167.141
167.15
167.158
167.167
167.175
167.182
167.19
167.198
167.205
167.212
167.219
167.226
167.233
167.24
167.246
167.253
167.259
167.266
167.272
167.279
167.285
167.292
167.298
167.304
167.311
167.317
167.322
167.328
167.333
167.337
167.341
167.345
167.348
167.351
167.353
167.355
167.357
167.359
167.361
167.363
167.366
167.368
167.37
167.373
167.375
167.378
167.381
167.384
167.388
167.393
167.399
167.407
167.418
167.432
167.453
167.489
167.559
167.693
167.937
168.34
168.941
169.781
171.027
173.228
177.417
166.892
166.906
166.915
166.925
166.934
166.944
166.953
166.963
166.972
166.982
166.993
167.004
167.015
167.027
167.038
167.048
167.059
167.069
167.079
167.089
167.099
167.108
167.117
167.126
167.134
167.142
167.15
167.158
167.165
167.173
167.18
167.186
167.193
167.2
167.206
167.213
167.219
167.225
167.231
167.237
167.244
167.25
167.257
167.263
167.27
167.277
167.284
167.29
167.297
167.303
167.309
167.315
167.321
167.325
167.33
167.334
167.337
167.34
167.343
167.346
167.348
167.35
167.352
167.355
167.357
167.359
167.362
167.364
167.367
167.369
167.372
167.374
167.378
167.382
167.387
167.393
167.402
167.412
167.428
167.45
167.486
167.546
167.647
167.816
168.096
168.561
169.366
170.86
173.703
178.745
166.904
166.918
166.927
166.936
166.945
166.954
166.963
166.972
166.981
166.99
167.001
167.011
167.022
167.032
167.042
167.052
167.062
167.072
167.081
167.09
167.099
167.107
167.115
167.123
167.13
167.138
167.145
167.152
167.158
167.165
167.171
167.177
167.183
167.189
167.194
167.2
167.206
167.212
167.218
167.224
167.23
167.237
167.244
167.251
167.259
167.266
167.273
167.28
167.287
167.294
167.3
167.306
167.312
167.316
167.321
167.325
167.329
167.332
167.335
167.338
167.341
167.343
167.346
167.349
167.351
167.354
167.357
167.361
167.364
167.367
167.371
167.374
167.379
167.384
167.391
167.399
167.409
167.421
167.438
167.461
167.493
167.542
167.621
167.759
168.028
168.57
169.642
171.617
174.898
179.672
166.914
166.927
166.935
166.944
166.953
166.961
166.969
166.977
166.986
166.994
167.004
167.014
167.023
167.033
167.042
167.051
167.06
167.069
167.077
167.085
167.093
167.1
167.108
167.114
167.121
167.127
167.134
167.139
167.145
167.15
167.156
167.161
167.166
167.171
167.176
167.181
167.186
167.192
167.198
167.204
167.211
167.218
167.225
167.233
167.241
167.248
167.256
167.263
167.271
167.277
167.283
167.289
167.294
167.299
167.304
167.308
167.311
167.315
167.318
167.321
167.323
167.326
167.329
167.332
167.335
167.339
167.342
167.346
167.349
167.353
167.357
167.362
167.367
167.374
167.381
167.39
167.4
167.413
167.429
167.449
167.478
167.519
167.591
167.74
168.071
168.766
170.039
172.017
174.669
178.081
166.92
166.933
166.94
166.948
166.956
166.964
166.971
166.979
166.986
166.994
167.003
167.012
167.021
167.029
167.038
167.046
167.053
167.061
167.068
167.075
167.081
167.087
167.093
167.098
167.104
167.108
167.113
167.118
167.122
167.126
167.13
167.134
167.138
167.143
167.147
167.151
167.157
167.162
167.168
167.175
167.182
167.189
167.197
167.206
167.214
167.222
167.23
167.237
167.244
167.25
167.256
167.262
167.266
167.271
167.275
167.278
167.281
167.284
167.286
167.288
167.29
167.292
167.294
167.297
167.299
167.302
167.304
167.307
167.31
167.313
167.317
167.321
167.325
167.33
167.337
167.344
167.353
167.364
167.377
167.395
167.42
167.459
167.537
167.71
168.082
168.775
169.843
171.2
172.873
175.634
166.923
166.935
166.942
166.949
166.956
166.963
166.97
166.977
166.983
166.989
166.996
167.002
167.008
167.014
167.02
167.026
167.031
167.036
167.041
167.046
167.051
167.056
167.06
167.065
167.069
167.073
167.077
167.081
167.085
167.088
167.092
167.096
167.1
167.104
167.108
167.113
167.119
167.125
167.131
167.138
167.146
167.153
167.161
167.169
167.177
167.184
167.19
167.196
167.202
167.207
167.211
167.215
167.218
167.221
167.223
167.225
167.226
167.227
167.228
167.229
167.23
167.23
167.231
167.232
167.233
167.234
167.235
167.237
167.239
167.241
167.243
167.246
167.249
167.254
167.259
167.265
167.272
167.282
167.295
167.312
167.338
167.382
167.469
167.644
167.97
168.476
169.105
169.794
170.888
173.602
166.923
166.934
166.94
166.947
166.954
166.96
166.966
166.972
166.978
166.984
166.989
166.994
167
167.005
167.009
167.014
167.019
167.023
167.027
167.032
167.036
167.04
167.044
167.047
167.051
167.055
167.058
167.062
167.065
167.069
167.073
167.076
167.08
167.085
167.09
167.095
167.101
167.107
167.115
167.122
167.13
167.138
167.145
167.153
167.16
167.166
167.172
167.178
167.182
167.186
167.189
167.192
167.194
167.196
167.197
167.197
167.198
167.198
167.197
167.197
167.196
167.196
167.195
167.195
167.195
167.195
167.195
167.196
167.196
167.197
167.199
167.201
167.203
167.206
167.21
167.215
167.222
167.231
167.243
167.26
167.287
167.333
167.416
167.563
167.792
168.08
168.371
168.743
169.805
172.947
166.922
166.931
166.937
166.944
166.95
166.956
166.962
166.967
166.973
166.978
166.983
166.988
166.993
166.997
167.002
167.006
167.01
167.015
167.019
167.023
167.026
167.03
167.034
167.038
167.041
167.045
167.048
167.052
167.055
167.059
167.063
167.067
167.071
167.076
167.081
167.087
167.094
167.101
167.108
167.116
167.124
167.132
167.14
167.147
167.154
167.16
167.166
167.171
167.175
167.179
167.182
167.184
167.186
167.187
167.188
167.189
167.189
167.189
167.188
167.187
167.187
167.186
167.185
167.185
167.184
167.184
167.184
167.184
167.185
167.186
167.187
167.189
167.191
167.194
167.198
167.203
167.21
167.218
167.23
167.248
167.275
167.319
167.39
167.501
167.648
167.806
167.97
168.359
169.8
173.913
166.919
166.928
166.934
166.94
166.946
166.952
166.957
166.963
166.968
166.973
166.978
166.982
166.987
166.991
166.996
167
167.004
167.008
167.012
167.016
167.019
167.023
167.027
167.03
167.034
167.038
167.041
167.045
167.048
167.052
167.056
167.06
167.065
167.07
167.076
167.082
167.089
167.096
167.103
167.111
167.119
167.127
167.135
167.142
167.148
167.154
167.16
167.164
167.168
167.172
167.175
167.177
167.179
167.18
167.181
167.182
167.182
167.182
167.181
167.181
167.18
167.18
167.179
167.179
167.179
167.179
167.179
167.18
167.181
167.182
167.184
167.186
167.189
167.192
167.196
167.202
167.209
167.218
167.23
167.248
167.274
167.313
167.374
167.461
167.574
167.708
167.918
168.506
170.312
174.715
166.916
166.925
166.931
166.937
166.943
166.948
166.954
166.959
166.964
166.969
166.973
166.978
166.982
166.987
166.991
166.995
166.999
167.003
167.007
167.01
167.014
167.018
167.021
167.025
167.028
167.032
167.035
167.039
167.043
167.046
167.05
167.055
167.06
167.065
167.071
167.077
167.084
167.091
167.099
167.106
167.114
167.121
167.128
167.135
167.141
167.147
167.152
167.156
167.16
167.163
167.166
167.168
167.17
167.171
167.172
167.172
167.172
167.172
167.172
167.171
167.171
167.17
167.17
167.17
167.17
167.17
167.171
167.172
167.174
167.176
167.178
167.18
167.183
167.187
167.191
167.197
167.204
167.214
167.226
167.243
167.267
167.304
167.36
167.445
167.567
167.748
168.07
168.814
170.659
174.661
166.914
166.923
166.928
166.934
166.94
166.945
166.95
166.956
166.96
166.965
166.97
166.974
166.979
166.983
166.987
166.991
166.995
166.999
167.002
167.006
167.01
167.013
167.017
167.02
167.024
167.027
167.031
167.034
167.038
167.042
167.046
167.051
167.056
167.061
167.066
167.072
167.078
167.085
167.092
167.1
167.107
167.114
167.12
167.127
167.132
167.137
167.142
167.146
167.149
167.152
167.154
167.156
167.158
167.159
167.159
167.159
167.159
167.159
167.159
167.158
167.158
167.158
167.157
167.157
167.158
167.158
167.159
167.161
167.162
167.164
167.167
167.169
167.172
167.176
167.18
167.186
167.193
167.201
167.212
167.227
167.25
167.286
167.344
167.44
167.591
167.825
168.208
168.933
170.494
173.729
166.912
166.92
166.926
166.932
166.937
166.943
166.948
166.953
166.957
166.962
166.967
166.971
166.975
166.979
166.983
166.987
166.991
166.995
166.998
167.002
167.006
167.009
167.013
167.016
167.019
167.023
167.026
167.03
167.034
167.037
167.041
167.046
167.051
167.057
167.066
167.075
167.084
167.091
167.095
167.098
167.1
167.104
167.11
167.116
167.121
167.126
167.13
167.134
167.137
167.14
167.142
167.144
167.145
167.146
167.147
167.147
167.147
167.147
167.147
167.146
167.146
167.145
167.145
167.145
167.145
167.146
167.147
167.148
167.149
167.151
167.153
167.155
167.158
167.161
167.165
167.169
167.174
167.18
167.188
167.2
167.221
167.257
167.32
167.426
167.593
167.839
168.195
168.787
170.006
172.629
166.91
166.918
166.923
166.929
166.935
166.94
166.945
166.95
166.954
166.959
166.963
166.968
166.972
166.976
166.98
166.983
166.987
166.991
166.994
166.998
167.001
167.005
167.008
167.012
167.015
167.019
167.022
167.025
167.028
167.032
167.036
167.04
167.043
167.042
167.034
167.019
167.003
166.999
167.012
167.04
167.073
167.096
167.101
167.103
167.11
167.114
167.119
167.122
167.126
167.129
167.131
167.133
167.134
167.135
167.136
167.136
167.136
167.136
167.135
167.135
167.134
167.134
167.133
167.133
167.133
167.133
167.134
167.134
167.135
167.137
167.138
167.14
167.141
167.143
167.145
167.147
167.148
167.15
167.154
167.162
167.181
167.217
167.28
167.386
167.545
167.765
168.059
168.521
169.501
171.728
166.907
166.915
166.921
166.926
166.932
166.937
166.942
166.946
166.951
166.956
166.96
166.964
166.968
166.972
166.976
166.98
166.983
166.987
166.99
166.994
166.997
167.001
167.004
167.007
167.01
167.014
167.017
167.021
167.025
167.03
167.036
167.041
167.047
167.062
167.099
167.171
167.265
167.331
167.327
167.261
167.156
167.072
167.073
167.096
167.096
167.102
167.106
167.11
167.114
167.117
167.119
167.121
167.123
167.124
167.124
167.125
167.124
167.124
167.123
167.122
167.122
167.121
167.12
167.119
167.119
167.119
167.119
167.119
167.12
167.121
167.121
167.122
167.123
167.122
167.121
167.119
167.115
167.112
167.111
167.116
167.131
167.163
167.222
167.317
167.456
167.641
167.879
168.257
169.103
171.094
166.904
166.913
166.918
166.923
166.928
166.934
166.938
166.943
166.948
166.952
166.956
166.96
166.964
166.968
166.972
166.975
166.979
166.983
166.986
166.989
166.993
166.996
166.999
167.002
167.006
167.009
167.014
167.02
167.026
167.032
167.037
167.041
167.055
167.097
167.192
167.341
167.495
167.567
167.508
167.359
167.18
167.053
167.05
167.081
167.078
167.086
167.09
167.095
167.099
167.102
167.105
167.107
167.109
167.11
167.111
167.111
167.111
167.111
167.11
167.109
167.108
167.107
167.106
167.106
167.105
167.105
167.105
167.105
167.105
167.105
167.105
167.104
167.103
167.099
167.094
167.086
167.078
167.07
167.064
167.064
167.075
167.102
167.151
167.232
167.351
167.508
167.711
168.046
168.823
170.681
166.901
166.909
166.915
166.92
166.925
166.93
166.935
166.939
166.944
166.948
166.952
166.956
166.96
166.964
166.968
166.971
166.975
166.978
166.982
166.985
166.989
166.992
166.995
166.998
167.003
167.007
167.013
167.017
167.017
167.011
166.999
166.986
166.988
167.031
167.135
167.286
167.418
167.443
167.348
167.222
167.113
167.039
167.036
167.059
167.061
167.068
167.074
167.079
167.084
167.088
167.091
167.094
167.096
167.097
167.098
167.099
167.099
167.099
167.098
167.097
167.097
167.096
167.095
167.094
167.094
167.093
167.093
167.093
167.093
167.093
167.091
167.088
167.083
167.076
167.066
167.053
167.04
167.027
167.017
167.013
167.019
167.039
167.079
167.148
167.252
167.393
167.58
167.898
168.651
170.461
166.898
166.906
166.911
166.917
166.922
166.927
166.931
166.936
166.94
166.945
166.949
166.953
166.957
166.96
166.964
166.968
166.971
166.975
166.978
166.981
166.984
166.988
166.992
166.997
167.003
167.007
167.007
166.997
166.974
166.937
166.893
166.856
166.849
166.901
167.027
167.198
167.33
167.335
167.229
167.134
167.079
167.03
167.023
167.043
167.05
167.056
167.063
167.068
167.073
167.078
167.081
167.084
167.087
167.089
167.09
167.091
167.091
167.092
167.091
167.091
167.091
167.09
167.089
167.089
167.088
167.088
167.088
167.088
167.087
167.085
167.082
167.076
167.067
167.055
167.04
167.023
167.005
166.989
166.975
166.968
166.968
166.982
167.016
167.077
167.173
167.308
167.495
167.818
168.583
170.411
166.895
166.903
166.908
166.914
166.919
166.923
166.928
166.933
166.937
166.941
166.945
166.949
166.953
166.957
166.96
166.964
166.967
166.971
166.974
166.977
166.981
166.985
166.991
166.998
167.003
167.001
166.986
166.95
166.893
166.822
166.752
166.703
166.697
166.75
166.859
166.992
167.091
167.116
167.093
167.075
167.06
167.034
167.031
167.046
167.053
167.058
167.064
167.069
167.074
167.078
167.081
167.084
167.087
167.089
167.09
167.091
167.092
167.093
167.093
167.093
167.093
167.093
167.092
167.092
167.092
167.093
167.092
167.092
167.09
167.087
167.081
167.071
167.058
167.042
167.023
167.002
166.981
166.962
166.945
166.934
166.931
166.941
166.97
167.027
167.123
167.262
167.462
167.813
168.626
170.545
166.893
166.9
166.905
166.911
166.916
166.92
166.925
166.93
166.934
166.938
166.942
166.946
166.95
166.954
166.957
166.961
166.964
166.967
166.97
166.974
166.978
166.983
166.992
167.001
167.006
166.997
166.966
166.907
166.824
166.731
166.65
166.6
166.594
166.636
166.714
166.807
166.894
166.963
167.012
167.041
167.046
167.043
167.049
167.059
167.066
167.072
167.077
167.082
167.086
167.089
167.092
167.094
167.097
167.099
167.1
167.102
167.104
167.105
167.106
167.107
167.109
167.11
167.111
167.112
167.112
167.112
167.111
167.11
167.106
167.1
167.09
167.077
167.06
167.04
167.018
166.995
166.971
166.95
166.931
166.917
166.912
166.919
166.947
167.005
167.107
167.26
167.487
167.89
168.802
170.925
166.89
166.898
166.903
166.908
166.913
166.918
166.922
166.927
166.931
166.935
166.939
166.943
166.947
166.951
166.954
166.958
166.961
166.964
166.967
166.97
166.975
166.983
166.993
167.002
167
166.98
166.933
166.86
166.77
166.682
166.618
166.592
166.609
166.663
166.738
166.822
166.902
166.972
167.016
167.035
167.041
167.048
167.059
167.069
167.077
167.084
167.091
167.097
167.103
167.107
167.111
167.115
167.119
167.123
167.127
167.13
167.133
167.136
167.138
167.138
167.138
167.137
167.134
167.132
167.129
167.126
167.123
167.118
167.112
167.103
167.091
167.075
167.056
167.035
167.012
166.988
166.965
166.943
166.924
166.91
166.904
166.913
166.943
167.008
167.122
167.299
167.567
168.044
169.096
171.449
166.888
166.895
166.9
166.906
166.911
166.915
166.92
166.924
166.929
166.933
166.937
166.94
166.944
166.948
166.951
166.955
166.958
166.961
166.965
166.97
166.976
166.982
166.986
166.986
166.976
166.955
166.92
166.876
166.832
166.797
166.779
166.78
166.796
166.822
166.865
166.937
167.044
167.058
167.068
167.072
167.078
167.089
167.102
167.11
167.117
167.127
167.133
167.139
167.144
167.148
167.152
167.156
167.16
167.162
167.164
167.164
167.162
167.158
167.153
167.147
167.141
167.136
167.132
167.128
167.124
167.12
167.116
167.111
167.103
167.093
167.08
167.063
167.044
167.022
167
166.977
166.954
166.933
166.915
166.903
166.899
166.911
166.948
167.024
167.156
167.361
167.674
168.219
169.336
171.587
166.886
166.893
166.898
166.903
166.908
166.913
166.918
166.922
166.926
166.93
166.934
166.938
166.942
166.945
166.949
166.953
166.956
166.959
166.962
166.963
166.965
166.969
166.979
166.998
167.023
167.044
167.053
167.043
167.016
166.98
166.946
166.933
166.975
167.127
167.476
168.193
167.183
167.183
167.184
167.185
167.188
167.188
167.188
167.186
167.181
167.175
167.166
167.157
167.15
167.142
167.136
167.13
167.125
167.12
167.116
167.113
167.11
167.106
167.102
167.096
167.088
167.078
167.064
167.048
167.029
167.008
166.987
166.965
166.944
166.924
166.908
166.898
166.898
166.915
166.96
167.047
167.195
167.421
167.755
168.292
169.29
171.186
166.884
166.892
166.896
166.902
166.906
166.911
166.916
166.92
166.924
166.928
166.932
166.936
166.94
166.943
166.947
166.95
166.953
166.955
166.955
166.957
166.961
166.967
166.973
166.973
166.961
166.943
166.929
166.918
166.892
166.834
166.777
166.813
166.998
167.317
167.763
168.369
167.207
167.195
167.192
167.189
167.186
167.181
167.174
167.166
167.157
167.148
167.14
167.133
167.127
167.121
167.116
167.111
167.107
167.104
167.101
167.098
167.095
167.092
167.088
167.082
167.074
167.064
167.051
167.035
167.017
166.998
166.978
166.958
166.938
166.921
166.907
166.9
166.904
166.926
166.977
167.073
167.226
167.45
167.755
168.202
169.014
170.689
166.882
166.89
166.895
166.9
166.905
166.909
166.914
166.918
166.922
166.926
166.93
166.934
166.937
166.941
166.944
166.947
166.95
166.954
166.96
166.971
166.986
167.009
167.042
167.09
167.143
167.154
167.05
166.787
166.422
166.178
166.259
166.535
166.896
167.327
167.777
168.38
167.198
167.177
167.171
167.164
167.158
167.151
167.144
167.137
167.13
167.124
167.118
167.113
167.108
167.104
167.1
167.097
167.093
167.091
167.088
167.086
167.083
167.08
167.076
167.071
167.063
167.054
167.042
167.028
167.011
166.994
166.976
166.957
166.94
166.925
166.914
166.91
166.917
166.943
166.997
167.091
167.235
167.43
167.676
168.024
168.715
170.32
166.881
166.889
166.893
166.898
166.903
166.908
166.912
166.917
166.921
166.925
166.928
166.932
166.935
166.939
166.943
166.947
166.953
166.96
166.971
166.984
167
167.029
167.085
167.177
167.27
167.248
166.959
166.357
165.663
165.361
165.698
166.245
166.736
167.242
167.719
168.367
167.179
167.156
167.149
167.141
167.135
167.128
167.122
167.117
167.111
167.107
167.102
167.099
167.095
167.092
167.089
167.086
167.084
167.081
167.08
167.078
167.075
167.073
167.069
167.064
167.058
167.05
167.039
167.027
167.013
166.997
166.981
166.965
166.95
166.938
166.929
166.928
166.937
166.964
167.014
167.098
167.219
167.376
167.567
167.853
168.501
170.113
166.88
166.887
166.892
166.897
166.902
166.906
166.911
166.915
166.919
166.923
166.926
166.93
166.935
166.94
166.944
166.947
166.947
166.942
166.932
166.917
166.904
166.908
166.951
167.034
167.089
166.959
166.484
165.692
164.919
164.715
165.254
165.938
166.478
167.025
167.55
168.239
167.162
167.139
167.132
167.124
167.118
167.112
167.107
167.102
167.098
167.094
167.091
167.088
167.085
167.083
167.081
167.079
167.077
167.076
167.074
167.073
167.071
167.069
167.066
167.063
167.057
167.051
167.042
167.032
167.02
167.007
166.993
166.98
166.967
166.956
166.95
166.95
166.959
166.982
167.024
167.092
167.19
167.315
167.473
167.738
168.395
170.053
166.879
166.886
166.891
166.896
166.901
166.905
166.909
166.913
166.917
166.921
166.926
166.931
166.938
166.942
166.942
166.931
166.904
166.861
166.804
166.744
166.7
166.7
166.769
166.898
166.986
166.837
166.282
165.379
164.519
164.307
164.909
165.621
166.145
166.718
167.302
168.035
167.149
167.126
167.118
167.111
167.104
167.099
167.094
167.09