/*--------------------------------*- C++ -*----------------------------------*\
| =========                 |                                                 |
| \\      /  F ield         | OpenFOAM: The Open Source CFD Toolbox           |
|  \\    /   O peration     | Version:  v2012                                 |
|   \\  /    A nd           | Website:  www.openfoam.com                      |
|    \\/     M anipulation  |                                                 |
\*---------------------------------------------------------------------------*/
FoamFile
{
    version     2.0;
    format      ascii;
    class       volScalarField;
    location    "300/air";
    object      k;
}
// * * * * * * * * * * * * * * * * * * * * * * * * * * * * * * * * * * * * * //

dimensions      [0 2 -2 0 0 0 0];


internalField   nonuniform List<scalar> 
287104
(
0.0834001
0.0717015
0.0633057
0.0569871
0.0520757
0.0481634
0.0449853
0.042361
0.0401641
0.0383029
0.0367097
0.0353336
0.0341353
0.0330843
0.0321565
0.0313328
0.0305975
0.0299379
0.0293435
0.0288057
0.0283172
0.0278719
0.0274645
0.0270907
0.0267466
0.0264289
0.0261348
0.0258619
0.0256079
0.0253709
0.0251493
0.0249414
0.0247461
0.0245619
0.0243879
0.0242231
0.0240665
0.0239173
0.0237747
0.0236382
0.0235069
0.0233805
0.0232583
0.0231398
0.0230248
0.0229127
0.0228033
0.0226962
0.0225912
0.022488
0.0223866
0.0222866
0.022188
0.0220907
0.0219946
0.0218995
0.0218055
0.0217125
0.0216203
0.0215291
0.0214387
0.0213491
0.0212603
0.0211722
0.0210848
0.020998
0.0209117
0.0208259
0.0207405
0.0206553
0.0205702
0.0204851
0.0203997
0.0203138
0.0202272
0.0201396
0.0200508
0.0199604
0.0198681
0.0197734
0.0196757
0.0195743
0.0194686
0.0193572
0.0192388
0.0191104
0.018969
0.0188027
0.0186167
0.0182535
0.0833967
0.0716951
0.0632968
0.0569763
0.0520634
0.04815
0.0449709
0.042346
0.0401485
0.0382868
0.0366933
0.035317
0.0341187
0.0330677
0.0321402
0.0313167
0.0305817
0.0299224
0.0293285
0.0287911
0.028303
0.0278581
0.0274512
0.0270778
0.0267342
0.0264171
0.0261236
0.0258513
0.0255981
0.0253619
0.0251411
0.0249342
0.0247399
0.0245569
0.0243841
0.0242206
0.0240654
0.0239177
0.0237767
0.0236418
0.0235122
0.0233874
0.0232669
0.0231501
0.0230367
0.0229262
0.0228184
0.0227128
0.0226092
0.0225073
0.022407
0.0223082
0.0222105
0.0221141
0.0220186
0.0219241
0.0218305
0.0217378
0.0216458
0.0215546
0.0214641
0.0213743
0.0212851
0.0211966
0.0211086
0.0210211
0.020934
0.0208473
0.0207608
0.0206744
0.0205881
0.0205015
0.0204145
0.020327
0.0202386
0.0201491
0.0200583
0.0199657
0.0198711
0.0197738
0.0196735
0.0195695
0.019461
0.0193469
0.0192257
0.0190946
0.0189508
0.0187824
0.0185947
0.0182329
0.0833954
0.0716923
0.0632929
0.0569715
0.0520578
0.0481437
0.044964
0.0423384
0.0401404
0.0382784
0.0366846
0.0353081
0.0341097
0.0330588
0.0321314
0.0313081
0.0305733
0.0299143
0.0293206
0.0287835
0.0282957
0.0278511
0.0274445
0.0270715
0.0267283
0.0264116
0.0261187
0.0258469
0.0255943
0.0253588
0.0251388
0.0249328
0.0247394
0.0245575
0.0243858
0.0242236
0.0240697
0.0239234
0.0237838
0.0236504
0.0235224
0.0233993
0.0232805
0.0231654
0.0230537
0.022945
0.0228388
0.022735
0.0226331
0.022533
0.0224344
0.0223372
0.0222413
0.0221465
0.0220527
0.0219599
0.021868
0.021777
0.0216867
0.0215973
0.0215086
0.0214205
0.0213332
0.0212465
0.0211604
0.0210748
0.0209897
0.020905
0.0208205
0.0207362
0.020652
0.0205675
0.0204828
0.0203975
0.0203114
0.0202243
0.0201358
0.0200456
0.0199534
0.0198587
0.019761
0.0196596
0.0195539
0.0194426
0.0193245
0.0191969
0.0190571
0.0188937
0.0187119
0.0183631
0.083394
0.0716893
0.0632884
0.0569656
0.0520506
0.0481353
0.0449544
0.0423279
0.0401289
0.0382661
0.0366717
0.0352949
0.0340963
0.0330454
0.032118
0.0312948
0.0305601
0.0299013
0.0293077
0.0287707
0.028283
0.0278385
0.0274321
0.0270592
0.0267162
0.0263997
0.026107
0.0258357
0.0255834
0.0253485
0.0251292
0.0249239
0.0247314
0.0245505
0.02438
0.0242189
0.0240663
0.0239215
0.0237835
0.0236516
0.0235253
0.0234038
0.0232866
0.0231732
0.0230632
0.0229561
0.0228515
0.0227491
0.0226486
0.0225498
0.0224524
0.0223564
0.0222615
0.0221676
0.0220747
0.0219827
0.0218915
0.021801
0.0217113
0.0216223
0.021534
0.0214462
0.0213592
0.0212726
0.0211866
0.0211011
0.021016
0.0209312
0.0208466
0.0207621
0.0206775
0.0205928
0.0205076
0.0204218
0.0203351
0.0202473
0.020158
0.020067
0.0199737
0.0198778
0.0197787
0.0196757
0.0195682
0.0194551
0.0193351
0.0192058
0.0190644
0.0188998
0.0187173
0.0183702
0.0833928
0.0716867
0.0632846
0.0569606
0.0520445
0.0481281
0.0449461
0.0423185
0.0401185
0.0382548
0.0366599
0.0352826
0.0340838
0.0330329
0.0321057
0.0312826
0.0305482
0.0298895
0.0292962
0.0287594
0.0282719
0.0278276
0.0274213
0.0270486
0.0267058
0.0263896
0.0260973
0.0258263
0.0255746
0.0253403
0.0251217
0.0249174
0.0247259
0.0245461
0.0243769
0.0242172
0.0240662
0.023923
0.0237867
0.0236567
0.0235323
0.0234127
0.0232975
0.0231861
0.023078
0.0229727
0.0228699
0.0227693
0.0226705
0.0225734
0.0224776
0.022383
0.0222895
0.0221969
0.0221052
0.0220144
0.0219242
0.0218348
0.021746
0.0216579
0.0215704
0.0214834
0.021397
0.021311
0.0212255
0.0211404
0.0210556
0.0209709
0.0208864
0.0208018
0.020717
0.0206319
0.0205462
0.0204596
0.020372
0.020283
0.0201924
0.0200996
0.0200043
0.019906
0.019804
0.0196978
0.0195866
0.0194695
0.0193453
0.0192117
0.0190661
0.0188977
0.0187117
0.0183631
0.0833915
0.071684
0.0632805
0.0569551
0.0520376
0.0481198
0.0449364
0.0423074
0.0401062
0.0382414
0.0366458
0.0352684
0.0340698
0.0330193
0.0320924
0.0312697
0.0305355
0.0298771
0.0292838
0.0287471
0.0282596
0.0278152
0.0274089
0.0270363
0.0266935
0.0263775
0.0260854
0.0258149
0.0255638
0.0253302
0.0251125
0.0249093
0.0247192
0.024541
0.0243735
0.0242159
0.0240671
0.0239262
0.0237925
0.0236652
0.0235436
0.0234269
0.0233147
0.0232063
0.0231012
0.0229989
0.0228991
0.0228015
0.0227056
0.0226112
0.0225182
0.0224264
0.0223355
0.0222455
0.0221564
0.022068
0.0219802
0.0218932
0.0218067
0.0217208
0.0216355
0.0215507
0.0214663
0.0213824
0.0212989
0.0212156
0.0211326
0.0210496
0.0209667
0.0208836
0.0208002
0.0207163
0.0206317
0.0205462
0.0204596
0.0203714
0.0202815
0.0201893
0.0200944
0.0199963
0.0198944
0.0197881
0.0196769
0.0195602
0.0194368
0.0193049
0.0191624
0.0189992
0.0188202
0.0184856
0.0833903
0.0716813
0.0632765
0.0569497
0.0520307
0.0481112
0.044926
0.042295
0.0400916
0.0382249
0.0366277
0.0352495
0.0340507
0.0330004
0.0320738
0.0312516
0.0305179
0.0298598
0.0292669
0.0287304
0.028243
0.0277988
0.0273927
0.0270202
0.0266777
0.0263621
0.0260707
0.0258009
0.0255508
0.0253186
0.0251025
0.0249012
0.0247134
0.0245377
0.0243733
0.0242189
0.0240737
0.0239368
0.0238073
0.0236844
0.0235674
0.0234555
0.0233482
0.0232449
0.0231447
0.0230471
0.0229519
0.0228587
0.0227673
0.0226775
0.022589
0.0225017
0.0224154
0.02233
0.0222454
0.0221616
0.0220785
0.0219961
0.0219143
0.0218332
0.0217527
0.0216727
0.0215932
0.0215142
0.0214357
0.0213576
0.0212799
0.0212025
0.0211254
0.0210485
0.0209716
0.0208946
0.0208174
0.0207397
0.0206614
0.0205823
0.0205019
0.0204201
0.0203363
0.0202499
0.0201604
0.0200671
0.0199695
0.0198673
0.01976
0.0196461
0.0195239
0.0193848
0.0192334
0.0189481
0.0833891
0.0716786
0.0632723
0.056944
0.0520233
0.048102
0.0449147
0.0422814
0.0400757
0.038207
0.0366092
0.0352316
0.034034
0.0329847
0.0320591
0.0312374
0.0305037
0.0298453
0.0292515
0.0287139
0.0282253
0.0277797
0.0273722
0.0269984
0.026655
0.0263386
0.0260468
0.0257772
0.0255277
0.0252967
0.0250824
0.0248835
0.0246986
0.024526
0.0243648
0.0242142
0.0240729
0.0239402
0.0238152
0.0236969
0.0235845
0.0234772
0.0233742
0.023275
0.0231789
0.0230855
0.0229943
0.022905
0.0228172
0.0227308
0.0226456
0.0225614
0.0224782
0.022396
0.0223146
0.0222341
0.0221544
0.0220755
0.0219975
0.0219202
0.0218436
0.0217678
0.0216926
0.0216182
0.0215443
0.0214709
0.021398
0.0213254
0.0212531
0.0211808
0.0211084
0.0210358
0.0209627
0.020889
0.0208144
0.0207387
0.0206615
0.0205825
0.0205011
0.0204167
0.0203282
0.0202355
0.0201387
0.0200379
0.0199329
0.019823
0.0197085
0.0195863
0.0194735
0.019286
0.0833879
0.071676
0.0632681
0.0569381
0.0520152
0.0480913
0.0449007
0.0422629
0.0400509
0.0381745
0.0365807
0.0352197
0.0340436
0.0330143
0.0321032
0.0312888
0.0305552
0.0298904
0.0292854
0.0287331
0.0282278
0.0277648
0.0273401
0.0269503
0.0265925
0.0262638
0.0259618
0.0256842
0.0254289
0.0251939
0.0249774
0.0247777
0.0245931
0.0244225
0.0242645
0.0241178
0.0239812
0.0238536
0.0237335
0.0236198
0.0235113
0.0234072
0.0233067
0.0232091
0.0231141
0.023021
0.0229298
0.0228405
0.0227527
0.0226665
0.0225817
0.0224981
0.0224156
0.0223342
0.0222538
0.0221745
0.022096
0.0220185
0.0219419
0.0218662
0.0217912
0.021717
0.0216436
0.0215707
0.0214985
0.0214267
0.0213553
0.0212841
0.0212131
0.0211421
0.0210709
0.0209994
0.0209274
0.0208546
0.020781
0.0207062
0.02063
0.0205521
0.0204718
0.0203877
0.0202979
0.0202036
0.0201058
0.0200049
0.0199008
0.019793
0.019682
0.0195663
0.0194617
0.0193156
0.0833867
0.0716733
0.0632639
0.0569321
0.0520072
0.0480808
0.0448869
0.042245
0.0400272
0.038147
0.0375875
0.0373115
0.0368933
0.0362586
0.0354487
0.0345317
0.0335687
0.0326055
0.0316732
0.0307913
0.029971
0.0292177
0.0285326
0.0279143
0.0273599
0.026865
0.0264245
0.0260322
0.0256816
0.0253659
0.025078
0.024811
0.0245594
0.0243505
0.024174
0.0240216
0.0238874
0.0237662
0.0236547
0.0235503
0.0234509
0.0233549
0.0232613
0.0231692
0.0230812
0.0229984
0.0229206
0.0228473
0.0227776
0.0227111
0.0226469
0.0225847
0.022524
0.0224646
0.0224063
0.0223488
0.0222921
0.022236
0.0221805
0.0221253
0.0220704
0.0220158
0.0219613
0.0219068
0.0218524
0.021798
0.0217435
0.0216889
0.0216339
0.0215785
0.0215226
0.021466
0.0214086
0.0213501
0.0212905
0.0212295
0.021167
0.0211028
0.0210368
0.0209668
0.0208085
0.0206296
0.0204528
0.0202843
0.0201246
0.0199723
0.0198258
0.019681
0.0195501
0.0193818
0.0833856
0.0716707
0.0632596
0.0569257
0.0519982
0.0480679
0.0448674
0.0422138
0.0399643
0.0381993
0.118792
0.142362
0.142173
0.133798
0.12356
0.113757
0.105107
0.0977359
0.0915676
0.0864685
0.0823004
0.0789364
0.0762638
0.0741817
0.0725992
0.0714326
0.0706044
0.0700435
0.069685
0.0694711
0.0693524
0.069289
0.0692476
0.0692265
0.0692316
0.0692554
0.0692882
0.0693218
0.0693516
0.069376
0.0693956
0.0694135
0.0694256
0.0694331
0.069434
0.0694318
0.0694342
0.0694489
0.0694832
0.0695422
0.0696289
0.069746
0.0698947
0.0700744
0.0702851
0.0705274
0.0708017
0.0711076
0.0714442
0.0718105
0.0722051
0.0726264
0.0730726
0.0735418
0.0740317
0.0745402
0.0750649
0.0756034
0.0761535
0.0767129
0.0772796
0.0778515
0.0784272
0.0790065
0.0795897
0.0801801
0.0807905
0.0814535
0.0823411
0.0832884
0.0534943
0.0390015
0.0311786
0.0266369
0.0238623
0.0221019
0.0209502
0.0201694
0.0196327
0.0191826
0.0833845
0.0716681
0.0632555
0.05692
0.0519904
0.0480576
0.044854
0.0421965
0.0399416
0.0381713
0.118786
0.142408
0.142157
0.133641
0.123227
0.113237
0.1044
0.0968528
0.0905214
0.0852749
0.0809771
0.0775028
0.0747407
0.0725916
0.0709652
0.069778
0.0689517
0.0684131
0.0680944
0.067934
0.067878
0.0678805
0.067904
0.0679194
0.0679056
0.0678484
0.0677382
0.0675687
0.0673368
0.0670419
0.0666849
0.0662683
0.0658048
0.0652994
0.0647575
0.0641862
0.063593
0.0629844
0.0623651
0.06174
0.061114
0.0604921
0.059882
0.0592861
0.0587075
0.0581502
0.0576181
0.057115
0.056645
0.0562121
0.0558205
0.0554741
0.055177
0.0549329
0.0547451
0.054617
0.0545516
0.0545516
0.0546192
0.0547558
0.0549624
0.0552395
0.0555871
0.0560055
0.0564954
0.057059
0.0577045
0.0584482
0.0594041
0.0603643
0.0419164
0.0322745
0.0267624
0.0234077
0.0212779
0.0198859
0.0189549
0.0183047
0.0178323
0.0173356
0.0833833
0.0716656
0.0632515
0.0569143
0.0519827
0.0480474
0.0448405
0.0421785
0.0399172
0.0381388
0.118557
0.142172
0.141975
0.133514
0.12314
0.113171
0.104341
0.0967904
0.0904506
0.0851955
0.0808929
0.0774213
0.0746725
0.0725498
0.0709647
0.0698345
0.069081
0.0686298
0.0684113
0.0683618
0.0684249
0.0685528
0.0687061
0.068854
0.0689737
0.0690499
0.0690725
0.0690353
0.0689355
0.0687728
0.0685487
0.0682656
0.0679276
0.0675393
0.0671062
0.0666344
0.06613
0.0655993
0.065048
0.0644816
0.0639043
0.0633194
0.0627254
0.0621245
0.0615171
0.0609024
0.060279
0.0596454
0.0589998
0.0583407
0.0576667
0.0569766
0.0562693
0.0555442
0.0548009
0.0540398
0.053262
0.0524692
0.0516644
0.0508512
0.0500344
0.0492201
0.048416
0.0476315
0.0468788
0.0461726
0.0455334
0.0449785
0.0445912
0.0441656
0.0311015
0.024379
0.0205793
0.0182752
0.0168063
0.0158403
0.0151989
0.0147454
0.0144124
0.0139635
0.0833823
0.0716632
0.0632478
0.0569092
0.0519761
0.0480391
0.0448303
0.0421662
0.0399027
0.0381222
0.118479
0.142091
0.141905
0.133451
0.123077
0.113104
0.104266
0.0967065
0.0903584
0.0850963
0.080789
0.0773155
0.0745681
0.0724507
0.0708752
0.0697591
0.0690244
0.0685967
0.0684062
0.0683889
0.068488
0.0686549
0.0688501
0.0690426
0.0692096
0.069335
0.0694083
0.0694221
0.0693726
0.0692584
0.0690798
0.068839
0.0685396
0.0681865
0.0677865
0.0673481
0.0668804
0.0663921
0.0658917
0.0653865
0.064883
0.0643861
0.0638999
0.0634317
0.0629916
0.0625772
0.0621834
0.0618047
0.0614364
0.0610741
0.0607145
0.0603546
0.0599917
0.0596239
0.0592491
0.058865
0.0584687
0.0580574
0.0576279
0.0571772
0.056703
0.0562036
0.0556784
0.0551285
0.0545607
0.0540001
0.0534596
0.0529324
0.0524708
0.0519896
0.0371813
0.0297239
0.0255721
0.023057
0.0213749
0.0201235
0.0190883
0.0181459
0.0172508
0.0161425
0.0833812
0.0716609
0.0632442
0.0569045
0.0519701
0.0480317
0.0448212
0.0421554
0.0398899
0.0381072
0.118382
0.141969
0.141782
0.133335
0.122968
0.113
0.104166
0.0966062
0.090257
0.0849933
0.0806844
0.0772103
0.074464
0.0723497
0.0707796
0.0696716
0.0689475
0.0685331
0.0683582
0.0683586
0.0684774
0.0686661
0.0688849
0.0691029
0.0692971
0.069451
0.0695532
0.0695951
0.0695712
0.0694782
0.0693145
0.0690807
0.0687796
0.068416
0.0679978
0.0675348
0.0670377
0.0665168
0.065982
0.0654421
0.0649044
0.0643743
0.0638558
0.0633518
0.0628647
0.0623954
0.0619443
0.0615113
0.0610992
0.0607156
0.0603565
0.0600167
0.0596916
0.0593783
0.0590746
0.0587795
0.0584939
0.0582192
0.0579564
0.057706
0.0574679
0.0572427
0.0570315
0.0568363
0.0566599
0.0565066
0.0563876
0.056321
0.0564063
0.0566913
0.0405662
0.032713
0.0284376
0.0258825
0.0242177
0.0230341
0.0221105
0.0213018
0.020492
0.0194048
0.0833801
0.0716586
0.0632409
0.0569001
0.0519648
0.0480255
0.044814
0.0421472
0.0398807
0.0380969
0.118315
0.141874
0.141674
0.133219
0.122848
0.112876
0.104039
0.0964778
0.0901276
0.0848638
0.080556
0.0770841
0.0743413
0.0722318
0.0706679
0.0695673
0.0688518
0.0684467
0.0682819
0.0682931
0.0684232
0.068624
0.0688561
0.0690888
0.0692995
0.0694717
0.0695931
0.0696539
0.0696463
0.0695643
0.0694034
0.0691616
0.0688404
0.0684445
0.0679829
0.0674679
0.0669125
0.0663299
0.0657321
0.0651294
0.0645303
0.0639412
0.0633667
0.0628089
0.0622695
0.061749
0.0612473
0.0607636
0.0602967
0.0598453
0.0594082
0.0589838
0.0585707
0.0581675
0.0577731
0.0573865
0.0570071
0.0566346
0.0562691
0.0559104
0.0555589
0.0552155
0.0548839
0.0545856
0.054319
0.0540813
0.0538795
0.0537309
0.053735
0.0539641
0.0389251
0.0315762
0.0275621
0.0251582
0.0235929
0.0224865
0.0216337
0.0208964
0.0201545
0.0192345
0.0833791
0.0716565
0.0632378
0.0568963
0.0519603
0.0480205
0.0448087
0.0421417
0.0398752
0.0380913
0.11828
0.141812
0.141586
0.13311
0.122721
0.112735
0.103887
0.0963195
0.0899662
0.0847024
0.0803975
0.0769311
0.0741959
0.0720958
0.0705422
0.0694522
0.0687468
0.0683505
0.068193
0.0682097
0.0683442
0.0685488
0.0687853
0.0690246
0.0692453
0.0694316
0.0695713
0.0696527
0.069665
0.0695977
0.069441
0.0691886
0.0688396
0.0683985
0.0678765
0.0672893
0.0666539
0.065987
0.0653034
0.0646154
0.0639325
0.0632615
0.0626073
0.0619723
0.0613569
0.0607601
0.0601804
0.059616
0.0590647
0.0585244
0.0579932
0.0574694
0.0569515
0.0564381
0.0559282
0.055421
0.054916
0.0544127
0.053911
0.0534109
0.0529123
0.0524156
0.0519211
0.0514303
0.0509447
0.0504667
0.050002
0.0495537
0.0491815
0.0487135
0.0348314
0.0279966
0.024301
0.0221248
0.0207256
0.0197354
0.0189618
0.0182839
0.0176513
0.0168143
0.0833781
0.0716544
0.0632349
0.0568927
0.0519563
0.0480162
0.0448044
0.0421374
0.0398711
0.0380868
0.118218
0.141696
0.141432
0.132935
0.122538
0.112553
0.103712
0.0961535
0.0898121
0.0845624
0.0802743
0.0768279
0.0741165
0.0720437
0.0705203
0.069462
0.0687882
0.0684222
0.0682929
0.0683363
0.0684971
0.0687304
0.0690009
0.0692825
0.0695563
0.0698075
0.0700226
0.0701856
0.0702782
0.0702796
0.070169
0.0699318
0.0695636
0.0690708
0.0684715
0.0677905
0.0670543
0.0662878
0.0655122
0.0647435
0.0639931
0.0632674
0.0625694
0.0618989
0.0612536
0.0606298
0.060023
0.0594284
0.0588418
0.0582593
0.0576773
0.057093
0.056504
0.0559084
0.055305
0.0546927
0.0540715
0.0534412
0.0528023
0.0521554
0.0515012
0.0508409
0.0501762
0.0495094
0.048844
0.0481849
0.0475417
0.0469211
0.0463888
0.0457604
0.0324513
0.02575
0.0220248
0.0197652
0.0182772
0.0172153
0.0163979
0.015706
0.0150964
0.0143156
0.0833772
0.0716525
0.0632323
0.0568897
0.0519533
0.0480138
0.0448034
0.0421389
0.039877
0.0380987
0.118317
0.141751
0.14141
0.132843
0.122399
0.112394
0.103563
0.0960471
0.0897828
0.0846472
0.0805105
0.0772512
0.0747575
0.0729252
0.0716556
0.0708544
0.0704329
0.070309
0.07041
0.0706736
0.0710489
0.0714964
0.0719864
0.0724971
0.0730114
0.0735129
0.0739815
0.0743887
0.0746975
0.0748629
0.07484
0.074597
0.0741249
0.0734394
0.0725784
0.0715927
0.0705358
0.069457
0.0683974
0.0673875
0.0664473
0.0655869
0.0648085
0.0641076
0.0634757
0.0629019
0.0623746
0.0618827
0.0614158
0.0609648
0.0605219
0.0600811
0.0596382
0.059191
0.0587384
0.0582808
0.0578195
0.0573566
0.0568951
0.0564387
0.0559919
0.05556
0.055149
0.0547659
0.054419
0.0541185
0.0538805
0.0537219
0.053734
0.0537541
0.037785
0.029625
0.0250327
0.0222454
0.0204479
0.0192266
0.0183553
0.0176883
0.0171499
0.0165265
0.0833762
0.0716505
0.0632297
0.0568868
0.0519504
0.0480113
0.0448019
0.0421392
0.0398803
0.0381039
0.118146
0.141462
0.141165
0.132728
0.122529
0.112923
0.104658
0.0978691
0.0924729
0.0883119
0.0852135
0.0830092
0.0815419
0.0806693
0.0802651
0.0802204
0.0804439
0.0808616
0.0814158
0.0820635
0.0827738
0.0835257
0.0843058
0.0851053
0.0859164
0.0867288
0.0875231
0.0882642
0.088898
0.0893483
0.0895262
0.0893559
0.0887935
0.0878374
0.086529
0.0849395
0.0831553
0.0812672
0.0793618
0.0775157
0.0757923
0.0742397
0.0728893
0.0717572
0.070845
0.0701415
0.0696258
0.069271
0.0690471
0.0689238
0.0688731
0.0688708
0.0688969
0.068936
0.0689783
0.0690184
0.0690545
0.0690876
0.0691207
0.069158
0.0692048
0.069267
0.0693507
0.0694624
0.0696099
0.0698025
0.0700564
0.0703987
0.070953
0.0716534
0.0476306
0.0358489
0.029424
0.0256401
0.0232796
0.0217358
0.0206812
0.0199186
0.0193363
0.0187552
0.0833753
0.0716487
0.0632273
0.0568844
0.0519487
0.0480115
0.0448067
0.0421538
0.0399249
0.0380319
0.036736
0.0356296
0.0345124
0.0334803
0.0325294
0.0316533
0.0308484
0.0301116
0.0294394
0.0288277
0.0282728
0.0277703
0.0273164
0.0269071
0.0265386
0.0262073
0.0259101
0.0256439
0.0254062
0.0251945
0.025007
0.0248422
0.024699
0.0245769
0.0244756
0.0243956
0.0243372
0.0243001
0.0242826
0.0242814
0.02429
0.0243005
0.024305
0.0242966
0.0242708
0.0242258
0.0241603
0.0240745
0.0239714
0.0238547
0.0237283
0.0235961
0.0234618
0.0233285
0.0231989
0.023075
0.0229583
0.0228495
0.0227487
0.0226558
0.0225702
0.0224908
0.0224166
0.0223462
0.0222785
0.0222121
0.0221459
0.0220789
0.0220103
0.0219392
0.0218653
0.021788
0.0217071
0.0216224
0.0215338
0.0214413
0.0213451
0.0212454
0.0211424
0.0210347
0.0208585
0.020665
0.0204723
0.0202855
0.0201051
0.0199299
0.0197586
0.0195861
0.0194228
0.0192035
0.0833744
0.0716468
0.0632248
0.0568814
0.0519457
0.0480089
0.0448051
0.0421538
0.0399278
0.0380367
0.0364181
0.0350225
0.0338077
0.0327411
0.0317976
0.0309574
0.0302047
0.0295272
0.0289145
0.0283584
0.0278523
0.0273905
0.0269683
0.026582
0.0262282
0.0259043
0.025608
0.0253373
0.0250907
0.024867
0.0246653
0.0244848
0.0243254
0.0241875
0.0240719
0.0239802
0.0239143
0.0238752
0.0238628
0.0238732
0.0238973
0.0239246
0.0239445
0.0239484
0.0239315
0.0238924
0.0238316
0.0237511
0.023654
0.0235436
0.0234237
0.0232974
0.0231678
0.0230371
0.0229073
0.02278
0.0226564
0.0225374
0.0224233
0.0223144
0.0222104
0.022111
0.0220157
0.0219239
0.0218351
0.0217485
0.0216634
0.0215793
0.0214954
0.0214114
0.0213265
0.0212405
0.021153
0.0210638
0.0209728
0.0208797
0.0207846
0.0206873
0.0205872
0.0204833
0.0203742
0.0202608
0.0201443
0.0200253
0.0199039
0.0197799
0.0196536
0.0195225
0.0194003
0.0192306
0.0833735
0.0716449
0.0632222
0.0568785
0.0519428
0.0480064
0.0448038
0.0421548
0.0399327
0.0380468
0.0364309
0.0350341
0.0338163
0.0327457
0.031798
0.0309534
0.0301964
0.0295144
0.0288971
0.0283361
0.0278247
0.0273571
0.0269288
0.0265358
0.026175
0.0258436
0.0255395
0.0252609
0.0250062
0.0247743
0.0245644
0.0243761
0.0242096
0.0240657
0.0239461
0.0238538
0.0237928
0.0237668
0.0237781
0.0238226
0.0238878
0.0239576
0.024016
0.0240506
0.0240553
0.0240287
0.0239723
0.0238892
0.0237838
0.0236616
0.0235274
0.0233854
0.0232394
0.0230918
0.0229452
0.0228022
0.0226646
0.0225337
0.0224101
0.0222942
0.0221856
0.0220841
0.0219889
0.0218995
0.0218149
0.0217343
0.0216568
0.0215817
0.0215081
0.0214354
0.0213629
0.02129
0.0212163
0.0211412
0.0210645
0.0209858
0.0209047
0.0208208
0.0207338
0.020643
0.0205477
0.0204478
0.0203437
0.0202355
0.0201231
0.0200061
0.0198841
0.0197529
0.0196213
0.0194078
0.0833726
0.071643
0.0632195
0.0568751
0.0519388
0.048002
0.0447991
0.0421498
0.0399273
0.0380403
0.0364219
0.0350213
0.0337988
0.0327236
0.0317712
0.0309221
0.0301606
0.0294741
0.0288523
0.0282867
0.0277706
0.0272982
0.0268649
0.0264668
0.0261008
0.0257643
0.025455
0.0251711
0.0249112
0.0246739
0.0244587
0.0242651
0.0240934
0.0239448
0.0238218
0.0237295
0.0236744
0.0236653
0.0237116
0.023811
0.0239463
0.0240918
0.02422
0.0243117
0.0243583
0.024359
0.0243167
0.0242373
0.0241274
0.0239973
0.0238531
0.0237005
0.0235442
0.0233883
0.023236
0.0230898
0.0229514
0.0228221
0.0227024
0.0225924
0.0224919
0.0223999
0.0223157
0.0222378
0.0221651
0.0220961
0.0220295
0.0219639
0.0218981
0.0218311
0.0217619
0.0216899
0.0216143
0.0215347
0.0214508
0.0213623
0.021269
0.0211709
0.0210676
0.0209589
0.0208445
0.0207241
0.0205977
0.0204653
0.0203268
0.0201811
0.0200273
0.0198595
0.0196815
0.0194007
0.0833716
0.071641
0.0632166
0.0568714
0.0519344
0.0479971
0.0447937
0.0421438
0.0399208
0.0380331
0.0364131
0.0350099
0.0337841
0.0327048
0.0317477
0.0308934
0.0301264
0.0294341
0.0288062
0.0282345
0.0277119
0.027233
0.0267932
0.0263887
0.0260163
0.0256735
0.025358
0.0250681
0.0248021
0.0245588
0.0243373
0.024137
0.0239581
0.0238018
0.0236711
0.0235731
0.0235181
0.023524
0.0236234
0.023834
0.0241387
0.0244859
0.0248122
0.0250777
0.0252662
0.0253767
0.0254164
0.025397
0.0253311
0.0252383
0.025137
0.025035
0.0249386
0.0248522
0.0247784
0.0247185
0.0246719
0.0246369
0.0246108
0.0245899
0.0245704
0.0245483
0.0245201
0.0244826
0.0244331
0.02437
0.0242922
0.0241991
0.024091
0.0239685
0.0238325
0.0236843
0.0235252
0.0233566
0.02318
0.0229968
0.022808
0.0226148
0.022418
0.0222181
0.0220157
0.021811
0.0216043
0.0213956
0.0211847
0.0209708
0.0207527
0.0205256
0.0202926
0.0199646
0.0833707
0.071639
0.0632136
0.0568674
0.0519295
0.0479911
0.0447865
0.0421353
0.0399106
0.0380207
0.036398
0.0349912
0.0337611
0.0326771
0.0317149
0.0308552
0.0300825
0.0293842
0.02875
0.0281717
0.0276424
0.0271566
0.0267098
0.0262981
0.0259187
0.0255689
0.0252466
0.02495
0.0246773
0.0244272
0.0241983
0.0239899
0.0238016
0.0236343
0.0234906
0.0233794
0.0233146
0.0233335
0.0235777
0.0241882
0.0251548
0.0262825
0.0273555
0.0282817
0.0290309
0.0296115
0.0300485
0.0303715
0.0306088
0.030776
0.0309183
0.0310478
0.0311563
0.0312356
0.0312788
0.0312811
0.03124
0.0311548
0.0310265
0.0308574
0.0306507
0.03041
0.0301394
0.0298428
0.0295245
0.0291882
0.0288379
0.0284771
0.0281089
0.0277363
0.0273621
0.0269885
0.0266175
0.026251
0.0258904
0.0255369
0.0251915
0.0248549
0.0245276
0.0242098
0.0239035
0.0236092
0.0233265
0.0230554
0.0227956
0.0225464
0.0223065
0.0220699
0.0218342
0.0215313
0.0833698
0.071637
0.0632106
0.0568633
0.0519243
0.0479847
0.0447788
0.042126
0.0398995
0.0380074
0.0363818
0.0349717
0.0337377
0.0326491
0.0316818
0.0308164
0.0300374
0.0293323
0.0286909
0.0281049
0.0275675
0.0270733
0.0266179
0.0261976
0.0258095
0.0254513
0.0251208
0.0248162
0.0245356
0.0242774
0.02404
0.0238218
0.0236214
0.0234385
0.0232733
0.0231353
0.0230387
0.023066
0.024
0.026572
0.0305021
0.0346806
0.0382812
0.0410991
0.0431205
0.0444513
0.045223
0.0455616
0.0455764
0.0453572
0.0449395
0.0443787
0.0437074
0.0429576
0.0421575
0.0413297
0.0404911
0.039654
0.0388264
0.0380137
0.0372194
0.0364453
0.0356928
0.0349625
0.034255
0.0335707
0.0329097
0.0322723
0.0316586
0.0310688
0.0305029
0.0299608
0.0294426
0.0289481
0.0284775
0.028031
0.0276084
0.0272097
0.026835
0.0264845
0.0261567
0.025851
0.0255677
0.025307
0.025068
0.0248499
0.0246501
0.0244645
0.0242846
0.024069
0.083369
0.0716351
0.0632076
0.0568592
0.0519189
0.0479779
0.0447704
0.0421158
0.039887
0.0379921
0.0363634
0.0349495
0.0337111
0.0326175
0.0316446
0.030773
0.0299872
0.0292746
0.0286252
0.0280305
0.027484
0.0269802
0.0265148
0.0260845
0.0256865
0.0253185
0.0249786
0.0246649
0.0243757
0.0241088
0.0238625
0.0236348
0.023423
0.0232253
0.0230376
0.022868
0.0227217
0.0228421
0.027586
0.0386485
0.0518882
0.062409
0.0687121
0.0714689
0.0716441
0.0702029
0.0678774
0.065159
0.0623447
0.0595945
0.0569824
0.0545376
0.0522921
0.0502507
0.0484028
0.0467299
0.0452113
0.0438269
0.0425583
0.0413899
0.0403086
0.0393034
0.0383662
0.0374907
0.036672
0.0359056
0.0351877
0.0345149
0.0338841
0.0332926
0.0327383
0.0322201
0.0317366
0.0312885
0.0308768
0.0304947
0.0301381
0.0298048
0.0294934
0.0292033
0.0289342
0.0286857
0.0284573
0.0282484
0.0280577
0.0278834
0.0277203
0.0275644
0.027383
0.0271739
0.0833682
0.0716334
0.0632048
0.0568553
0.0519137
0.0479712
0.044762
0.0421053
0.0398742
0.0379766
0.0363445
0.0349268
0.0336839
0.0325851
0.0316063
0.030728
0.0299348
0.029214
0.0285554
0.0279507
0.0273934
0.0268782
0.026401
0.0259587
0.0255487
0.025169
0.0248181
0.0244941
0.0241949
0.0239187
0.0236633
0.0234264
0.0232047
0.0229939
0.0227827
0.0225714
0.0223206
0.0228868
0.0428174
0.0735131
0.0975731
0.108699
0.109106
0.103468
0.0953927
0.0869925
0.0792679
0.0725706
0.0669322
0.0622468
0.05837
0.0551557
0.0524722
0.0502063
0.0482666
0.0465822
0.0450998
0.0437805
0.0425962
0.0415263
0.0405581
0.039682
0.0388852
0.0381583
0.0374944
0.0368876
0.0363326
0.0358242
0.0353575
0.0349274
0.034529
0.0341588
0.0338135
0.0334898
0.0331848
0.0328965
0.032623
0.0323633
0.0321168
0.031883
0.0316618
0.031453
0.0312564
0.0310715
0.0308974
0.0307346
0.0305772
0.0304245
0.0302418
0.0300606
0.0833676
0.0716318
0.0632023
0.0568517
0.0519088
0.0479647
0.0447537
0.042095
0.0398613
0.0379607
0.0363252
0.0349033
0.0336556
0.0325514
0.0315662
0.0306807
0.0298792
0.0291491
0.0284802
0.0278641
0.0272944
0.0267658
0.0262746
0.0258179
0.0253937
0.0250005
0.0246369
0.0243013
0.0239916
0.0237061
0.0234429
0.0232016
0.0229807
0.0227799
0.0225891
0.0224086
0.022182
0.0228096
0.0446814
0.0781979
0.104253
0.115104
0.114972
0.108597
0.0995421
0.0900711
0.08132
0.0737171
0.0673282
0.0620541
0.0577408
0.0542257
0.051358
0.0490422
0.0471287
0.0455058
0.0441012
0.0428673
0.0417728
0.0407971
0.039926
0.0391469
0.0384497
0.0378291
0.0372806
0.0367995
0.0363802
0.0360155
0.0356994
0.0354256
0.0351874
0.0349771
0.0347877
0.0346134
0.0344495
0.0342925
0.0341401
0.0339909
0.0338441
0.0336995
0.0335572
0.0334172
0.0332795
0.0331441
0.0330096
0.032874
0.0327327
0.0325897
0.03241
0.0322531
0.0833671
0.0716306
0.0632002
0.0568486
0.0519044
0.0479589
0.0447461
0.0420852
0.039849
0.0379454
0.0363063
0.0348802
0.0336276
0.0325175
0.0315256
0.0306323
0.0298219
0.0290815
0.0284008
0.0277716
0.0271873
0.0266428
0.0261347
0.0256606
0.0252192
0.0248097
0.0244313
0.0240826
0.0237613
0.0234655
0.0231946
0.0229514
0.0227409
0.0225747
0.0224547
0.0223966
0.0223057
0.0229383
0.0439964
0.0772945
0.103716
0.114968
0.115078
0.108938
0.100097
0.0908216
0.0822191
0.0746952
0.0682936
0.0629155
0.058421
0.0546867
0.0516259
0.0490695
0.0469013
0.0450372
0.0434153
0.0419905
0.0407304
0.0396126
0.038622
0.0377482
0.0369854
0.0363277
0.0357706
0.0353101
0.0349416
0.03466
0.0344566
0.0343207
0.034241
0.0342056
0.0342024
0.0342202
0.0342492
0.0342809
0.0343088
0.0343284
0.0343364
0.0343314
0.0343127
0.0342804
0.0342349
0.0341769
0.0341064
0.0340245
0.0339269
0.033821
0.0336698
0.0335538
0.0833668
0.0716298
0.0631987
0.0568461
0.0519008
0.0479538
0.0447393
0.0420763
0.0398375
0.0379308
0.0362881
0.0348577
0.0335999
0.0324838
0.0314848
0.0305831
0.0297629
0.0290112
0.0283174
0.0276731
0.0270718
0.0265085
0.0259801
0.025485
0.0250228
0.0245939
0.0241986
0.0238358
0.0235023
0.0231957
0.0229174
0.0226771
0.0224938
0.0224106
0.022469
0.0227446
0.0229954
0.0236515
0.0417998
0.0720338
0.0970684
0.108817
0.10992
0.104794
0.0971557
0.0891649
0.0817512
0.075179
0.0694319
0.0644125
0.0600205
0.056175
0.0528539
0.0499582
0.047413
0.0451607
0.0431545
0.0413579
0.039744
0.0382933
0.0369929
0.035834
0.0348114
0.0339231
0.0331699
0.0325549
0.0320804
0.0317454
0.0315445
0.0314675
0.0314988
0.0316192
0.0318085
0.0320458
0.0323117
0.032589
0.0328628
0.0331215
0.033357
0.033564
0.0337398
0.0338833
0.0339945
0.0340742
0.0341232
0.0341438
0.0341326
0.0341001
0.0340081
0.0339504
0.0833666
0.0716293
0.0631976
0.0568442
0.0518979
0.0479495
0.0447333
0.0420682
0.0398269
0.0379172
0.0362709
0.0348361
0.0335732
0.032451
0.0314446
0.0305342
0.0297035
0.0289393
0.0282309
0.0275694
0.0269482
0.0263624
0.0258093
0.0252881
0.0248
0.0243475
0.0239331
0.0235561
0.0232116
0.0228971
0.0226175
0.022397
0.0222864
0.0224052
0.0229192
0.0240539
0.0249889
0.025523
0.0265229
0.0303521
0.037411
0.0449698
0.0513946
0.0565307
0.0601042
0.0621721
0.0629187
0.0625462
0.0612677
0.0593182
0.0569341
0.0543258
0.051661
0.0490572
0.0465857
0.0442803
0.04215
0.0401921
0.0384006
0.0367668
0.0352779
0.0339196
0.0326767
0.0315452
0.0305309
0.0296459
0.0289059
0.0283259
0.0279152
0.0276734
0.0275886
0.0276342
0.0278022
0.0280791
0.028449
0.0289009