/*--------------------------------*- C++ -*----------------------------------*\
| =========                 |                                                 |
| \\      /  F ield         | OpenFOAM: The Open Source CFD Toolbox           |
|  \\    /   O peration     | Version:  v2012                                 |
|   \\  /    A nd           | Website:  www.openfoam.com                      |
|    \\/     M anipulation  |                                                 |
\*---------------------------------------------------------------------------*/
FoamFile
{
    version     2.0;
    format      ascii;
    class       volScalarField;
    location    "300/air";
    object      nut;
}
// * * * * * * * * * * * * * * * * * * * * * * * * * * * * * * * * * * * * * //

dimensions      [0 2 -1 0 0 0 0];


internalField   nonuniform List<scalar> 
287104
(
0.00648527
0.00601325
0.00565025
0.00536086
0.00512465
0.0049284
0.00476303
0.00462202
0.00450058
0.00439507
0.00430271
0.0042213
0.00414911
0.00408475
0.00402708
0.00397517
0.00392826
0.0038857
0.00384694
0.00381154
0.00377909
0.00374927
0.00372177
0.00369636
0.00367282
0.00365096
0.0036306
0.0036116
0.00359383
0.00357717
0.00356152
0.00354679
0.00353288
0.00351973
0.00350725
0.00349539
0.00348409
0.00347329
0.00346294
0.003453
0.00344342
0.00343416
0.0034252
0.00341649
0.003408
0.00339972
0.00339162
0.00338367
0.00337586
0.00336817
0.0033606
0.00335312
0.00334573
0.00333842
0.00333118
0.00332401
0.00331691
0.00330986
0.00330288
0.00329595
0.00328907
0.00328224
0.00327546
0.00326872
0.00326203
0.00325537
0.00324875
0.00324215
0.00323558
0.00322901
0.00322245
0.00321587
0.00320927
0.00320263
0.00319593
0.00318914
0.00318226
0.00317525
0.00316807
0.00316071
0.00315311
0.00314521
0.00313693
0.0031282
0.00311888
0.00310874
0.0030975
0.00308419
0.0030692
0.00303945
0.00648514
0.00601299
0.00564984
0.00536036
0.00512405
0.00492772
0.00476227
0.0046212
0.0044997
0.00439415
0.00430175
0.00422031
0.0041481
0.00408373
0.00402605
0.00397415
0.00392725
0.0038847
0.00384596
0.00381057
0.00377814
0.00374834
0.00372087
0.00369548
0.00367197
0.00365014
0.00362982
0.00361086
0.00359313
0.00357653
0.00356094
0.00354627
0.00353244
0.00351936
0.00350697
0.00349521
0.00348401
0.00347332
0.00346308
0.00345326
0.0034438
0.00343467
0.00342582
0.00341724
0.00340888
0.00340072
0.00339273
0.0033849
0.0033772
0.00336961
0.00336213
0.00335473
0.00334741
0.00334017
0.00333299
0.00332587
0.0033188
0.00331179
0.00330482
0.0032979
0.00329102
0.00328418
0.00327738
0.00327061
0.00326388
0.00325718
0.0032505
0.00324384
0.00323719
0.00323054
0.00322388
0.0032172
0.00321049
0.00320372
0.00319689
0.00318996
0.00318292
0.00317574
0.0031684
0.00316084
0.00315303
0.00314491
0.00313642
0.00312747
0.00311792
0.00310755
0.00309611
0.00308261
0.00306746
0.00303779
0.00648509
0.00601286
0.00564968
0.00536013
0.00512377
0.00492739
0.0047619
0.00462079
0.00449925
0.00439366
0.00430123
0.00421978
0.00414755
0.00408317
0.0040255
0.0039736
0.00392671
0.00388417
0.00384544
0.00381006
0.00377765
0.00374786
0.00372041
0.00369505
0.00367156
0.00364976
0.00362947
0.00361055
0.00359287
0.00357631
0.00356077
0.00354616
0.0035324
0.0035194
0.00350709
0.00349542
0.00348431
0.00347372
0.00346359
0.00345388
0.00344454
0.00343553
0.00342682
0.00341836
0.00341013
0.0034021
0.00339425
0.00338654
0.00337897
0.00337152
0.00336416
0.0033569
0.00334972
0.0033426
0.00333556
0.00332857
0.00332164
0.00331476
0.00330793
0.00330115
0.00329441
0.00328772
0.00328106
0.00327445
0.00326787
0.00326133
0.00325481
0.00324831
0.00324183
0.00323535
0.00322887
0.00322237
0.00321584
0.00320927
0.00320263
0.0031959
0.00318907
0.0031821
0.00317496
0.00316761
0.00316002
0.00315213
0.00314389
0.00313518
0.0031259
0.00311583
0.00310474
0.00309168
0.00307704
0.00304852
0.00648503
0.00601274
0.00564947
0.00535985
0.00512342
0.00492696
0.0047614
0.00462021
0.00449861
0.00439296
0.00430048
0.00421898
0.00414674
0.00408234
0.00402466
0.00397276
0.00392586
0.00388332
0.00384459
0.00380922
0.0037768
0.00374702
0.00371957
0.00369421
0.00367073
0.00364893
0.00362866
0.00360976
0.0035921
0.00357558
0.00356009
0.00354553
0.00353183
0.00351889
0.00350667
0.00349508
0.00348407
0.00347358
0.00346356
0.00345396
0.00344474
0.00343586
0.00342726
0.00341893
0.00341082
0.00340291
0.00339517
0.00338758
0.00338012
0.00337277
0.00336551
0.00335833
0.00335123
0.00334419
0.00333721
0.00333029
0.00332341
0.00331658
0.00330979
0.00330305
0.00329634
0.00328968
0.00328305
0.00327645
0.00326989
0.00326335
0.00325684
0.00325034
0.00324385
0.00323736
0.00323086
0.00322434
0.00321779
0.00321118
0.00320449
0.00319772
0.00319082
0.00318378
0.00317656
0.00316913
0.00316143
0.00315341
0.00314502
0.00313617
0.00312674
0.00311653
0.00310531
0.00309215
0.00307744
0.00304906
0.00648499
0.00601263
0.0056493
0.00535962
0.00512312
0.0049266
0.00476096
0.0046197
0.00449803
0.00439231
0.00429978
0.00421825
0.00414598
0.00408157
0.00402389
0.00397199
0.00392509
0.00388256
0.00384384
0.00380847
0.00377606
0.00374628
0.00371884
0.00369349
0.00367002
0.00364823
0.00362798
0.0036091
0.00359148
0.003575
0.00355956
0.00354506
0.00353143
0.00351858
0.00350644
0.00349495
0.00348406
0.00347369
0.0034638
0.00345434
0.00344525
0.00343651
0.00342806
0.00341987
0.00341191
0.00340414
0.00339654
0.00338909
0.00338175
0.00337452
0.00336739
0.00336032
0.00335333
0.00334639
0.00333951
0.00333268
0.00332589
0.00331914
0.00331243
0.00330576
0.00329913
0.00329253
0.00328596
0.00327941
0.00327289
0.00326639
0.00325991
0.00325343
0.00324696
0.00324047
0.00323396
0.00322742
0.00322083
0.00321417
0.00320742
0.00320056
0.00319356
0.00318639
0.00317902
0.00317139
0.00316347
0.0031552
0.00314651
0.00313734
0.00312757
0.00311701
0.00310544
0.00309196
0.00307697
0.00304845
0.00648494
0.00601252
0.00564912
0.00535936
0.00512278
0.00492617
0.00476044
0.0046191
0.00449733
0.00439154
0.00429896
0.0042174
0.00414513
0.00408073
0.00402305
0.00397117
0.00392428
0.00388175
0.00384302
0.00380765
0.00377523
0.00374545
0.003718
0.00369264
0.00366917
0.00364739
0.00362715
0.0036083
0.00359072
0.00357429
0.00355891
0.00354449
0.00353095
0.00351821
0.0035062
0.00349486
0.00348412
0.00347392
0.00346422
0.00345495
0.00344608
0.00343755
0.00342932
0.00342136
0.00341362
0.00340608
0.00339871
0.00339147
0.00338436
0.00337735
0.00337043
0.00336357
0.00335679
0.00335006
0.00334337
0.00333674
0.00333014
0.00332358
0.00331706
0.00331057
0.00330412
0.0032977
0.0032913
0.00328493
0.00327857
0.00327223
0.00326591
0.00325958
0.00325324
0.00324689
0.00324051
0.00323408
0.0032276
0.00322104
0.00321439
0.00320761
0.00320069
0.00319359
0.00318627
0.00317869
0.00317079
0.00316254
0.00315388
0.00314475
0.00313508
0.00312468
0.00311339
0.00310036
0.00308598
0.00305869
0.00648489
0.0060124
0.00564894
0.0053591
0.00512244
0.00492573
0.00475989
0.00461842
0.00449652
0.00439059
0.0042979
0.00421627
0.00414397
0.00407956
0.00402189
0.00397002
0.00392315
0.00388063
0.00384191
0.00380654
0.00377413
0.00374434
0.00371689
0.00369155
0.00366809
0.00364633
0.00362612
0.00360732
0.00358981
0.00357347
0.0035582
0.00354391
0.00353053
0.00351798
0.00350618
0.00349507
0.0034846
0.00347469
0.00346529
0.00345635
0.00344782
0.00343965
0.00343179
0.00342421
0.00341684
0.00340965
0.00340262
0.00339573
0.00338896
0.0033823
0.00337572
0.00336922
0.00336279
0.00335641
0.00335009
0.00334381
0.00333758
0.00333139
0.00332525
0.00331914
0.00331307
0.00330703
0.00330103
0.00329506
0.00328911
0.0032832
0.0032773
0.00327143
0.00326558
0.00325973
0.00325388
0.00324803
0.00324215
0.00323624
0.00323028
0.00322425
0.00321812
0.00321187
0.00320547
0.00319885
0.00319198
0.00318482
0.0031773
0.0031694
0.00316107
0.0031522
0.00314264
0.00313169
0.00311968
0.00309672
0.00648484
0.00601229
0.00564875
0.00535884
0.00512208
0.00492526
0.00475929
0.00461768
0.00449563
0.00438956
0.00429681
0.0042152
0.00414295
0.00407859
0.00402097
0.00396912
0.00392224
0.00387968
0.0038409
0.00380545
0.00377294
0.00374305
0.0037155
0.00369006
0.00366652
0.00364471
0.00362447
0.00360567
0.00358819
0.00357193
0.00355678
0.00354266
0.00352948
0.00351714
0.00350558
0.00349473
0.00348454
0.00347494
0.00346587
0.00345726
0.00344907
0.00344123
0.0034337
0.00342642
0.00341936
0.00341248
0.00340575
0.00339915
0.00339266
0.00338626
0.00337993
0.00337367
0.00336748
0.00336134
0.00335527
0.00334925
0.00334328
0.00333737
0.00333151
0.00332571
0.00331995
0.00331424
0.00330859
0.00330297
0.0032974
0.00329186
0.00328635
0.00328087
0.00327539
0.00326993
0.00326445
0.00325896
0.00325343
0.00324785
0.00324219
0.00323646
0.0032306
0.0032246
0.00321841
0.00321198
0.00320522
0.00319811
0.00319067
0.0031829
0.00317476
0.00316622
0.00315728
0.00314768
0.00313881
0.00312389
0.0064848
0.00601218
0.00564857
0.00535856
0.00512168
0.00492471
0.00475855
0.00461666
0.00449423
0.0043877
0.00429514
0.00421448
0.00414353
0.00408042
0.00402374
0.00397238
0.00392554
0.00388262
0.00384313
0.00380673
0.00377311
0.00374205
0.00371333
0.00368677
0.00366222
0.00363953
0.00361855
0.00359916
0.00358124
0.00356466
0.00354932
0.00353512
0.00352194
0.00350972
0.00349836
0.00348778
0.00347791
0.00346865
0.00345992
0.00345163
0.00344371
0.00343609
0.00342872
0.00342155
0.00341455
0.00340768
0.00340094
0.00339433
0.00338782
0.00338141
0.0033751
0.00336887
0.00336272
0.00335664
0.00335062
0.00334468
0.0033388
0.00333298
0.00332722
0.00332152
0.00331588
0.00331029
0.00330474
0.00329925
0.00329379
0.00328837
0.00328297
0.00327759
0.00327222
0.00326685
0.00326146
0.00325605
0.0032506
0.0032451
0.00323953
0.00323386
0.00322809
0.00322218
0.00321607
0.00320966
0.0032028
0.00319556
0.00318804
0.00318025
0.00317217
0.00316378
0.0031551
0.00314599
0.00313774
0.0031261
0.00648475
0.00601207
0.00564838
0.00535827
0.00512128
0.00492417
0.00475782
0.00461569
0.0044929
0.00438612
0.00435385
0.00433786
0.00431349
0.00427623
0.00422821
0.00417317
0.00411457
0.00405511
0.0039967
0.00394066
0.00388781
0.00383862
0.00379334
0.003752
0.00371454
0.00368078
0.00365046
0.00362324
0.00359875
0.00357654
0.00355617
0.00353716
0.00351929
0.00350438
0.00349171
0.00348074
0.00347103
0.00346225
0.00345414
0.00344652
0.00343926
0.00343223
0.00342536
0.00341858
0.0034121
0.00340599
0.00340024
0.00339481
0.00338965
0.00338471
0.00337995
0.00337533
0.00337082
0.00336641
0.00336207
0.00335779
0.00335357
0.0033494
0.00334526
0.00334116
0.00333707
0.00333301
0.00332896
0.00332491
0.00332086
0.00331682
0.00331277
0.00330871
0.00330463
0.00330052
0.00329638
0.00329218
0.00328793
0.0032836
0.00327919
0.00327468
0.00327005
0.00326529
0.00326039
0.00325518
0.00324307
0.0032293
0.00321564
0.00320257
0.00319014
0.00317824
0.00316675
0.00315532
0.00314497
0.00313155
0.00648471
0.00601196
0.00564818
0.00535798
0.00512084
0.00492351
0.00475678
0.00461398
0.00448937
0.00438912
0.00774012
0.0084733
0.00846771
0.00821456
0.00789406
0.00757449
0.00728084
0.00702094
0.00679581
0.0066039
0.00644278
0.00630974
0.006202
0.00611674
0.00605113
0.0060023
0.00596738
0.00594361
0.00592836
0.00591924
0.00591416
0.00591145
0.00590969
0.00590886
0.00590918
0.0059103
0.00591181
0.00591333
0.00591469
0.0059158
0.0059167
0.00591752
0.00591808
0.00591844
0.00591852
0.00591847
0.00591861
0.00591929
0.0059208
0.00592337
0.00592713
0.00593219
0.0059386
0.00594634
0.0059554
0.00596579
0.00597754
0.00599062
0.00600499
0.00602059
0.00603737
0.00605525
0.00607414
0.00609395
0.00611459
0.00613595
0.00615794
0.00618044
0.00620336
0.0062266
0.00625006
0.00627367
0.00629737
0.00632113
0.00634498
0.00636904
0.0063938
0.00642054
0.00645592
0.00649342
0.00520347
0.00444268
0.00397199
0.00367119
0.00347469
0.00334409
0.00325587
0.00319472
0.00315204
0.00311585
0.00648466
0.00601185
0.005648
0.0053577
0.00512046
0.00492299
0.00475607
0.00461303
0.00448809
0.00438751
0.00773991
0.00847466
0.00846722
0.00820973
0.00788342
0.00755714
0.00725634
0.00698916
0.00675688
0.00655817
0.00639078
0.00625219
0.00613977
0.00605085
0.00598267
0.0059324
0.00589715
0.00587406
0.00586034
0.00585342
0.00585099
0.00585109
0.00585209
0.00585274
0.00585214
0.00584968
0.00584493
0.00583761
0.00582759
0.00581481
0.00579931
0.00578117
0.00576092
0.00573876
0.0057149
0.00568964
0.00566329
0.00563613
0.00560836
0.00558019
0.00555183
0.0055235
0.00549557
0.00546816
0.00544142
0.00541554
0.00539072
0.00536717
0.00534508
0.00532468
0.00530618
0.00528979
0.00527575
0.00526425
0.00525547
0.00524959
0.00524676
0.00524713
0.00525079
0.00525782
0.00526825
0.00528206
0.00529925
0.00531978
0.00534364
0.00537089
0.00540185
0.00543721
0.00548214
0.0055269
0.00460566
0.0040414
0.00368015
0.00344179
0.00328154
0.00317248
0.00309745
0.00304402
0.00300464
0.00296271
0.00648462
0.00601175
0.00564782
0.00535744
0.00512008
0.00492246
0.00475536
0.00461205
0.00448673
0.00438565
0.00773246
0.00846766
0.00846181
0.00820584
0.00788064
0.00755496
0.00725429
0.00698691
0.00675424
0.00655512
0.00638747
0.00624892
0.00613699
0.00604914
0.00598269
0.00593485
0.00590274
0.00588342
0.00587405
0.00587192
0.00587464
0.00588013
0.00588672
0.00589306
0.00589821
0.00590148
0.00590247
0.00590091
0.00589667
0.00588975
0.00588017
0.00586806
0.00585355
0.00583683
0.00581813
0.00579768
0.00577574
0.00575257
0.0057284
0.00570346
0.00567795
0.00565201
0.00562554
0.00559865
0.00557136
0.00554361
0.00551535
0.00548649
0.00545693
0.00542659
0.0053954
0.00536328
0.00533016
0.00529599
0.00526073
0.00522438
0.00518696
0.00514853
0.00510921
0.00506916
0.00502861
0.00498784
0.00494724
0.0049073
0.00486867
0.00483215
0.00479889
0.00476986
0.00474959
0.00472719
0.00396703
0.00351238
0.0032272
0.00304123
0.00291649
0.00283131
0.00277342
0.00273189
0.00270111
0.00265907
0.00648458
0.00601164
0.00564766
0.0053572
0.00511975
0.00492204
0.00475482
0.00461138
0.00448591
0.00438469
0.0077299
0.00846523
0.00845972
0.00820389
0.00787862
0.00755271
0.00725168
0.00698388
0.0067508
0.00655131
0.00638337
0.00624465
0.0061327
0.00604501
0.00597891
0.00593165
0.00590033
0.00588202
0.00587384
0.0058731
0.00587736
0.00588453
0.0058929
0.00590115
0.0059083
0.00591368
0.00591683
0.00591745
0.00591537
0.00591054
0.00590295
0.00589269
0.0058799
0.00586477
0.00584759
0.0058287
0.00580847
0.00578728
0.00576549
0.00574341
0.00572133
0.00569947
0.00567801
0.00565734
0.00563787
0.00561949
0.00560199
0.00558514
0.00556874
0.00555261
0.00553659
0.00552053
0.00550434
0.00548791
0.00547117
0.00545398
0.00543622
0.00541774
0.00539838
0.00537797
0.0053564
0.00533354
0.00530935
0.00528381
0.00525712
0.00523018
0.00520433
0.00517928
0.00515756
0.0051359
0.00434399
0.00388475
0.00360301
0.00342133
0.00329441
0.00319703
0.00311407
0.00303639
0.00296056
0.00286376
0.00648453
0.00601155
0.0056475
0.00535697
0.00511945
0.00492166
0.00475434
0.00461079
0.00448519
0.00438383
0.00772674
0.00846159
0.00845605
0.00820032
0.00787514
0.00754925
0.00724817
0.00698026
0.00674701
0.00654734
0.00637923
0.0062404
0.00612841
0.00604078
0.00597488
0.00592792
0.00589704
0.00587928
0.00587177
0.00587179
0.0058769
0.005885
0.00589438
0.00590371
0.00591202
0.00591861
0.00592298
0.00592479
0.0059238
0.00591987
0.00591292
0.00590297
0.00589012
0.00587456
0.00585661
0.00583667
0.00581518
0.00579257
0.00576928
0.00574567
0.00572207
0.00569872
0.00567579
0.00565344
0.00563176
0.00561082
0.00559063
0.0055712
0.00555268
0.00553542
0.00551925
0.00550394
0.0054893
0.00547519
0.00546151
0.00544823
0.00543539
0.00542307
0.00541131
0.00540013
0.00538953
0.00537956
0.00537028
0.00536177
0.00535417
0.00534768
0.00534283
0.00534048
0.00534533
0.00535958
0.00453333
0.00407078
0.00379546
0.00362102
0.00350277
0.00341629
0.00334729
0.00328564
0.00322272
0.0031362
0.00648449
0.00601145
0.00564735
0.00535677
0.00511919
0.00492134
0.00475395
0.00461034
0.00448467
0.00438323
0.00772455
0.00845877
0.00845283
0.00819676
0.00787128
0.0075451
0.00724376
0.00697561
0.00674217
0.00654235
0.00637415
0.00623529
0.00612336
0.00603586
0.00597015
0.00592348
0.00589293
0.00587556
0.00586848
0.00586896
0.00587456
0.00588318
0.00589312
0.00590308
0.00591209
0.00591944
0.00592463
0.00592724
0.00592693
0.00592346
0.00591662
0.00590632
0.00589261
0.00587565
0.00585582
0.0058336
0.00580955
0.00578422
0.0057581
0.00573166
0.00570526
0.00567918
0.00565365
0.00562876
0.00560459
0.00558119
0.00555855
0.00553665
0.00551545
0.00549489
0.00547493
0.0054555
0.00543654
0.00541799
0.0053998
0.00538194
0.00536437
0.00534709
0.0053301
0.0053134
0.00529702
0.00528099
0.00526532
0.00525121
0.00523873
0.00522772
0.00521847
0.00521181
0.00521256
0.0052242
0.00443697
0.00399628
0.00373365
0.00356712
0.00345433
0.00337229
0.0033076
0.00325058
0.00319216
0.0031185
0.00648445
0.00601136
0.00564721
0.00535659
0.00511897
0.00492108
0.00475367
0.00461004
0.00448436
0.00438291
0.0077234
0.00845691
0.00845022
0.0081934
0.0078672
0.00754037
0.00723848
0.00696988
0.00673612
0.00653612
0.00636787
0.00622909
0.00611736
0.00603017
0.00596484
0.00591856
0.00588842
0.00587142
0.00586464
0.00586535
0.00587113
0.00587991
0.00589005
0.00590029
0.00590972
0.00591767
0.00592363
0.0059271
0.00592763
0.00592477
0.0059181
0.00590734
0.00589243
0.00587352
0.00585105
0.00582568
0.00579811
0.00576902
0.00573905
0.00570874
0.00567849
0.00564862
0.00561934
0.00559079
0.005563
0.00553592
0.00550951
0.00548367
0.00545832
0.00543337
0.00540874
0.00538433
0.00536009
0.00533595
0.00531186
0.00528779
0.00526372
0.00523961
0.00521548
0.00519131
0.0051671
0.00514286
0.00511863
0.00509446
0.00507045
0.00504671
0.00502353
0.00500108
0.00498238
0.00495869
0.00419175
0.00375785
0.00350088
0.00334029
0.00323277
0.00315441
0.00309176
0.00303571
0.00298243
0.00291028
0.00648442
0.00601128
0.00564708
0.00535642
0.00511878
0.00492086
0.00475344
0.00460981
0.00448413
0.00438265
0.00772139
0.00845345
0.00844561
0.00818802
0.00786134
0.00753429
0.00723235
0.00696387
0.00673035
0.00653071
0.00636299
0.00622491
0.00611408
0.00602798
0.0059639
0.00591897
0.00589018
0.00587448
0.00586892
0.00587077
0.00587768
0.00588767
0.00589925
0.00591128
0.00592296
0.00593366
0.00594281
0.00594974
0.00595369
0.00595377
0.0059491
0.00593906
0.00592341
0.00590241
0.00587675
0.00584746
0.00581562
0.0057823
0.00574838
0.00571458
0.0056814
0.00564915
0.00561798
0.0055879
0.00555883
0.00553061
0.00550307
0.00547599
0.00544916
0.00542242
0.00539559
0.00536853
0.00534112
0.00531326
0.00528487
0.0052559
0.00522632
0.00519613
0.00516531
0.0051339
0.00510194
0.00506947
0.00503658
0.00500339
0.00497006
0.00493684
0.00490425
0.00487264
0.00484546
0.00481309
0.00405282
0.0036098
0.00333818
0.00316212
0.0030407
0.00295109
0.0028803
0.00281905
0.002764
0.00269177
0.00648438
0.00601119
0.00564697
0.00535628
0.00511863
0.00492074
0.00475339
0.00460989
0.00448446
0.00438333
0.0077246
0.0084551
0.00844493
0.00818518
0.00785687
0.00752896
0.00722716
0.00696001
0.00672925
0.00653399
0.00637235
0.00624206
0.0061405
0.0060648
0.00601178
0.00597809
0.00596029
0.00595506
0.00595935
0.00597051
0.00598637
0.00600522
0.00602579
0.00604717
0.00606863
0.00608949
0.00610892
0.00612577
0.00613854
0.0061454
0.00614453
0.00613461
0.00611524
0.00608696
0.00605123
0.00601006
0.00596559
0.00591986
0.0058746
0.00583116
0.00579045
0.00575298
0.00571892
0.00568814
0.00566033
0.00563504
0.0056118
0.00559013
0.00556958
0.00554974
0.00553028
0.00551089
0.00549138
0.00547162
0.00545155
0.0054312
0.00541059
0.00538983
0.00536905
0.0053484
0.0053281
0.0053084
0.00528959
0.005272
0.00525606
0.00524227
0.00523142
0.00522435
0.00522551
0.005227
0.00438196
0.00387981
0.00356628
0.00336178
0.00322303
0.00312524
0.00305355
0.00299751
0.0029515
0.0028974
0.00648434
0.00601111
0.00564685
0.00535614
0.00511848
0.00492061
0.00475331
0.0046099
0.00448465
0.00438363
0.00771903
0.00844647
0.00843764
0.00818162
0.00786107
0.00754669
0.00726531
0.0070258
0.00682943
0.00667408
0.00655602
0.00647072
0.00641333
0.00637897
0.00636301
0.00636128
0.00637017
0.00638672
0.0064086
0.00643408
0.0064619
0.00649123
0.00652152
0.00655241
0.00658362
0.00661473
0.00664501
0.00667315
0.00669715
0.00671417
0.00672095
0.00671467
0.00669363
0.00665766
0.00660808
0.00654732
0.00647845
0.00640477
0.00632958
0.00625591
0.00618641
0.00612319
0.00606777
0.00602104
0.00598325
0.00595412
0.00593287
0.00591845
0.00590961
0.00590509
0.00590368
0.00590435
0.00590621
0.00590863
0.00591118
0.00591363
0.00591586
0.00591791
0.00591988
0.00592196
0.00592441
0.00592759
0.00593169
0.00593699
0.00594381
0.00595252
0.0059638
0.00597878
0.00600268
0.00603257
0.00491814
0.00426651
0.00386512
0.00360785
0.00343758
0.00332146
0.00323972
0.00317932
0.00313243
0.00308497
0.00648431
0.00601104
0.00564675
0.00535603
0.0051184
0.00492062
0.00475357
0.0046107
0.00448715
0.00437949
0.00430423
0.00423891
0.0041719
0.00410907
0.00405032
0.00399542
0.00394431
0.00389694
0.00385321
0.00381298
0.00377611
0.00374242
0.00371172
0.00368381
0.0036585
0.00363561
0.00361494
0.00359634
0.00357963
0.0035647
0.00355142
0.00353971
0.00352951
0.00352078
0.00351353
0.00350779
0.0035036
0.00350094
0.00349969
0.00349962
0.00350025
0.00350102
0.00350135
0.00350076
0.00349891
0.00349568
0.00349095
0.00348475
0.00347729
0.00346882
0.00345963
0.00344999
0.00344017
0.0034304
0.00342087
0.00341176
0.00340315
0.00339512
0.00338768
0.00338083
0.00337451
0.00336867
0.00336323
0.00335808
0.00335313
0.00334831
0.00334351
0.00333867
0.00333371
0.00332859
0.00332325
0.00331766
0.0033118
0.00330565
0.0032992
0.00329244
0.00328538
0.00327804
0.00327041
0.0032624
0.00324899
0.00323415
0.00321929
0.0032048
0.00319075
0.00317703
0.00316354
0.00314989
0.00313692
0.00311938
0.00648427
0.00601096
0.00564663
0.00535589
0.00511825
0.00492049
0.00475348
0.0046107
0.00448731
0.00437977
0.00428558
0.00420267
0.00412914
0.0040635
0.00400453
0.00395127
0.00390296
0.00385894
0.0038187
0.00378182
0.00374792
0.00371673
0.00368798
0.00366147
0.00363703
0.00361451
0.00359379
0.00357475
0.00355732
0.00354143
0.00352705
0.00351413
0.00350268
0.00349275
0.0034844
0.00347776
0.00347299
0.00347016
0.00346926
0.00347002
0.00347177
0.00347376
0.00347521
0.00347549
0.00347427
0.00347144
0.00346701
0.00346116
0.00345407
0.003446
0.0034372
0.00342792
0.00341837
0.00340871
0.0033991
0.00338965
0.00338046
0.0033716
0.0033631
0.00335498
0.00334723
0.00333982
0.00333273
0.00332592
0.00331932
0.00331289
0.00330659
0.00330036
0.00329416
0.00328794
0.00328167
0.0032753
0.00326882
0.0032622
0.00325543
0.00324851
0.00324141
0.00323411
0.00322659
0.00321875
0.00321047
0.00320182
0.00319289
0.00318372
0.00317433
0.00316469
0.00315481
0.00314451
0.00313487
0.00312136
0.00648423
0.00601088
0.00564652
0.00535575
0.00511811
0.00492036
0.00475341
0.00461075
0.00448759
0.00438035
0.00428632
0.00420336
0.00412967
0.00406378
0.00400455
0.00395102
0.00390242
0.0038581
0.00381755
0.00378032
0.00374606
0.00371446
0.00368527
0.00365828
0.00363333
0.00361027
0.00358897
0.00356934
0.00355131
0.00353481
0.00351981
0.0035063
0.00349431
0.00348392
0.00347526
0.00346857
0.00346413
0.00346225
0.00346308
0.00346631
0.00347106
0.00347613
0.00348037
0.00348288
0.00348323
0.00348131
0.00347721
0.00347118
0.00346351
0.00345459
0.00344477
0.00343435
0.00342359
0.0034127
0.00340184
0.00339122
0.00338098
0.00337123
0.00336201
0.00335336
0.00334526
0.0033377
0.00333063
0.00332399
0.00331772
0.00331177
0.00330607
0.00330055
0.00329515
0.00328983
0.00328453
0.00327921
0.00327381
0.00326832
0.0032627
0.00325691
0.00325093
0.00324473
0.00323827
0.0032315
0.00322435
0.00321681
0.00320892
0.00320067
0.00319205
0.00318301
0.00317352
0.00316325
0.00315288
0.00313586
0.0064842
0.0060108
0.00564639
0.00535559
0.00511791
0.00492014
0.00475316
0.00461048
0.00448729
0.00437998
0.0042858
0.00420259
0.0041286
0.00406241
0.00400286
0.00394902
0.0039001
0.00385547
0.00381459
0.00377702
0.00374241
0.00371045
0.00368089
0.00365352
0.00362818
0.00360472
0.00358302
0.00356299
0.00354455
0.00352764
0.00351222
0.0034983
0.00348591
0.00347515
0.00346622
0.0034595
0.00345549
0.00345484
0.00345821
0.00346545
0.00347529
0.00348584
0.00349511
0.00350172
0.00350509
0.00350515
0.00350211
0.00349638
0.00348845
0.00347901
0.00346853
0.0034574
0.00344597
0.00343453
0.00342332
0.00341254
0.00340232
0.00339276
0.00338393
0.00337582
0.00336842
0.00336168
0.00335554
0.0033499
0.00334466
0.00333972
0.00333497
0.00333031
0.00332565
0.0033209
0.00331598
0.00331084
0.00330541
0.00329967
0.00329358
0.00328712
0.00328028
0.00327303
0.00326535
0.00325723
0.00324863
0.00323952
0.00322991
0.00321978
0.00320911
0.00319783
0.00318584
0.00317267
0.00315859
0.00313614
0.00648416
0.00601071
0.00564627
0.00535542
0.0051177
0.00491988
0.00475287
0.00461016
0.00448692
0.00437956
0.00428528
0.00420191
0.0041277
0.00406124
0.00400138
0.00394719
0.00389789
0.00385285
0.00381154
0.00377353
0.00373846
0.00370602
0.00367598
0.00364812
0.0036223
0.00359836
0.00357619
0.00355569
0.00353678
0.0035194
0.00350349
0.00348905
0.0034761
0.00346475
0.00345524
0.00344808
0.00344406
0.00344449
0.00345177
0.00346712
0.00348922
0.00351424
0.0035376
0.00355649
0.00356986
0.00357768
0.00358049
0.00357913
0.0035745
0.00356793
0.00356075
0.00355351
0.00354665
0.00354051
0.0035353
0.00353109
0.00352788
0.00352554
0.00352389
0.00352266
0.00352159
0.00352038
0.00351876
0.00351651
0.00351342
0.00350936
0.00350422
0.00349798
0.00349061
0.00348215
0.00347267
0.00346224
0.00345094
0.00343888
0.00342615
0.00341284
0.00339904
0.00338482
0.00337024
0.00335535
0.00334016
0.00332471
0.003309
0.00329305
0.00327682
0.00326024
0.0032432
0.00322516
0.00320655
0.00318019
0.00648413
0.00601063
0.00564613
0.00535523
0.00511745
0.00491957
0.00475249
0.00460969
0.00448635
0.00437885
0.00428439
0.00420079
0.0041263
0.00405952
0.00399931
0.00394475
0.00389505
0.00384958
0.00380782
0.00376934
0.00373377
0.00370082
0.00367025
0.00364186
0.00361549
0.00359102
0.00356832
0.0035473
0.00352787
0.00350995
0.00349347
0.0034784
0.00346473
0.00345253
0.00344203
0.00343388
0.00342912
0.00343051
0.00344842
0.00349279
0.00356193
0.00364094
0.00371457
0.00377699
0.00382675
0.00386487
0.0038933
0.00391417
0.00392941
0.00394011
0.00394919
0.00395747
0.00396443
0.00396958
0.00397248
0.00397285
0.00397052
0.00396545
0.00395768
0.00394734
0.00393458
0.00391963
0.00390268
0.00388397
0.00386374
0.0038422
0.00381957
0.00379607
0.00377188
0.00374719
0.00372217
0.00369697
0.00367173
0.00364657
0.0036216
0.0035969
0.00357256
0.00354863
0.00352516
0.00350218
0.00347972
0.00345795
0.00343685
0.0034164
0.00339659
0.00337738
0.00335868
0.00334017
0.00332152
0.00329739
0.00648409
0.00601055
0.005646
0.00535504
0.0051172
0.00491925
0.00475208
0.00460918
0.00448572
0.00437808
0.00428344
0.00419962
0.00412486
0.00405778
0.00399722
0.00394226
0.00389213
0.00384618
0.00380391
0.00376486
0.0037287
0.00369514
0.00366393
0.00363489
0.00360787
0.00358275
0.00355942
0.00353777
0.00351772
0.00349917
0.00348202
0.00346619
0.00345159
0.0034382
0.00342607
0.0034159
0.00340876
0.00341079
0.00347916
0.00366089
0.00392237
0.0041825
0.00439433
0.00455324
0.00466388
0.00473528
0.00477616
0.00479392
0.00479462
0.00478303
0.00476098
0.00473123
0.00469539
0.00465508
0.00461172
0.00456648
0.00452025
0.00447366
0.00442717
0.00438106
0.00433555
0.00429073
0.00424671
0.00420354
0.00416126
0.00411991
0.00407954
0.00404018
0.00400187
0.00396465
0.00392855
0.0038936
0.00385984
0.00382728
0.00379596
0.00376592
0.00373718
0.00370978
0.00368374
0.00365911
0.00363589
0.00361397
0.00359342
0.00357425
0.00355645
0.00353997
0.00352466
0.00351022
0.00349604
0.00347906
0.00648406
0.00601047
0.00564586
0.00535484
0.00511693
0.0049189
0.00475164
0.00460862
0.00448502
0.0043772
0.00428235
0.00419828
0.00412324
0.00405582
0.00399488
0.00393949
0.00388887
0.0038424
0.00379954
0.00375988
0.00372305
0.00368877
0.00365683
0.00362703
0.00359926
0.00357339
0.00354933
0.00352698
0.00350624
0.003487
0.00346914
0.00345255
0.00343706
0.00342252
0.00340867
0.0033961
0.00338522
0.00339417
0.00373004
0.00441512
0.0051158
0.00561056
0.00588707
0.00600399
0.00601131
0.00595049
0.00585106
0.00573267
0.0056075
0.00548244
0.00536095
0.00524473
0.00513571
0.00503462
0.00494139
0.0048555
0.00477624
0.00470286
0.00463462
0.00457088
0.00451107
0.00445473
0.0044015
0.00435112
0.00430343
0.00425826
0.00421545
0.00417489
0.00413644
0.00410002
0.00406555
0.00403297
0.00400226
0.00397334
0.00394665
0.00392172
0.00389828
0.0038762
0.0038554
0.00383584
0.00381753
0.00380044
0.00378456
0.00376988
0.00375633
0.00374381
0.00373198
0.0037206
0.00370751
0.00369229
0.00648403
0.00601039
0.00564574
0.00535466
0.00511667
0.00491856
0.00475119
0.00460805
0.0044843
0.0043763
0.00428124
0.00419692
0.00412157
0.0040538
0.00399246
0.00393661
0.00388547
0.00383841
0.00379491
0.00375452
0.00371691
0.0036818
0.00364897
0.00361828
0.00358959
0.00356283
0.00353791
0.00351474
0.00349321
0.00347322
0.00345463
0.0034373
0.00342099
0.00340542
0.00338976
0.003374
0.0033552
0.00339745
0.00464695
0.00608892
0.00701491
0.00740406
0.00741792
0.00722372
0.00693614
0.00662374
0.00632286
0.0060499
0.00581017
0.00560319
0.00542599
0.00527459
0.00514484
0.00503269
0.00493468
0.00484797
0.00477033
0.00470011
0.00463616
0.00457753
0.00452382
0.00447433
0.00442866
0.00438647
0.00434748
0.00431149
0.00427827
0.00424759
0.00421924
0.00419296
0.00416851
0.00414566
0.00412427
0.00410414
0.00408511
0.00406706
0.00404987
0.00403346
0.00401781
0.00400288
0.00398866
0.00397516
0.00396236
0.00395024
0.00393868
0.0039278
0.00391724
0.00390696
0.0038947
0.00388244
0.006484
0.00601033
0.00564563
0.00535449
0.00511643
0.00491823
0.00475075
0.00460748
0.00448358
0.00437539
0.0042801
0.00419551
0.00411985
0.0040517
0.00398993
0.00393357
0.00388186
0.00383415
0.00378991
0.0037487
0.00371018
0.00367409
0.00364022
0.00360845
0.00357869
0.00355088
0.00352496
0.00350087
0.0034785
0.00345774
0.0034385
0.00342076
0.00340444
0.00338954
0.00337531
0.0033618
0.00334475
0.0033917
0.00474698
0.00627987
0.00725098
0.00761898
0.00761461
0.00740053
0.00708533
0.00673993
0.00640427
0.0060977
0.00582762
0.00559488
0.00539709
0.0052304
0.00509044
0.0049747
0.00487686
0.00479219
0.00471756
0.00465085
0.00459067
0.00453616
0.00448675
0.00444194
0.00440128
0.00436458
0.00433171