/*--------------------------------*- C++ -*----------------------------------*\
| =========                 |                                                 |
| \\      /  F ield         | OpenFOAM: The Open Source CFD Toolbox           |
|  \\    /   O peration     | Version:  v2012                                 |
|   \\  /    A nd           | Website:  www.openfoam.com                      |
|    \\/     M anipulation  |                                                 |
\*---------------------------------------------------------------------------*/
FoamFile
{
    version     2.0;
    format      ascii;
    class       volScalarField;
    location    "300/air";
    object      qin;
}
// * * * * * * * * * * * * * * * * * * * * * * * * * * * * * * * * * * * * * //

dimensions      [1 0 -3 0 0 0 0];


internalField   uniform 0;

boundaryField
{
    inlet
    {
        type            calculated;
        value           nonuniform List<scalar> 
3200
(
579.479
583.514
581.84
580.55
579.462
578.418
577.384
576.354
575.328
574.31
573.303
572.311
571.335
570.375
569.43
568.497
567.574
566.665
565.77
564.891
564.022
563.162
562.306
561.452
560.602
559.763
558.95
558.189
557.512
556.949
556.524
556.251
556.123
556.11
556.149
556.176
556.166
556.132
556.096
556.065
556.038
556.009
555.987
555.987
556.011
556.054
556.121
556.211
556.325
556.458
556.608
556.77
556.94
557.12
557.307
557.492
557.654
557.764
557.799
557.751
557.641
557.514
557.413
557.361
557.338
557.286
557.137
556.849
556.442
555.999
555.645
555.496
555.607
555.945
556.393
556.778
556.885
556.448
555.052
549.445
569.859
581.279
580.933
579.335
577.973
576.769
575.663
574.612
573.588
572.587
571.617
570.683
569.78
568.893
567.999
567.083
566.151
565.221
564.31
563.423
562.559
561.715
560.888
560.075
559.278
558.501
557.757
557.067
556.454
555.944
555.557
555.309
555.199
555.189
555.219
555.237
555.234
555.221
555.208
555.195
555.177
555.157
555.149
555.166
555.207
555.267
555.352
555.463
555.599
555.759
555.938
556.13
556.332
556.543
556.76
556.98
557.19
557.371
557.503
557.578
557.609
557.621
557.643
557.685
557.724
557.707
557.573
557.28
556.828
556.272
555.694
555.176
554.759
554.419
554.056
553.497
552.551
551.177
549.165
542.647
560.195
575.233
577.772
576.892
575.736
574.594
573.485
572.428
571.428
570.481
569.581
568.714
567.859
566.997
566.117
565.22
564.324
563.446
562.591
561.751
560.908
560.051
559.185
558.322
557.482
556.69
555.966
555.326
554.786
554.355
554.044
553.856
553.782
553.787
553.822
553.851
553.862
553.864
553.861
553.855
553.846
553.837
553.84
553.864
553.91
553.976
554.067
554.186
554.333
554.508
554.71
554.934
555.179
555.442
555.724
556.018
556.313
556.586
556.816
556.987
557.099
557.165
557.197
557.193
557.12
556.921
556.534
555.921
555.096
554.132
553.147
552.259
551.541
550.971
550.422
549.722
548.86
548.047
546.432
539.678
553.028
568.735
573.919
574.217
573.598
572.775
571.795
570.745
569.707
568.713
567.783
566.889
565.989
565.069
564.148
563.254
562.406
561.601
560.811
559.997
559.104
558.123
557.094
556.076
555.125
554.289
553.596
553.05
552.642
552.36
552.191
552.121
552.126
552.173
552.227
552.268
552.291
552.301
552.304
552.303
552.299
552.298
552.31
552.341
552.392
552.465
552.564
552.696
552.862
553.066
553.304
553.572
553.862
554.169
554.486
554.806
555.118
555.399
555.621
555.755
555.782
555.7
555.518
555.244
554.874
554.385
553.755
552.986
552.119
551.242
550.456
549.831
549.356
548.934
548.432
547.846
547.421
547.147
545.128
537.969
547.984
562.868
569.988
571.396
571.209
570.715
569.987
569.08
568.087
567.075
566.09
565.124
564.147
563.156
562.168
561.219
560.334
559.508
558.7
557.854
556.911
555.878
554.813
553.797
552.904
552.179
551.628
551.23
550.954
550.773
550.669
550.628
550.634
550.666
550.706
550.742
550.77
550.789
550.8
550.807
550.815
550.831
550.863
550.913
550.984
551.08
551.204
551.359
551.549
551.772
552.024
552.294
552.573
552.846
553.104
553.336
553.526
553.655
553.699
553.637
553.463
553.189
552.844
552.46
552.058
551.642
551.207
550.75
550.278
549.811
549.356
548.9
548.401
547.835
547.264
546.921
547.006
546.796
543.839
536.699
544.206
557.383
565.74
568.21
568.36
568.12
567.72
567.141
566.421
565.607
564.663
563.575
562.426
561.284
560.163
559.079
558.071
557.153
556.307
555.466
554.632
553.83
553.044
552.288
551.63
551.111
550.72
550.414
550.158
549.933
549.743
549.598
549.506
549.463
549.458
549.476
549.506
549.536
549.565
549.592
549.623
549.665
549.723
549.798
549.889
549.997
550.122
550.265
550.427
550.603
550.788
550.97
551.139
551.284
551.397
551.473
551.506
551.488
551.409
551.262
551.056
550.817
550.587
550.403
550.285
550.218
550.159
550.044
549.81
549.415
548.852
548.156
547.417
546.778
546.446
546.612
547.035
546.322
542.366
535.753
541.056
552.16
561.184
564.816
565.425
565.426
565.35
565.145
564.8
564.357
563.592
562.383
560.969
559.587
558.283
557.054
555.938
554.972
554.164
553.418
552.821
552.432
552.081
551.638
551.153
550.711
550.332
549.984
549.642
549.301
548.984
548.722
548.54
548.44
548.407
548.418
548.453
548.497
548.543
548.588
548.635
548.686
548.745
548.81
548.878
548.947
549.016
549.085
549.156
549.228
549.3
549.366
549.423
549.466
549.495
549.514
549.524
549.524
549.511
549.483
549.45
549.434
549.465
549.56
549.704
549.839
549.875
549.712
549.289
548.611
547.771
546.927
546.268
545.971
546.16
546.756
547.055
545.465
540.823
535.078
538.367
547.465
556.656
561.508
562.765
563.007
563.184
563.263
563.193
563.078
562.577
561.392
559.807
558.227
556.781
555.465
554.31
553.361
552.642
552.01
551.601
551.527
551.503
551.238
550.752
550.206
549.697
549.235
548.805
548.402
548.041
547.749
547.548
547.441
547.409
547.423
547.46
547.506
547.552
547.59
547.619
547.641
547.656
547.667
547.672
547.671
547.664
547.657
547.654
547.661
547.681
547.716
547.765
547.827
547.904
548
548.116
548.253
548.403
548.559
548.719
548.886
549.062
549.231
549.349
549.343
549.131
548.662
547.955
547.112
546.304
545.713
545.48
545.68
546.28
546.946
546.72
544.239
539.366
534.612
536.178
543.522
552.396
558.346
560.376
560.829
561.166
561.462
561.564
561.608
561.32
560.309
558.766
557.15
555.674
554.351
553.209
552.291
551.631
551.066
550.704
550.708
550.794
550.579
550.02
549.325
548.672
548.12
547.661
547.273
546.945
546.682
546.496
546.391
546.353
546.353
546.371
546.392
546.411
546.419
546.412
546.389
546.355
546.316
546.277
546.242
546.213
546.198
546.203
546.233
546.293
546.384
546.505
546.652
546.828
547.033
547.269
547.529
547.798
548.056
548.277
548.439
548.522
548.501
548.346
548.025
547.526
546.88
546.172
545.529
545.083
544.933
545.127
545.657
546.384
546.81
545.907
542.762
538.061
534.271
534.542
540.388
548.461
555.194
558.069
558.73
559.121
559.618
559.926
560.042
559.833
558.986
557.591
556.06
554.655
553.413
552.344
551.476
550.845
550.305
549.894
549.787
549.811
549.595
549.02
548.268
547.553
546.969
546.515
546.154
545.854
545.605
545.413
545.283
545.207
545.165
545.139
545.118
545.1
545.078
545.048
545.012
544.976
544.949
544.934
544.932
544.946
544.98
545.038
545.125
545.241
545.388
545.566
545.776
546.019
546.294
546.594
546.902
547.186
547.402
547.51
547.479
547.299
546.981
546.55
546.045
545.511
545.008
544.599
544.346
544.292
544.467
544.888
545.527
546.169
546.19
544.638
541.137
536.887
533.963
533.492
538.055
544.907
551.966
555.71
556.664
556.997
557.601
558.183
558.457
558.287
557.501
556.181
554.704
553.377
552.269
551.358
550.623
550.062
549.555
549.08
548.795
548.67
548.436
547.925
547.235
546.551
545.975
545.514
545.137
544.813
544.532
544.299
544.121
543.994
543.904
543.835
543.781
543.738
543.701
543.67
543.654
543.664
543.703
543.762
543.831
543.904
543.984
544.078
544.189
544.321
544.48
544.672
544.903
545.172
545.467
545.762
546.019
546.19
546.225
546.092
545.791
545.36
544.864
544.38
543.971
543.677
543.509
543.457
543.511
543.674
543.982
544.472
545.091
545.52
545.064
542.976
539.409
535.774
533.598
532.904
536.415
541.785
548.654
553.201
554.624
554.849
555.347
556.137
556.71
556.714
555.985
554.641
553.087
551.716
550.69
549.979
549.475
549.079
548.664
548.18
547.756
547.474
547.199
546.772
546.194
545.583
545.03
544.55
544.127
543.747
543.412
543.13
542.908
542.745
542.629
542.546
542.486
542.443
542.41
542.391
542.399
542.442
542.516
542.607
542.704
542.8
542.897
543.002
543.122
543.264
543.435
543.642
543.88
544.134
544.375
544.563
544.655
544.61
544.405
544.048
543.585
543.096
542.672
542.383
542.259
542.282
542.4
542.557
542.732
542.956
543.298
543.79
544.304
544.422
543.466
540.999
537.612
534.648
533.101
532.455
535.194
539.053
545.273
550.438
552.535
552.752
552.943
553.711
554.587
554.935
554.416
553.103
551.418
549.875
548.801
548.222
547.957
547.776
547.508
547.096
546.633
546.242
545.909
545.523
545.03
544.481
543.948
543.457
543.005
542.589
542.217
541.902
541.654
541.474
541.357
541.291
541.259
541.247
541.251
541.271
541.296
541.298
541.266
541.225
541.21
541.246
541.331
541.458
541.624
541.834
542.083
542.349
542.596
542.783
542.881
542.871
542.742
542.494
542.144
541.733
541.328
541.004
540.825
540.816
540.955
541.18
541.42
541.628
541.819
542.058
542.415
542.864
543.184
542.911
541.485
538.818
535.784
533.466
532.43
531.825
534.103
536.638
541.886
547.363
550.26
550.733
550.621
551.13
552.117
552.825
552.676
551.572
549.856
548.117
546.868
546.267
546.115
546.091
545.981
545.716
545.334
544.93
544.56
544.182
543.729
543.214
542.693
542.205
541.757
541.344
540.968
540.642
540.378
540.188
540.077
540.039
540.054
540.101
540.188
540.299
540.345
540.22
539.91
539.526
539.221
539.088
539.124
539.282
539.531
539.862
540.25
540.624
540.894
541.001
540.937
540.742
540.469
540.164
539.864
539.602
539.417
539.345
539.405
539.587
539.848
540.126
540.37
540.569
540.77
541.038
541.391
541.723
541.757
541.053
539.241
536.55
533.97
532.215
531.58
530.921
533.016
534.534
538.644
544.046
547.715
548.782
548.635
548.822
549.655
550.522
550.733
549.983
548.432
546.631
545.205
544.446
544.212
544.18
544.143
544.015
543.767
543.434
543.096
542.76
542.363
541.891
541.39
540.911
540.474
540.076
539.71
539.38
539.102
538.898
538.789
538.776
538.833
538.949
539.143
539.364
539.422
539.122
538.46
537.654
536.994
536.645
536.594
536.743
537.03
537.442
537.944
538.429
538.757
538.845
538.713
538.457
538.193
538.006
537.937
537.989
538.149
538.392
538.691
539.017
539.348
539.668
539.983
540.315
540.691
541.092
541.414
541.467
540.974
539.609
537.263
534.47
532.216
530.824
530.485
529.864
531.987
532.822
535.77
540.701
544.926
546.82
547.005
546.961
547.399
548.093
548.475
548.136
547.022
545.506
544.145
543.266
542.81
542.557
542.382
542.213
541.991
541.708
541.438
541.206
540.941
540.586
540.154
539.701
539.27
538.872
538.502
538.16
537.865
537.644
537.529
537.525
537.606
537.773
538.045
538.313
538.315
537.829
536.899
535.826
534.967
534.496
534.363
534.434
534.643
535.001
535.496
536.02
536.416
536.583
536.54
536.399
536.285
536.277
536.392
536.605
536.879
537.183
537.498
537.81
538.115
538.419
538.745
539.119
539.534
539.907
540.085
539.871
539.029
537.331
534.867
532.333
530.559
529.504
529.375
528.824
531.101
531.545
533.418
537.551
541.965
544.677
545.44
545.301
545.203
545.419
545.71
545.729
545.266
544.419
543.491
542.698
542.046
541.472
540.989
540.582
540.209
539.859
539.603
539.471
539.379
539.214
538.93
538.563
538.166
537.775
537.401
537.053
536.744
536.5
536.353
536.316
536.377
536.552
536.83
537.028
536.867
536.201
535.166
534.103
533.323
532.919
532.774
532.733
532.757
532.913
533.247
533.693
534.113
534.403
534.554
534.637
534.735
534.893
535.116
535.381
535.666
535.959
536.253
536.547
536.848
537.172
537.544
537.968
538.383
538.653
538.617
538.115
536.959
535.016
532.56
530.364
529.018
528.189
528.2
527.876
530.339
530.607
531.57
534.708
538.909
542.231
543.677
543.648
543.093
542.723
542.704
542.873
542.977
542.869
542.537
542.015
541.33
540.556
539.823
539.164
538.579
538.078
537.74
537.616
537.635
537.653
537.564
537.353
537.064
536.747
536.431
536.128
535.831
535.543
535.299
535.134
535.084
535.197
535.405
535.449
535.071
534.259
533.259
532.395
531.873
531.667
531.583
531.445
531.247
531.122
531.191
531.456
531.827
532.217
532.593
532.958
533.308
533.633
533.922
534.184
534.435
534.695
534.972
535.269
535.594
535.967
536.398
536.843
537.188
537.282
537.004
536.237
534.826
532.735
530.4
528.584
527.59
526.896
526.992
526.974
529.568
529.793
530.051
532.169
535.851
539.517
541.686
542.066
541.382
540.577
540.161
540.205
540.521
540.844
540.948
540.714
540.159
539.415
538.637
537.878
537.16
536.518
536.043
535.819
535.825
535.932
535.999
535.962
535.839
535.679
535.518
535.34
535.09
534.734
534.307
533.898
533.632
533.6
533.69
533.58
533.045
532.182
531.298
530.661
530.37
530.324
530.293
530.081
529.687
529.296
529.102
529.169
529.456
529.911
530.499
531.165
531.813
532.348
532.731
532.996
533.211
533.435
533.699
534.012
534.383
534.817
535.287
535.695
535.896
535.775
535.27
534.29
532.69
530.546
528.428
526.998
526.268
525.642
525.79
526.011
528.651
528.914
528.693
529.908
532.906
536.65
539.508
540.579
540.174
539.223
538.472
538.218
538.401
538.758
538.992
538.928
538.567
538.017
537.378
536.682
535.95
535.23
534.626
534.252
534.146
534.222
534.343
534.414
534.431
534.444
534.473
534.454
534.262
533.822
533.181
532.495
531.983
531.779
531.744
531.541
530.98
530.202
529.492
529.027
528.82
528.775
528.702
528.404
527.869
527.307
526.96
526.92
527.161
527.654
528.392
529.304
530.23
530.994
531.509
531.808
532
532.187
532.435
532.768
533.194
533.681
534.144
534.439
534.444
534.116
533.438
532.298
530.568
528.461
526.638
525.576
525.021
524.418
524.6
524.832
527.468
527.856
527.376
527.835
529.968
533.397
536.745
538.713
539.032
538.308
537.398
536.831
536.693
536.789
536.861
536.766
536.526
536.213
535.836
535.386
534.821
534.163
533.517
533.021
532.763
532.718
532.772
532.82
532.843
532.891
532.973
532.977
532.739
532.192
531.425
530.642
530.088
529.867
529.805
529.597
529.124
528.543
528.063
527.726
527.475
527.263
527.011
526.599
526.038
525.538
525.311
525.388
525.679
526.152
526.849
527.762
528.751
529.614
530.22
530.573
530.775
530.955
531.205
531.566
532.019
532.475
532.798
532.863
532.637
532.146
531.343
530.058
528.25
526.318
524.913
524.204
523.735
523.128
523.339
523.608
526.2
526.753
526.208
526.15
527.385
530.086
533.442
536.143
537.397
537.232
536.425
535.684
535.251
535.023
534.806
534.517
534.219
533.996
533.824
533.703
533.481
533.076
532.559
532.066
531.713
531.537
531.47
531.406
531.304
531.195
531.077
530.841
530.369
529.677
528.926
528.323
528.038
528.057
528.14
528.022
527.67
527.272
526.983
526.752
526.462
526.092
525.66
525.174
524.733
524.538
524.695
525.08
525.489
525.863
526.304
526.905
527.624
528.317
528.86
529.223
529.473
529.711
530.017
530.404
530.803
531.087
531.141
530.942
530.549
529.969
529.055
527.631
525.843
524.247
523.325
522.886
522.412
521.799
522.028
522.603
525.088
525.776
525.274
524.969
525.524
527.361
530.255
533.233
535.276
535.82
535.357
534.638
534.039
533.577
533.134
532.647
532.182
531.852
531.678
531.757
531.868
531.8
531.552
531.213
530.893
530.668
530.52
530.357
530.108
529.766
529.316
528.696
527.884
527.009
526.296
525.932
525.982
526.314
526.628
526.678
526.469
526.206
526.033
525.893
525.662
525.302
524.848
524.383
524.095
524.201
524.712
525.37
525.878
526.155
526.328
526.555
526.88
527.245
527.582
527.873
528.156
528.48
528.86
529.24
529.511
529.568
529.392
529.058
528.626
527.995
526.943
525.411
523.765
522.584
522.065
521.752
521.219
520.618
520.853
521.711
524.023
524.813
524.385
524.01
524.145
525.211
527.398
530.221
532.753
534.001
534.061
533.552
532.913
532.313
531.745
531.154
530.553
530.04
529.686
529.742
530.006
530.195
530.237
530.158
530.017
529.876
529.739
529.527
529.147
528.566
527.78
526.79
525.668
524.614
523.885
523.645
523.888
524.418
524.927
525.185
525.188
525.103
525.055
525.024
524.932
524.735
524.418
524.043
523.824
524.007
524.604
525.335
525.876
526.12
526.169
526.171
526.201
526.262
526.359
526.521
526.782
527.138
527.527
527.831
527.946
527.845
527.606
527.315
526.925
526.213
524.996
523.427
522.031
521.264
521.016
520.71
520.107
519.548
519.783
520.781
522.906
523.797
523.461
523.117
523.063
523.572
525.022
527.382
530.043
531.853
532.522
532.396
531.857
531.198
530.566
529.951
529.306
528.662
528.087
527.951
528.145
528.395
528.619
528.807
528.94
529.009
528.971
528.734
528.211
527.398
526.344
525.117
523.837
522.709
521.972
521.766
522.052
522.625
523.217
523.649
523.904
524.068
524.203
524.304
524.361
524.363
524.25
523.991
523.739
523.754
524.141
524.72
525.213
525.477
525.543
525.502
525.413
525.314
525.258
525.308
525.495
525.777
526.045
526.185
526.155
526.021
525.882
525.728
525.358
524.51
523.158
521.673
520.608
520.193
520.077
519.705
519.057
518.565
518.796
519.765
521.757
522.779
522.561
522.295
522.205
522.388
523.218
524.972
527.439
529.563
530.803
531.18
530.891
530.257
529.576
528.948
528.317
527.642
526.928
526.577
526.574
526.706
526.942
527.283
527.658
527.952
528.028
527.759
527.094
526.106
524.931
523.689
522.487
521.472
520.821
520.644
520.894
521.387
521.922
522.4
522.819
523.201
523.517
523.733
523.881
524.008
524.056
523.911
523.61
523.384
523.436
523.747
524.127
524.409
524.544
524.564
524.513
524.434
524.38
524.4
524.494
524.602
524.637
524.557
524.422
524.339
524.338
524.254
523.79
522.767
521.371
520.102
519.404
519.25
519.161
518.705
518.055
517.654
517.881
518.736
520.692
521.883
521.809
521.626
521.57
521.606
521.999
523.154
525.199
527.347
528.991
529.886
529.97
529.47
528.763
528.088
527.463
526.823
526.092
525.624
525.439
525.381
525.483
525.796
526.238
526.618
526.723
526.402
525.66
524.656
523.591
522.591
521.704
520.98
520.512
520.374
520.536
520.858
521.21
521.563
521.954
522.382
522.761
523.013
523.168
523.31
523.423
523.373
523.1
522.754
522.57
522.648
522.895
523.155
523.342
523.462
523.556
523.646
523.733
523.793
523.783
523.662
523.431
523.165
522.99
522.976
523.017
522.826
522.134
520.94
519.611
518.646
518.289
518.3
518.178
517.664
517.065
516.776
517.012
517.846
519.848
521.222
521.299
521.174
521.155
521.149
521.28
521.935
523.449
525.353
527.146
528.461
528.989
528.753
528.097
527.365
526.702
526.096
525.431
524.966
524.704
524.494
524.396
524.51
524.786
525.034
525.03
524.65
523.952
523.137
522.406
521.838
521.393
521.027
520.757
520.634
520.66
520.761
520.866
520.98
521.164
521.43
521.7
521.883
521.978
522.064
522.162
522.18
522.023
521.746
521.529
521.502
521.642
521.846
522.054
522.288
522.582
522.908
523.172
523.262
523.115
522.765
522.336
522.001
521.873
521.903
521.845
521.39
520.408
519.104
517.933
517.282
517.175
517.246
517.06
516.527
516.027
515.866
516.139
517.223
519.295
520.829
521.031
520.914
520.892
520.876
520.872
521.159
522.137
523.61
525.296
526.857
527.825
527.974
527.494
526.75
526.018
525.396
524.799
524.405
524.168
523.894
523.608
523.432
523.374
523.314
523.103
522.681
522.133
521.639
521.332
521.207
521.157
521.078
520.951
520.817
520.713
520.625
520.521
520.405
520.327
520.326
520.375
520.417
520.429
520.447
520.504
520.56
520.543
520.441
520.337
520.314
520.387
520.527
520.74
521.081
521.562
522.079
522.442
522.481
522.165
521.639
521.146
520.887
520.878
520.912
520.665
519.905
518.698
517.402
516.451
516.058
516.077
516.107
515.827
515.295
514.91
514.876
515.21
516.905
518.997
520.63
520.903
520.742
520.665
520.629
520.562
520.609
521.128
522.107
523.497
525.11
526.435
527.023
526.834
526.159
525.354
524.657
524.073
523.751
523.592
523.331
522.914
522.453
522.023
521.614
521.191
520.761
520.398
520.203
520.212
520.354
520.501
520.562
520.519
520.413
520.284
520.139
519.957
519.724
519.466
519.236
519.069
518.966
518.907
518.887
518.918
518.991
519.071
519.119
519.138
519.15
519.179
519.26
519.464
519.863
520.434
521.006
521.331
521.239
520.776
520.19
519.782
519.698
519.815
519.809
519.359
518.384
517.122
515.981
515.286
515.078
515.11
515.02
514.619
514.078
513.788
513.847
514.238
516.791
518.809
520.467
520.756
520.516
520.349
520.274
520.182
520.102
520.293
520.827
521.838
523.327
524.847
525.811
525.951
525.412
524.566
523.77
523.151
522.871
522.799
522.594
522.112
521.438
520.71
520.035
519.48
519.082
518.862
518.821
518.912
519.054
519.172
519.239
519.276
519.306
519.329
519.312
519.214
519.006
518.701
518.36
518.062
517.861
517.759
517.732
517.764
517.846
517.961
518.068
518.134
518.148
518.133
518.157
518.313
518.667
519.164
519.613
519.781
519.557
519.06
518.58
518.376
518.482
518.659
518.55
517.939
516.905
515.781
514.926
514.51
514.434
514.419
514.176
513.645
513.077
512.836
512.936
513.336
516.723
518.575
520.204
520.479
520.157
519.9
519.784
519.69
519.57
519.577
519.786
520.419
521.639
523.134
524.294
524.694
524.324
523.505
522.659
522.019
521.772
521.779
521.646
521.149
520.35
519.447
518.641
518.058
517.72
517.566
517.506
517.462
517.399
517.346
517.373
517.534
517.816
518.137
518.39
518.49
518.403
518.151
517.806
517.471
517.228
517.104
517.081
517.126
517.216
517.328
517.425
517.472
517.452
517.39
517.345
517.392
517.568
517.817
517.996
517.961
517.691
517.334
517.12
517.18
517.414
517.534
517.264
516.547
515.596
514.75
514.248
514.106
514.137
514.069
513.696
513.059
512.464
512.234
512.325
512.667
516.559
518.198
519.777
520.045
519.673
519.352
519.21
519.131
519.026
518.966
518.977
519.278
520.127
521.371
522.489
523.012
522.814
522.126
521.356
520.78
520.6
520.684
520.613
520.123
519.269
518.299
517.475
516.938
516.664
516.511
516.333
516.061
515.743
515.519
515.537
515.863
516.43
517.076
517.618
517.935
517.993
517.836
517.547
517.235
516.989
516.854
516.825
516.875
516.969
517.07
517.143
517.158
517.107
517.001
516.871
516.748
516.644
516.538
516.39
516.188
515.993
515.923
516.063
516.365
516.622
516.58
516.117
515.348
514.565
514.042
513.878
513.97
514.09
513.993
513.542
512.854
512.26
512.036
512.096
512.332
516.259
517.688
519.223
519.517
519.138
518.791
518.639
518.579
518.508
518.444
518.35
518.379
518.811
519.642
520.516
521.03
521.006
520.565
520.027
519.636
519.578
519.733
519.703
519.219
518.349
517.377
516.591
516.122
515.894
515.712
515.413
514.964
514.488
514.192
514.258
514.733
515.503
516.357
517.078
517.539
517.712
517.65
517.443
517.188
516.966
516.826
516.781
516.818
516.905
517.002
517.069
517.08
517.019
516.879
516.65
516.328
515.921
515.468
515.05
514.775
514.748
515.005
515.463
515.907
516.081
515.823
515.186
514.42
513.828
513.589
513.681
513.934
514.113
514.005
513.528
512.848
512.302
512.105
512.145
512.273
515.857
517.107
518.619
518.973
518.626
518.278
518.126
518.076
518.028
517.972
517.82
517.636
517.675
518.046
518.584
519.017
519.17
519.063
518.878
518.767
518.868
519.083
519.061
518.572
517.706
516.764
516.032
515.616
515.406
515.195
514.835
514.334
513.85
513.599
513.738
514.277
515.084
515.946
516.673
517.159
517.39
517.411
517.298
517.126
516.954
516.825
516.767
516.783
516.858
516.955
517.033
517.056
516.994
516.814
516.482
515.98
515.338
514.661
514.116
513.877
514.041
514.547
515.173
515.611
515.62
515.158
514.414
513.705
513.291
513.253
513.495
513.823
514.018
513.896
513.419
512.789
512.327
512.187
512.235
512.297
515.418
516.524
518.028
518.464
518.17
517.831
517.674
517.618
517.566
517.499
517.303
516.969
516.704
516.689
516.919
517.266
517.593
517.836
518.038
518.233
518.494
518.745
518.708
518.209
517.365
516.475
515.8
515.414
515.2
514.968
514.611
514.164
513.778
513.627
513.811
514.303
514.978
515.667
516.243
516.649
516.882
516.966
516.949
516.878
516.783
516.694
516.645
516.657
516.726
516.825
516.91
516.931
516.842
516.596
516.161
515.538
514.792
514.07
513.566
513.45
513.762
514.361
514.957
515.242
515.047
514.439
513.681
513.076
512.812
512.893
513.19
513.522
513.69
513.537
513.061
512.492
512.127
512.061
512.138
512.189
514.989
515.975
517.479
518.002
517.765
517.433
517.262
517.184
517.103
517.001
516.766
516.346
515.902
515.645
515.672
515.964
516.429
516.961
517.493
517.952
518.346
518.613
518.554
518.056
517.262
516.45
515.841
515.476
515.241
514.99
514.657
514.295
514.025
513.957
514.127
514.485
514.932
515.356
515.705
515.975
516.167
516.28
516.339
516.367
516.367
516.35
516.349
516.391
516.479
516.584
516.656
516.634
516.466
516.117
515.586
514.915
514.204
513.603
513.275
513.32
513.701
514.229
514.627
514.659
514.264
513.587
512.897
512.432
512.294
512.436
512.735
513.03
513.143
512.94
512.457
511.942
511.662
511.66
511.77
511.848
514.567
515.448
516.947
517.554
517.372
517.039
516.845
516.733
516.607
516.458
516.192
515.747
515.249
514.902
514.839
515.099
515.633
516.329
517.07
517.71
518.197
518.477
518.413
517.949
517.241
516.538
516.01
515.666
515.403
515.117
514.784
514.466
514.255
514.205
514.308
514.503
514.721
514.899
515.041
515.176
515.304
515.403
515.491
515.585
515.669
515.739
515.816
515.921
516.051
516.165
516.203
516.1
515.814
515.348
514.748
514.104
513.533
513.156
513.06
513.246
513.607
513.945
514.049
513.802
513.249
512.578
512.013
511.703
511.671
511.852
512.137
512.388
512.442
512.188
511.698
511.231
511.016
511.056
511.181
511.294
514.215
515.011
516.505
517.179
517.039
516.702
516.485
516.344
516.181
515.992
515.711
515.284
514.814
514.477
514.398
514.632
515.167
515.918
516.761
517.51
518.065
518.366
518.316
517.904
517.293
516.704
516.26
515.941
515.648
515.311
514.942
514.611
514.395
514.315
514.339
514.401
514.454
514.463
514.464
514.5
514.562
514.616
514.686
514.805
514.956
515.117
515.293
515.487
515.679
515.809
515.802
515.595
515.172
514.582
513.928
513.341
512.942
512.804
512.926
513.217
513.512
513.629
513.442
512.953
512.296
511.67
511.241
511.07
511.129
511.343
511.625
511.849
511.858
511.56
511.061
510.624
510.447
510.502
510.622
510.755
513.619
514.306
515.771
516.544
516.48
516.138
515.878
515.688
515.472
515.229
514.936
514.565
514.197
513.951
513.889
514.038
514.423
515.037
515.815
516.582
517.194
517.565
517.616
517.355
516.928
516.509
516.166
515.854
515.49
515.037
514.542
514.094
513.765
513.575
513.492
513.461
513.444
513.425
513.426
513.441
513.427
513.378
513.348
513.392
513.524
513.726
513.967
514.216
514.425
514.528
514.451
514.151
513.651
513.05
512.487
512.099
511.964
512.079
512.346
512.604
512.679
512.459
511.947
511.264
510.595
510.103
509.863
509.86
510.036
510.33
510.661
510.9
510.897
510.606
510.171
509.837
509.73
509.791
509.885
510.009
)
;
    }
    outlet
    {
        type            calculated;
        value           nonuniform List<scalar> 
3200
(
618.021
617.931
613.718
610.73
608.123
605.433
602.268
598.627
595.508
593.981
593.972
595.705
597.921
595.141
591.15
590.053
590.654
590.839
587.69
584.054
581.413
580.033
579.762
579.084
577.353
574.618
571.632
568.89
566.707
565.118
564.122
563.677
563.767
564.422
565.472
566.117
566.225
566.066
565.83
565.679
565.721
566.105
566.761
567.534
567.959
567.598
566.472
565.128
564.145
563.778
564.071
564.996
566.513
568.537
571.208
573.613
574.454
574.764
574.983
575.131
575.209
575.245
575.271
575.326
575.44
575.629
575.877
576.13
576.3
576.316
576.185
575.942
575.668
575.481
575.484
575.731
576.194
576.841
577.935
578.429
599.301
611.512
609.954
607.291
604.8
602.254
599.396
596.246
593.559
592.16
592.059
593.385
595
592.761
589.44
588.16
588.271
588.209
585.721
582.565
580.081
578.603
577.995
577.151
575.409
572.805
569.954
567.329
565.229
563.696
562.725
562.279
562.325
562.852
563.717
564.335
564.506
564.42
564.258
564.156
564.216
564.539
565.062
565.646
565.947
565.609
564.617
563.384
562.446
562.083
562.368
563.279
564.766
566.741
569.21
571.425
572.382
572.776
573.013
573.166
573.244
573.27
573.274
573.297
573.376
573.532
573.747
573.966
574.102
574.088
573.927
573.669
573.412
573.268
573.293
573.422
573.499
573.52
573.074
567.82
584.76
603.301
605.656
604.248
602.294
600.008
597.38
594.535
592.052
590.603
590.252
591.095
592.15
590.312
587.624
586.242
585.9
585.554
583.593
580.936
578.656
577.091
576.171
575.144
573.437
571.043
568.417
565.971
563.975
562.49
561.518
561.029
560.987
561.364
562.04
562.605
562.848
562.863
562.793
562.745
562.805
563.046
563.427
563.843
564.05
563.776
562.99
561.982
561.19
560.885
561.155
561.993
563.365
565.204
567.452
569.501
570.583
571.122
571.443
571.646
571.759
571.806
571.815
571.828
571.884
572.007
572.187
572.38
572.513
572.528
572.42
572.217
571.958
571.663
571.287
570.777
570.274
570.029
568.511
560.813
574.512
594.754
600.285
600.298
599.203
597.514
595.268
592.696
590.363
588.934
588.384
588.774
589.324
587.732
585.528
584.18
583.565
582.966
581.261
578.941
576.919
575.44
574.394
573.253
571.581
569.359
566.924
564.625
562.703
561.238
560.248
559.721
559.627
559.919
560.475
560.984
561.252
561.317
561.286
561.253
561.298
561.482
561.785
562.124
562.31
562.124
561.531
560.74
560.093
559.823
560.035
560.754
561.984
563.677
565.73
567.635
568.79
569.459
569.888
570.178
570.359
570.452
570.488
570.514
570.581
570.723
570.937
571.176
571.36
571.407
571.261
570.892
570.293
569.481
568.533
567.704
567.417
567.375
564.638
556.027
567.325
586.958
594.771
595.898
595.413
594.308
592.595
590.522
588.588
587.384
586.624
586.433
586.466
585.048
583.217
581.918
581.097
580.274
578.707
576.654
574.943
573.683
572.64
571.441
569.818
567.762
565.517
563.373
561.541
560.107
559.101
558.525
558.357
558.54
558.951
559.351
559.578
559.639
559.615
559.594
559.653
559.845
560.151
560.487
560.687
560.576
560.122
559.48
558.917
558.643
558.786
559.411
560.543
562.11
563.979
565.739
566.918
567.674
568.188
568.562
568.824
568.988
569.087
569.173
569.304
569.516
569.795
570.07
570.222
570.125
569.695
568.914
567.85
566.672
565.676
565.287
565.624
565.296
561.034
552.598
561.999
579.906
589.349
591.428
591.221
590.449
589.227
587.778
586.464
585.669
584.79
584.043
583.615
582.317
580.748
579.464
578.473
577.494
576.071
574.288
572.877
571.859
570.874
569.652
568.08
566.17
564.088
562.074
560.324
558.931
557.929
557.324
557.089
557.152
557.401
557.664
557.818
557.861
557.854
557.879
558.002
558.256
558.602
558.945
559.142
559.055
558.667
558.098
557.57
557.288
557.402
557.996
559.072
560.519
562.201
563.813
564.983
565.785
566.354
566.794
567.141
567.401
567.6
567.781
567.987