/*--------------------------------*- C++ -*----------------------------------*\
| =========                 |                                                 |
| \\      /  F ield         | OpenFOAM: The Open Source CFD Toolbox           |
|  \\    /   O peration     | Version:  v2012                                 |
|   \\  /    A nd           | Website:  www.openfoam.com                      |
|    \\/     M anipulation  |                                                 |
\*---------------------------------------------------------------------------*/
FoamFile
{
    version     2.0;
    format      ascii;
    class       volScalarField;
    location    "300/air";
    object      qr;
}
// * * * * * * * * * * * * * * * * * * * * * * * * * * * * * * * * * * * * * //

dimensions      [1 0 -3 0 0 0 0];


internalField   uniform 0;

boundaryField
{
    inlet
    {
        type            calculated;
        value           nonuniform List<scalar> 
3200
(
70.9681
75.0024
73.3291
72.0383
70.9508
69.9066
68.8726
67.8426
66.8168
65.7984
64.7916
63.7994
62.8232
61.8634
60.9183
59.9852
59.0631
58.1536
57.259
56.3793
55.5111
54.6506
53.7944
52.9406
52.0906
51.2516
50.4391
49.678
49.0003
48.4375
48.0131
47.7393
47.6118
47.5985
47.6373
47.6649
47.6551
47.6209
47.5842
47.5541
47.5265
47.4973
47.476
47.4758
47.4992
47.5431
47.6095
47.6997
47.8132
47.9471
48.0969
48.2583
48.429
48.6087
48.7955
48.9802
49.1422
49.253
49.2876
49.2395
49.1299
49.0022
48.9019
48.8501
48.8269
48.7749
48.6255
48.3382
47.9309
47.4879
47.1338
46.9843
47.0954
47.4338
47.8822
48.2665
48.3739
47.9365
46.5411
40.9335
61.3473
72.7673
72.4219
70.8236
69.4616
68.258
67.152
66.101
65.0769
64.0759
63.1053
62.1713
61.2691
60.3819
59.4874
58.5717
57.6396
56.7094
55.7984
54.9115
54.0478
53.204
52.3767
51.5639
50.7663
49.9896
49.2461
48.5557
47.9429
47.4322
47.0452
46.7976
46.6872
46.6779
46.7074
46.7259
46.7227
46.7101
46.6967
46.6835
46.6662
46.6459
46.6378
46.6549
46.6952
46.7558
46.8408
46.9516
47.088
47.2477
47.4263
47.6185
47.8207
48.0313
48.2491
48.4691
48.6789
48.8592
48.9912
49.0671
49.0978
49.11
49.1321
49.1737
49.2125
49.1961
49.0621
48.7685
48.3172
47.7603
47.1824
46.6647
46.2479
45.9075
45.5445
44.9861
44.0399
42.666
40.6533
34.1358
51.6833
66.7216
69.2605
68.3809
67.225
66.0831
64.9732
63.9166
62.9168
61.9694
61.0692
60.2026
59.348
58.4859
57.6052
56.7086
55.8123
54.9342
54.0799
53.2399
52.3966
51.54
50.6735
49.8103
48.9707
48.1783
47.4542
46.815
46.2742
45.8434
45.5323
45.3449
45.2707
45.2758
45.3111
45.3394
45.3512
45.3526
45.3496
45.3439
45.3347
45.3254
45.3282
45.353
45.3988
45.4651
45.5562
45.6745
45.8215
45.997
46.1985
46.4228
46.6674
46.931
47.2125
47.507
47.8014
48.0749
48.3049
48.4761
48.588
48.6535
48.6858
48.6816
48.6088
48.4099
48.0225
47.4093
46.5842
45.6209
44.6355
43.7476
43.0294
42.4601
41.9111
41.2111
40.3491
39.5361
37.9209
31.1665
44.5166
60.224
65.408
65.7055
65.0871
64.2639
63.2835
62.2337
61.1955
60.2017
59.2715
58.378
57.4775
56.5576
55.6366
54.7424
53.8942
53.0895
52.2997
51.4856
50.5924
49.6113
48.5831
47.5645
46.6135
45.7779
45.0845
44.5382
44.1305
43.8485
43.6797
43.6092
43.6144
43.6617
43.716
43.7562
43.7792
43.79
43.7931
43.7915
43.7876
43.7867
43.7985
43.8295
43.8804
43.9532
44.053
44.1843
44.351
44.5546
44.793
45.0609
45.3511
45.6574
45.9743
46.2948
46.6065
46.888
47.11
47.2438
47.2708
47.1885
47.0065
46.7329
46.3622
45.8732
45.2436
44.4742
43.608
42.7311
41.9451
41.3192
40.8449
40.4226
39.921
39.3342
38.9093
38.6355
36.6171
29.4574
39.473
54.357
61.4771
62.8842
62.6977
62.2033
61.4759
60.5682
59.5761
58.5634
57.5788
56.6126
55.6361
54.6442
53.6566
52.7075
51.8224
50.9965
50.1885
49.3429
48.4001
47.3664
46.3017
45.2854
44.3923
43.6674
43.1168
42.7189
42.4427
42.2615
42.1575
42.1165
42.1223
42.1544
42.1942
42.2304
42.2586
42.2776
42.2887
42.2957
42.3039
42.3202
42.3514
42.4017
42.4731
42.5687
42.6925
42.848
43.0376
43.2607
43.5123
43.7831
44.0613
44.3349
44.5929
44.8244
45.0149
45.1441
45.188
45.1261
44.9517
44.6776
44.3326
43.9485
43.5465
43.131
42.6961
42.2385
41.7671
41.2994
40.8449
40.3883
39.8901
39.3232
38.7527
38.4094
38.495
38.2849
35.3273
28.1881
35.6951
48.8721
57.2288
59.6985
59.8484
59.6085
59.2088
58.6297
57.9101
57.0961
56.1521
55.0634
53.9142
52.7729
51.6515
50.5681
49.5592
48.6417
47.7956
46.9551
46.121
45.3192
44.5323
43.7768
43.1187
42.5999
42.2082
41.9029
41.6467
41.422
41.2312
41.0863
40.9945
40.952
40.9468
40.965
40.9942
41.0251
41.0533
41.0803
41.1116
41.1541
41.2119
41.2864
41.3773
41.4852
41.6105
41.7542
41.9157
42.0921
42.2765
42.459
42.6278
42.7725
42.8854
42.9614
42.9948
42.977
42.8974
42.7506
42.5444
42.3059
42.0754
41.8916
41.7733
41.7068
41.6476
41.5323
41.2987
40.9039
40.3404
39.6448
38.9052
38.2662
37.9348
38.1004
38.524
37.8106
33.8543
27.2418
32.5442
43.6491
52.6722
56.3046
56.914
56.9149
56.8391
56.6337
56.2884
55.8454
55.0803
53.8718
52.4576
51.0754
49.7717
48.5426
47.4264
46.4608
45.6531
44.9063
44.3095
43.9211
43.5699
43.1266
42.6412
42.2
41.8203
41.473
41.1305
40.7897
40.4725
40.211
40.0288
39.929
39.8961
39.9069
39.9416
39.9861
40.0322
40.077
40.1232
40.1749
40.2337
40.2984
40.3666
40.4355
40.5043
40.5736
40.6445
40.7169
40.7884
40.855
40.9114
40.9545
40.9841
41.0027
41.0127
41.013
40.9999
40.9721
40.9388
40.9231
40.9539
41.0487
41.1926
41.3281
41.3633
41.2009
40.7776
40.1
39.2593
38.4152
37.7563
37.4592
37.6485
38.2447
38.5437
36.9539
32.3121
26.5671
29.8554
38.9532
48.1445
52.9967
54.2538
54.4956
54.673
54.7515
54.6813
54.5666
54.0659
52.8806
51.2955
49.7153
48.2701
46.9534
45.7983
44.8499
44.1305
43.4982
43.0893
43.0161
42.9919
42.7271
42.2407
41.695
41.1859
40.7238
40.2935
39.8906
39.5297
39.2376
39.0367
38.9298
38.8977
38.9118
38.9491
38.9951
39.0404
39.0786
39.108
39.1296
39.1451
39.1556
39.1605
39.1593
39.1532
39.146
39.1431
39.15
39.1701
39.2048
39.2534
39.3155
39.3927
39.4883
39.6049
39.7413
39.8913
40.0479
40.2079
40.3749
40.5503
40.7195
40.8379
40.8318
40.6197
40.1509
39.4435
38.6012
37.7931
37.2015
36.9688
37.169
37.7683
38.435
38.2088
35.7273
30.8543
26.1007
27.6663
35.0107
43.8845
49.8343
51.865
52.3182
52.6544
52.9509
53.0531
53.0968
52.8092
51.7976
50.2548
48.6385
47.1624
45.8398
44.6972
43.7799
43.12
42.5545
42.193
42.1964
42.2828
42.0678
41.5089
40.8141
40.1606
39.6083
39.1494
38.7616
38.4335
38.1702
37.9846
37.8801
37.8414
37.8419
37.8593
37.8812
37.8996
37.9075
37.9004
37.8778
37.8439
37.8049
37.7659
37.7303
37.7021
37.687
37.6915
37.7219
37.7821
37.873
37.9932
38.141
38.3166
38.522
38.7574
39.0174
39.287
39.5446
39.7653
39.9276
40.0105
39.99
39.8346
39.5138
39.015
38.3691
37.6607
37.0172
36.5713
36.4215
36.6156
37.1453
37.8729
38.2987
37.3953
34.2512
29.5493
25.7592
26.0303
31.8762
39.9494
46.6825
49.558
50.2189
50.6094
51.107
51.4148
51.5307
51.3218
50.4747
49.0795
47.5483
46.1435
44.9022
43.8323
42.9647
42.3337
41.7934
41.3829
41.2755
41.3
41.0832
40.5084
39.757
39.0418
38.4579
38.0036
37.6423
37.3428
37.094
36.9016
36.7713
36.6953
36.6535
36.6273
36.6072
36.5889
36.567
36.5368
36.5002
36.4646
36.4375
36.4225
36.4208
36.4346
36.4683
36.5268
36.6134
36.7297
36.8766
37.0546
37.2646
37.5075
37.7825
38.083
38.391
38.6743
38.891
38.9985
38.9674
38.7874
38.4695
38.039
37.5334
36.9995
36.4962
36.0879
35.8348
35.7811
35.9556
36.3766
37.0159
37.6579
37.6792
36.1268
32.6253
28.3757
25.4519
24.9805
29.5432
36.3958
43.4551
47.1986
48.1522
48.4853
49.0897
49.6715
49.9454
49.7755
48.9896
47.6697
46.193
44.8653
43.7579
42.847
42.1118
41.5505
41.0434
40.569
40.2834
40.1589
39.9242
39.4139
38.724
38.0392
37.4632
37.003
36.6255
36.3013
36.0205
35.7879
35.6098
35.4827
35.3925
35.3239
35.2696
35.2265
35.1898
35.1586
35.1425
35.1527
35.1916
35.2508
35.3193
35.3923
35.4728
35.5668
35.6781
35.8101
35.9684
36.1606
36.3921
36.661
36.9555
37.2505
37.5078
37.6782
37.7134
37.5806
37.2801
36.8486
36.353
35.8686
35.4602
35.1659
34.9974
34.9458
34.9994
35.1629
35.4708
35.961
36.5794
37.009
36.5526
34.4645
30.898
27.2622
25.0865
24.3932
27.9033
33.2741
40.1428
44.6892
46.1125
46.338
46.8358
47.6255
48.199
48.2022
47.4732
46.1298
44.5752
43.2046
42.1791
41.4677
40.9637
40.5677
40.1527
39.6688
39.2451
38.9626
38.688
38.2605
37.6827
37.0721
36.5183
36.0388
35.6159
35.236
34.9006
34.6188
34.3971
34.2337
34.1175
34.0344
33.9751
33.9319
33.8986
33.8793
33.8875
33.9307
34.0044
34.0958
34.1925
34.2885
34.386
34.4912
34.6108
34.7523
34.9237
35.1304
35.3688
35.6229
35.8638
36.0521
36.144
36.099
35.8939
35.5363
35.0736
34.585
34.1608
33.8718
33.7481
33.7705
33.8883
34.0459
34.2212
34.445
34.7867
35.2786
35.7928
35.9109
34.9545
32.488
29.1004
26.1366
24.5896
23.9434
26.6826
30.5418
36.7614
41.9269
44.024
44.2405
44.432
45.1999
46.0754
46.4235
45.9049
44.5917
42.9064
41.3641
40.2894
39.7111
39.4459
39.2647
38.9968
38.5845
38.122
37.7309
37.3977
37.0118
36.5185
35.9701
35.4367
34.9458
34.494
34.078
33.7061
33.3911
33.1426
32.963
32.8458
32.7794
32.748
32.736
32.7392
32.7597
32.7844
32.7862
32.7551
32.7136
32.6989
32.7342
32.8196
32.9463
33.1126
33.3225
33.5719
33.8382
34.0842
34.2714
34.3696
34.3594
34.2304
33.9823
33.6322
33.2216
32.8165
32.4928
32.3138
32.3047
32.4439
32.6692
32.9088
33.117
33.3072
33.5467
33.904
34.3525
34.6731
34.3993
32.9732
30.3068
27.2725
24.9544
23.919
23.314
25.5916
28.1263
33.3744
38.8514
41.7492
42.2213
42.1094
42.6188
43.6062
44.3138
44.1646
43.0605
41.3442
39.6054
38.3565
37.7552
37.6035
37.5794
37.4701
37.2049
36.8228
36.4182
36.0487
35.6708
35.2179
34.7025
34.1816
33.6939
33.2456
32.8324
32.457
32.1302
31.8662
31.6763
31.5653
31.5278
31.5423
31.59
31.6768
31.7875
31.8336
31.7087
31.3991
31.0146
30.7094
30.5764
30.6126
30.7705
31.0193
31.3511
31.7389
32.1126
32.383
32.4893
32.4257
32.2308
31.958
31.6532
31.3528
31.0909
30.906
30.8335
30.8936
31.0754
31.3365
31.6145
31.8583
32.0577
32.2586
32.5268
32.88
33.2118
33.2461
32.542
30.7295
28.0391
25.4585
23.7032
23.0686
22.4093
24.5043
26.0227
30.1324
35.5343
39.2038
40.2705
40.1241
40.3111
41.1437
42.011
42.2215
41.4719
39.9211
38.12
36.6938
35.9345
35.7004
35.669
35.6321
35.5035
35.2556
34.9227
34.5847
34.2482
33.8516
33.3801
32.8787
32.3993
31.9627
31.5648
31.1989
30.8686
30.5908
30.3872
30.2774
30.2643
30.3218
30.4379
30.6321
30.8528
30.9105
30.6106
29.9482
29.1427
28.4826
28.1338
28.0823
28.2312
28.5184
28.931
29.4331
29.9173
30.2454
30.3339
30.2013
29.9452
29.6813
29.4946
29.4253
29.4779
29.6379
29.881
30.1797
30.506
30.8366
31.1569
31.4714
31.8038
32.1801
32.5803
32.9026
32.9555
32.4629
31.0978
28.752
25.9582
23.7044
22.3124
21.9735
21.353
23.4755
24.3111
27.2583
32.1894
36.4144
38.3087
38.494
38.4496
38.8872
39.5817
39.9633
39.6243
38.5112
36.9951
35.6341
34.7545
34.2989
34.0458
33.8703
33.7017
33.48
33.1965
32.9268
32.6949
32.43
32.0746
31.6424
31.1896
30.7589
30.3607
29.9904
29.6488
29.3539
29.1331
29.0174
29.0135
29.0947
29.2619
29.5332
29.8018
29.8033
29.3181
28.3874
27.3152
26.4557
25.9843
25.8512
25.9226
26.1318
26.4901
26.9848
27.5089
27.9048
28.0717
28.0286
27.8872
27.7736
27.766
27.8808
28.0934
28.3677
28.6722
28.9865
29.2983
29.6033
29.9077
30.2341
30.6079
31.0225
31.3955
31.5734
31.3597
30.5181
28.82
26.3559
23.8213
22.0479
20.9922
20.8642
20.3127
22.5897
23.0337
24.9069
29.0399
33.454
36.166
36.9287
36.7897
36.6913
36.9073
37.1986
37.2173
36.7547
35.9078
34.9798
34.1868
33.5345
32.9604
32.4777
32.0703
31.6973
31.3473
31.0917
30.9601
30.8678
30.7023
30.4188
30.0513
29.6548
29.2635
28.8899
28.5413
28.233
27.9883
27.8416
27.8049
27.8653
28.0411
28.3184
28.517
28.3554
27.6894
26.6551
25.5915
24.8112
24.4079
24.2631
24.2218
24.2456
24.4018
24.7355
25.1815
25.6021
25.8916
26.0427
26.1257
26.2234
26.382
26.6042
26.8692
27.1551
27.4479
27.742
28.0362
28.3365
28.6602
29.0329
29.4568
29.8715
30.1416
30.1062
29.6039
28.4473
26.505
24.049
21.8523
20.5068
19.6777
19.6883
19.3644
21.8276
22.0953
23.0586
26.1969
30.3975
33.7197
35.1657
35.1364
34.5814
34.2117
34.1924
34.3616
34.4661
34.3572
34.0255
33.5033
32.8183
32.0451
31.3112
30.6525
30.0672
29.5666
29.2289
29.1044
29.1235
29.142
29.0529
28.8421
28.5531
28.2353
27.9202
27.6163
27.3194
27.0321
26.7875
26.6223
26.5726
26.6853
26.8936
26.9375
26.5594
25.7479
24.7476
23.8841
23.3622
23.1562
23.0718
22.9339
22.7354
22.6105
22.6799
22.9448
23.3156
23.7057
24.0821
24.4462
24.7969
25.1216
25.4112
25.6724
25.9241
26.184
26.4609
26.7575
27.0831
27.4559
27.8864
28.3315
28.6767
28.7711
28.4926
27.7258
26.3149
24.2241
21.8891
20.0723
19.0787
18.3849
18.4805
18.4626
21.0568
21.2812
21.5401
23.6576
27.3401
31.0053
33.1745
33.5548
32.8706
32.0656
31.6494
31.6932
32.0101
32.3331
32.4367
32.2025
31.6481
30.9039
30.1261
29.3664
28.6484
28.0069
27.5316
27.3074
27.314
27.4209
27.4876
27.451
27.3276
27.168
27.0069
26.8285
26.5789
26.2231
25.7959
25.3869
25.1207
25.0889
25.1784
25.0682
24.5334
23.6708
22.7862
22.1501
21.8588
21.8126
21.7818
21.5697
21.1754
20.7843
20.5903
20.6577
20.9449
21.3996
21.9877
22.6536
23.3014
23.8363
24.2201
24.485
24.6998
24.9239
25.1876
25.5003
25.8712
26.306
26.7761
27.1835
27.385
27.2636
26.7591
25.7784
24.1789
22.0345
19.9165
18.4871
17.757
17.1308
17.2783
17.4995
20.1396
20.4031
20.1816
21.397
24.395
28.1386
30.9963
32.0672
31.6624
30.7116
29.9602
29.707
29.8896
30.2462
30.481
30.4171
30.0556
29.5056
28.8671
28.1708
27.4383
26.7189
26.1144
25.7405
25.6344
25.7111
25.8314
25.9025
25.9198
25.9323
25.9621
25.9428
25.7505
25.3105
24.6692
23.9832
23.4713
23.2674
23.2326
23.0295
22.4684
21.6905
20.9811
20.5153
20.3082
20.264
20.1905
19.8927
19.3577
18.796
18.4486
18.4088
18.6494
19.143
19.8806
20.7928
21.7189
22.4828
22.9972
23.2969
23.4883
23.6759
23.9233
24.2571
24.6824
25.17
25.6324
25.9276
25.9329
25.6045
24.927
23.7865
22.0565
19.9494
18.127
17.065
16.5095
15.9064
16.0891
16.3202
18.9568
19.3451
18.8643
19.324
21.4565
24.886
28.2337
30.2013
30.5206
29.7963
28.8864
28.3194
28.1814
28.2782
28.3497
28.2548
28.0147
27.702
27.3248
26.8749
26.31
25.6515
25.0056
24.5098
24.2519
24.2068
24.261
24.3088
24.3318
24.3801
24.4617
24.4653
24.2273
23.6806
22.9137
22.1311
21.5768
21.3557
21.2936
21.0857
20.6124
20.0321
19.5513
19.2143
18.9632
18.7519
18.4997
18.0877
17.527
17.0269
16.8001
16.8762
17.1673
17.6405
18.338
19.2507
20.2392
21.1026
21.7089
22.0615
22.2641
22.4434
22.6934
23.0545
23.5074
23.9637
24.2863
24.3516
24.1258
23.6344
22.8316
21.547
19.7387
17.8063
16.4017
15.6928
15.2232
14.6167
14.8273
15.0964
17.689
18.2421
17.6966
17.6382
18.8734
21.5748
24.9309
27.6314
28.8858
28.7211
27.9135
27.1725
26.7396
26.5119
26.2951
26.0057
25.7072
25.4844
25.3126
25.192
24.9699
24.5647
24.048
23.5544
23.2018
23.026
22.959
22.8948
22.7922
22.6838
22.5658
22.33
21.8574
21.1659
20.4145
19.8117
19.5263
19.546
19.6292
19.5111
19.1585
18.7611
18.4715
18.2403
17.9508
17.5807
17.149
16.6631
16.2214
16.0268
16.1837
16.5684
16.9773
17.3518
17.7928
18.3936
19.1124
19.8061
20.3487
20.7121
20.9616
21.1997
21.5056
21.8924
22.2917
22.5753
22.6297
22.4305
22.0375
21.458
20.5435
19.1193
17.3314
15.7355
14.8132
14.3747
13.9011
13.288
13.5164
14.092
16.5768
17.2648
16.7623
16.4579
17.0128
18.8499
21.744
24.7212
26.7648
27.3086
26.8455
26.1272
25.5274
25.0657
24.6227
24.1359
23.6704
23.3408
23.1664
23.2457
23.3564
23.2891
23.0406
22.7019
22.3821
22.1564
22.0082
21.8456
21.5969
21.2548
20.805
20.1843
19.3724
18.4978
17.7848
17.4205
17.4704
17.8025
18.1172
18.1665
17.9573
17.6943
17.5214
17.3818
17.1505
16.7908
16.3365
15.8712
15.5838
15.6899
16.2009
16.8587
17.3672
17.6434
17.8166
18.0436
18.3682
18.7336
19.0703
19.3616
19.6443
19.9687
20.3485
20.7291
21.0001
21.0567
20.8804
20.5464
20.115
19.4842
18.4318
16.8994
15.2532
14.0724
13.5536
13.2407
12.7072
12.1066
12.3416
13.2
15.5116
16.3012
15.8733
15.4986
15.6339
16.6994
18.8868
21.7092
24.2413
25.4899
25.5494
25.0407
24.4015
23.8014
23.2336
22.6431
22.0412
21.5283
21.175
21.2304
21.4951
21.6837
21.7252
21.647
21.5055
21.3644
21.2279
21.0152
20.6354
20.0545
19.2689
18.2791
17.1563
16.1028
15.3737
15.1333
15.3763
15.9066
16.4159
16.6737
16.6771
16.5917
16.5439
16.513
16.4208
16.2237
15.9071
15.5321
15.3128
15.4957
16.0928
16.8235
17.3651
17.6083
17.6572
17.6602
17.6893
17.751
17.8481
18.0099
18.2703
18.6271
19.0152
19.3198
19.4344
19.3336
19.0943
18.8035
18.4133
17.7015
16.4842
14.9152
13.5195
12.7523
12.5045
12.1984
11.5961
11.0366
11.2717
12.2699
14.3945
15.2852
14.9495
14.6059
14.5515
15.0604
16.5109
18.8708
21.5319
23.3415
24.0103
23.8849
23.346
22.6868
22.0542
21.4401
20.7949
20.1511
19.5758
19.4393
19.6336
19.8837
20.1081
20.2955
20.4288
20.4973
20.46
20.2224
19.7001
18.8864
17.8322
16.6061
15.3256
14.1977
13.4605
13.2543
13.5409
14.1137
14.7062
15.1379
15.3925
15.5564
15.6912
15.7923
15.8493
15.8514
15.7382
15.48
15.2273
15.2431
15.6299
16.2091
16.7021
16.9659
17.0319
16.9905
16.9016
16.8028
16.7462
16.7962
16.9834
17.2657
17.5341
17.6737
17.6437
17.5093
17.3708
17.2163
16.8462
15.9987
14.6466
13.1612
12.0968
11.6816
11.5653
11.1935
10.5454
10.054
10.285
11.2533
13.2459
14.268
14.0501
13.7839
13.6936
13.8764
14.7071
16.4612
18.9274
21.0513
22.2916
22.6691
22.3792
21.7453
21.0643
20.4362
19.8055
19.1311
18.4164
18.0657
18.0622
18.1944
18.4302
18.7718
19.1468
19.4404
19.517
19.2478
18.5829
17.595
16.4201
15.1777
13.9755
12.9607
12.31
12.1326
12.3828
12.8754
13.411
13.8882
14.3081
14.6896
15.0055
15.2215
15.3695
15.4965
15.5443
15.3996
15.0989
14.8725
14.9246
15.2356
15.6156
15.8975
16.033
16.0529
16.0013
15.9224
15.8691
15.8886
15.9828
16.091
16.1253
16.0461
15.9106
15.8279
15.8269
15.7424
15.2785
14.256
12.8598
11.5905
10.8923
10.7391
10.6492
10.1937
9.54328
9.14259
9.36921
10.2252
12.1809
13.3714
13.2975
13.1143
13.0584
13.0947
13.4876
14.6423
16.688
18.8358
20.4797
21.3749
21.459
20.9589
20.2521
19.577
18.9517
18.3115
17.5812
17.1124
16.9274
16.8701
16.9715
17.2848
17.7263
18.1069
18.2115
17.8911
17.149
16.1447
15.0797
14.0799
13.1931
12.4691
12.0004
11.8626
12.0242
12.3464
12.6984
13.0513
13.4428
13.8702
14.2496
14.5021
14.6564
14.7984
14.9115
14.8617
14.589
14.2425
14.0583
14.1367
14.384
14.6438
14.8306
14.951
15.0442
15.1351
15.2221
15.2816
15.2713
15.1506
14.9193
14.6534
14.4788
14.4649
14.5052
14.315
13.6226
12.4288
11.0999
10.1351
9.77761
9.78848
9.66629
9.15268
8.55381
8.26507
8.50045
9.33431
11.3363
12.7108
12.7881
12.6623
12.6436
12.6374
12.7687
13.4237
14.9382
16.8413
18.635
19.9499
20.4775
20.2421
19.5858
18.8536
18.1911
17.5851
16.9199
16.4548
16.1923
15.983
15.8842
15.9986
16.2751
16.5222
16.5183
16.139
15.4405
14.6254
13.8951
13.3263
12.882
12.5159
12.2457
12.1228
12.1487
12.2501
12.3546
12.4689
12.6524
12.9182
13.189
13.3721
13.4671
13.5522
13.6511
13.669
13.5115
13.2348
13.018
12.9908
13.1307
13.3344
13.5427
13.777
14.0706
14.397
14.6607
14.7503
14.6039
14.2533
13.8246
13.4893
13.3621
13.3916
13.3334
12.8787
11.8964
10.5923
9.42182
8.7702
8.66347
8.73507
8.54861
8.01571
7.51524
7.3549
7.62722
8.71185
10.7835
12.3173
12.5192
12.4029
12.3811
12.3649
12.3608
12.6479
13.6253
15.099
16.7846
18.3459
19.3136
19.463
18.9824
18.2389
17.5064
16.8851
16.2874
15.8941
15.6572
15.3829
15.0965
14.9208
14.8632
14.803
14.5918
14.1692
13.6215
13.1275
12.8205
12.6959
12.6453
12.5671
12.4399
12.3061
12.2019
12.1139
12.0093
11.8934
11.8162
11.8144
11.8639
11.9056
11.9173
11.9359
11.9929
12.0492
12.0313
11.9297
11.8252
11.803
11.876
12.0152
12.229
12.5699
13.0502
13.5681
13.9309
13.9693
13.6533
13.1274
12.6351
12.3755
12.3662
12.4011
12.1534
11.3941
10.1872
8.89104
7.93961
7.54636
7.56529
7.59553
7.31612
6.78368
6.39893
6.36463
6.69875
8.39353
10.4856
12.1182
12.3913
12.2311
12.154
12.1174
12.0502
12.0981
12.6164
13.5956
14.9857
16.5991
17.9238
18.5116
18.3227
17.6477
16.8424
16.1455
15.5618
15.2395
15.0809
14.8194
14.4028
13.9421
13.5114
13.1026
12.6799
12.2492
11.8863
11.6917
11.7007
11.8423
11.9901
12.0503
12.0077
11.9012
11.7724
11.6279
11.4456
11.2126
10.955
10.7244
10.5577
10.4542
10.3953
10.3759
10.4065
10.4801
10.5592
10.608
10.6264
10.6385
10.6674
10.7483
10.9525
11.3516
11.9224
12.495
12.8197
12.728
12.2642
11.6785
11.2705
11.1864
11.3041
11.2974
10.8476
9.8731
8.61029
7.46957
6.77509
6.56673
6.59871
6.50828
6.10765
5.56681
5.2762
5.33616
5.72635
8.27991
10.2972
11.9556
12.2445
12.0043
11.8375
11.7628
11.6706
11.5907
11.7812
12.316
13.3266
14.8156
16.3356
17.2999
17.4396
16.901
16.0543
15.2582
14.64
14.3592
14.2873
14.0827
13.6011
12.9267
12.1982
11.5237
10.9689
10.5708
10.351
10.3093
10.4008
10.5427
10.6602
10.7279
10.7649
10.795
10.8173
10.8011
10.7031
10.4946
10.1895
9.84825
9.55101
9.34978
9.24758
9.22069
9.2523
9.33509
9.44939
9.55711
9.62308
9.63656
9.62186
9.64529
9.80205
10.1556
10.6525
11.1018
11.2697
11.046
10.5489
10.0682
9.86447
9.97089
10.1475
10.0391
9.42725
8.39328
7.26926
6.4147
5.99879
5.92298
5.90742
5.66493
5.13345
4.56559
4.32418
4.42477
4.82421
8.21135
10.0634
11.6924
11.9675
11.6455
11.3882
11.2726
11.1789
11.0587
11.0656
11.2749
11.9073
13.1275
14.6226
15.783
16.1827
15.8122
14.9932
14.1477
13.5073
13.2603
13.2681
13.1345
12.6372
11.8383
10.9353
10.1295
9.5469
9.20867
9.0548
8.99499
8.95051
8.88758
8.83452
8.86157
9.02303
9.30448
9.62555
9.87852
9.97883
9.89166
9.63941
9.29487
8.95992
8.71692
8.59308
8.5692
8.61448
8.70516
8.81672
8.91375
8.96022
8.94106
8.87851
8.83321
8.8804
9.05671
9.30602
9.48505
9.45013
9.17987
8.82291
8.60912
8.66854
8.90248
9.0229
8.75298
8.03543
7.08437
6.2382
5.73654
5.59478
5.62567
5.55767
5.18484
4.54765
3.95217
3.72266
3.81389
4.15578
8.04745
9.68708
11.2654
11.5341
11.1612
10.8411
10.6988
10.6195
10.5147
10.4542
10.4656
10.7664
11.6155
12.8593
13.9774
14.5004
14.3025
13.6148
12.8447
12.2683
12.0887
12.1723
12.1017
11.6115
10.7579
9.78784
8.9632
8.42649
8.15248
8.00012
7.82152
7.54933
7.23189
7.00732
7.02525
7.35153
7.91913
8.56489
9.10663
9.42326
9.48209
9.32418
9.03549
8.72333
8.47809
8.3426
8.31362
8.36369
8.45773
8.55904
8.63143
8.64699
8.59573
8.49006
8.3596
8.23635
8.13267
8.02664
7.87862
7.67685
7.48197
7.41132
7.55152
7.85329
8.11032
8.06827
7.60528
6.83708
6.05363
5.53049
5.36666
5.45883
5.57839
5.48135
5.03102
4.34275
3.74877
3.52439
3.58431
3.82051
7.7474
9.17639
10.7118
11.0053
10.6263
10.2794
10.1276
10.0673
9.99701
9.9326
9.83905
9.86766
10.3001
11.1309
12.005
12.5188
12.4945
12.054
11.516
11.1247
11.0663
11.2219
11.1913
10.7073
9.83774
8.86554
8.07971
7.61031
7.38235
7.20113
6.90135
6.45244
5.97634
5.68116
5.747
6.22166
6.99179
7.84522
8.56712
9.02719
9.20043
9.13889
8.9314
8.67623
8.45479
8.31465
8.2694
8.30649
8.39401
8.49078
8.55796
8.5685
8.50773
8.36741
8.13907
7.81688
7.40967
6.95699
6.53851
6.26356
6.23635
6.49408
6.95171
7.39611
7.56949
7.31166
6.67471
5.90896
5.31678
5.07721
5.16975
5.42264
5.60135
5.49366
5.01664
4.33715
3.79038
3.59345
3.63327
3.76173
7.34607
8.59574
10.108
10.4614
10.1144
9.76701
9.61427
9.56455
9.51701
9.46048
9.30841
9.12446
9.16352
9.53507
10.0726
10.5052
10.6591
10.552
10.367
10.256
10.357
10.5713
10.5501
10.0609
9.1948
8.25247
7.52104
7.10432
6.89486
6.68405
6.32395
5.82309
5.33899
5.08787
5.22643
5.76612
6.57242
7.43488
8.16149
8.6474
8.87838
8.90001
8.78686
8.6145
8.44267
8.31411
8.25525
8.27213
8.34668
8.44336
8.52133
8.5448
8.48261
8.30251
7.97046
7.4686
6.82713
6.1497
5.60437
5.36577
5.52935
6.03564
6.6614
7.09964
7.10864
6.64632
5.90312
5.19375
4.77928
4.74133
4.98327
5.31164
5.50655
5.38517
4.90784
4.27739
3.81521
3.67583
3.72367
3.78527
6.90709
8.0123
9.5171
9.9525
9.65818
9.31991
9.16297
9.10706
9.05514
8.9878
8.79206
8.45757
8.19226
8.17737
8.40763
8.75462
9.0813
9.32434
9.52642
9.72166
9.98299
10.2336
10.1969
9.69771
8.85362
7.96343
7.28892
6.90312
6.68837
6.45695
6.09946
5.65226
5.26665
5.1158
5.29926
5.79147
6.46641
7.15616
7.73198
8.13815
8.37084
8.45448
8.43777
8.36664
8.2715
8.18268
8.13349
8.14541
8.21478
8.31366
8.39829
8.41998
8.3304
8.08483
7.64992
7.0267
6.28093
5.55834
5.05514
4.93855
5.25041
5.84918
6.44584
6.73079
6.53602
5.92798
5.16946
4.56501
4.30073
4.38123
4.67905
5.01094
5.17871
5.02528
4.54948
3.98061
3.61562
3.54931
3.62705
3.67753
6.47762
7.46393
8.9677
9.49076
9.2532
8.92133
8.75092
8.67269
8.59134
8.48964
8.25503
7.83458
7.39071
7.1337
7.16077
7.45243
7.91794
8.4493
8.98122
9.44101
9.83443
10.102
10.0424
9.54508
8.75033
7.93852
7.32965
6.96442
6.72996
6.47844
6.14578
5.78399
5.51415
5.44574
5.61599
5.97366
6.42022
6.84517
7.19404
7.46355
7.65578
7.76874
7.82789
7.85614
7.85561
7.83863
7.83731
7.87969
7.96753
8.07273
8.14421
8.12249
7.95428
7.60599
7.075
6.40392
5.69243
5.09181
4.76406
4.80835
5.18969
5.718
6.11525
6.14726
5.75229
5.07569
4.38571
3.9211
3.7822
3.92465
4.22332
4.51862
4.63179
4.42878
3.94545
3.43058
3.15056
3.14907
3.25838
3.33638
6.05522
6.93662
8.43577
9.04305
8.86026
8.52773
8.33333
8.22136
8.09605
7.94649
7.68086
7.23556
6.73776
6.39069
6.32816
6.58781
7.12146
7.8181
8.55872
9.19883
9.6854
9.96573
9.90121
9.43791
8.72955
8.02628
7.49831
7.15437
6.89175
6.60526
6.2725
5.95505
5.74344
5.69346
5.79699
5.99194
6.20953
6.38795
6.52979
6.66491
6.79226
6.89154
6.9799
7.07355
7.15787
7.22753
7.3042
7.4099
7.53937
7.65417
7.69195
7.58865
7.30316
6.83644
6.23633
5.5923
5.02155
4.64507
4.54836
4.73458
5.0961
5.4339
5.53772
5.2905
4.73811
4.06678
3.50178
3.19135
3.16012
3.34064
3.62552
3.87708
3.93072
3.67648
3.1864
2.71937
2.50461
2.54491
2.66987
2.78293
5.7038
6.49989
7.99395
8.66798
8.52746
8.19033
7.97329
7.83266
7.67001
7.4806
7.20001
6.77279
6.30241
5.96532
5.88652
6.12062
6.65531
7.40711
8.2494
8.99901
9.55402
9.85499
9.80481
9.3927
8.78166
8.19259
7.74902
7.42925
7.13675
6.7999
6.43017
6.10005
5.88325
5.80367
5.82766
5.88992
5.94275
5.95186
5.95236
5.98901
6.05063
6.10426
6.17475
6.29364
6.4448
6.60609
6.78125
6.9761
7.1675
7.29764
7.29047
7.08371
6.66113
6.07083
5.4167
4.82986
4.43062
4.29273
4.41451
4.70526
5.00099
5.11754
4.93094
4.44214
3.78517
3.15917
2.72937
2.55889
2.61739
2.83169
3.11367
3.33812
3.34626
3.04856
2.54919
2.11299
1.93562
1.9903
2.11105
2.24361
5.10739
5.79443
7.25957
8.03292
7.96845
7.62623
7.36651
7.17717
6.96093
6.71795
6.42491
6.05416
5.68611
5.43977
5.37767
5.52683
5.91131
6.52559
7.30333
8.07065
8.68282
9.05382
9.10481
8.84368
8.41704
7.99722
7.65491
7.34291
6.97834
6.52604
6.03112
5.58225
5.25358
5.06414
4.98047
4.94949
4.93263
4.9132
4.91442
4.9295
4.91531
4.86645
4.83654
4.88052
5.01271
5.21433
5.45592
5.70457
5.91411
6.01697
5.93951
5.63929
5.14
4.53864
3.97605
3.58741
3.45303
3.56755
3.83464
4.09221
4.16767
3.94807
3.43575
2.75224
2.0836
1.59166
1.35157
1.34829
1.52461
1.81824
2.15011
2.38911
2.38569
2.09442
1.65997
1.32542
1.21834
1.27985
1.37366
1.49767
)
;
    }
    outlet
    {
        type            calculated;
        value           nonuniform List<scalar> 
3200
(
52.5911
53.8748
51.249
49.1317
47.3207
46.1319
46.6779
50.8768
55.3997
54.6112
50.5039
44.0565
37.15
37.4968
41.0718
38.9726
34.9491
34.1743
37.4143
40.4356
43.3173
42.7833
37.181
34.4409
34.6324
36.8767
38.5372
39.3943
39.6477
39.611
39.3989
39.1049
38.6617
37.8212
36.9132
37.5576
39.5801
41.0688
41.9645
42.4157
42.5624
42.2205
41.4209
40.1783
39.1469
38.7293
38.9731
39.3957
39.7898
40.0456
40.1089
39.8903
39.2079
37.8717
34.8474
31.3422
30.4849
30.1614
29.8242
29.6391
29.6063
29.6211
29.6162
29.583
29.57
29.6178
29.7309
29.854
29.9367
29.9229
29.7131
29.3638
28.992
28.7
28.5981
28.7614
29.2546
30.0994
31.3364
31.4896
62.1911
74.8545
74.4638
72.1996
69.869
68.0446
68.1041
70.4899
71.2687
70.0134
66.4732
59.2253
48.329
49.7377
54.3137
52.2336
47.6865
45.0229
49.5937
54.4384
57.3756
57.1383
53.9196
50.695
48.8483
48.522
48.3655
47.8165
47.1612
46.5624
46.0523
45.6385
45.2175
44.6394
43.9926
44.2534
45.8007
47.164
47.9283
48.3219
48.4824
48.3676
47.9666
47.3045
46.5423
46.1065
45.9124
45.7284
45.6023
45.641
45.8201
46.0753
46.321
46.3719
46.0356
45.8699
46.0376
46.1275
46.0374
46.0175
46.0825
46.1426
46.1472
46.1085
46.0864
46.1267
46.2305
46.3392
46.409
46.38
46.1547
45.7965
45.4464
45.1967
45.1105
45.1347
45.2379
45.4999
45.3439
40.0937
59.849
78.5017
81.556
80.4055
78.5733
76.8372
76.2096
76.0431
75.129
73.4426
70.0226
61.9416
51.0679
54.9275
59.4745
57.6456
53.2876
49.4214
52.9524
58.243
60.9083
60.6039
58.6202
55.9301
53.46
51.8927
50.7503
49.6531
48.6722
47.8672
47.2391
46.7553
46.3244
45.8528
45.4217
45.6126
46.74
47.907
48.6336
49.0343
49.2085
49.1572
48.876
48.41
47.8706
47.4985
47.2154
46.9081
46.6908
46.6831
46.8821
47.2455
47.743
48.3424
49.2357
50.6701
51.6614
52.0925
52.2675
52.4032
52.5264
52.5984
52.6042
52.5706
52.5523
52.5904
52.6874
52.7982
52.8787
52.8723
52.7126
52.4303
52.0959
51.714
51.2493
50.656
50.1702
50.1032
48.8427
41.2435
55.4586
75.7162
81.6157
81.816
80.879
79.6387
78.5438
77.2586
75.6769
73.8451
70.4042
61.8828
52.5683
58.4471
62.2991
60.9761
57.1206
52.8702
54.822
59.4132
61.4133
61.0585
59.6006
57.4037
54.9634
52.9791
51.3989
50.0199
48.8525
47.9153
47.1998
46.6713
46.2576
45.8894
45.6269
45.7975
46.6318
47.5814
48.238
48.6179
48.7915
48.7813
48.5947
48.2801
47.9187
47.6354
47.3822
47.0907
46.8743
46.8345
46.9897
47.338
47.9104
48.7587
50.1095
51.9901
53.3783
54.0757
54.4508
54.7134
54.8985
54.9973
55.0203
55.0089
55.0213
55.1012
55.253
55.4326
55.5746
55.5943
55.4068
54.9815
54.3266
53.4535
52.4457
51.5641
51.2925
51.3667
48.8135
40.3063
51.3412
70.9648
78.9666
80.2302
79.9051
79.1411
78.096
76.7115
75.1567
73.4835
70.0483
61.5654
54.522
60.8659
63.7884
62.8236
59.6286
55.6911
56.5314
59.5978
60.8099
60.5038
59.3067
57.4241
55.1901
53.153
51.421
49.9174
48.6547
47.6375
46.8539
46.2762
45.8499
45.5159
45.3074
45.4151
46.0028
46.7287
47.2877
47.6462
47.8485
47.9213
47.8665
47.7121
47.5095
47.3056
47.0869
46.8072
46.5721
46.4757
46.5709
46.9029
47.5336
48.5101
49.9883
51.8716
53.3439
54.1937
54.6996
55.0613
55.3209
55.4809
55.5631
55.6177
55.707
55.8724
56.1054
56.336
56.4533
56.3296
55.8659
55.0441
53.9408
52.7203
51.6848
51.2664
51.6188
51.3711
47.2369
38.8893
47.8345
65.7266
75.2666
77.4437
77.3733
76.8539
76.0415
74.993
73.8669
72.5759
69.2762
62.1629
56.9657
62.3103
64.224
63.3557
60.8525
57.6567
57.7704
59.3624
59.8496
59.5187
58.4741
56.7941
54.7687
52.8033
51.0367
49.472
48.1517
47.0872
46.2663
45.6607
45.2173
44.8744
44.645
44.6608
45.0357
45.5696
46.0483
46.4178
46.6954
46.8891
46.9773
46.9569
46.8542
46.6919
46.4616
46.1586
45.881
45.7352
45.8081
46.1691
46.8646
47.8933
49.3442
51.0933
52.5224
53.437
54.0198
54.4564
54.7978
55.0492
55.2309
55.3857
55.5597