/*--------------------------------*- C++ -*----------------------------------*\
| =========                 |                                                 |
| \\      /  F ield         | OpenFOAM: The Open Source CFD Toolbox           |
|  \\    /   O peration     | Version:  v2012                                 |
|   \\  /    A nd           | Website:  www.openfoam.com                      |
|    \\/     M anipulation  |                                                 |
\*---------------------------------------------------------------------------*/
FoamFile
{
    version     2.0;
    format      ascii;
    class       volScalarField;
    location    "300/air";
    object      specHum;
}
// * * * * * * * * * * * * * * * * * * * * * * * * * * * * * * * * * * * * * //

dimensions      [1 -3 0 0 0 0 0];


internalField   nonuniform List<scalar> 
287104
(
0.016
0.016
0.016
0.016
0.016
0.016
0.016
0.016
0.016
0.016
0.016
0.016
0.016
0.016
0.016
0.016
0.016
0.016
0.016
0.016
0.016
0.016
0.016
0.016
0.016
0.016
0.016
0.016
0.016
0.016
0.016
0.016
0.016
0.016
0.016
0.016
0.016
0.016
0.016
0.016
0.016
0.016
0.016
0.016
0.016
0.016
0.016
0.016
0.016
0.016
0.016
0.016
0.016
0.016
0.016
0.016
0.016
0.016
0.016
0.016
0.016
0.016
0.016
0.016
0.016
0.016
0.016
0.016
0.016
0.016
0.016
0.016
0.016
0.016
0.016
0.016
0.016
0.016
0.016
0.016
0.016
0.016
0.016
0.016
0.016
0.016
0.016
0.016
0.016
0.016
0.016
0.016
0.016
0.016
0.016
0.016
0.016
0.016
0.016
0.016
0.016
0.016
0.016
0.016
0.016
0.016
0.016
0.016
0.016
0.016
0.016
0.016
0.016
0.016
0.016
0.016
0.016
0.016
0.016
0.016
0.016
0.016
0.016
0.016
0.016
0.016
0.016
0.016
0.016
0.016
0.016
0.016
0.016
0.016
0.016
0.016
0.016
0.016
0.016
0.016
0.016
0.016
0.016
0.016
0.016
0.016
0.016
0.016
0.016
0.016
0.016
0.016
0.016
0.016
0.016
0.016
0.016
0.016
0.016
0.016
0.016
0.016
0.016
0.016
0.016
0.016
0.016
0.016
0.016
0.016
0.016
0.016
0.016
0.016
0.016
0.016
0.016
0.016
0.016
0.016
0.016
0.016
0.016
0.016
0.016
0.016
0.016
0.016
0.016
0.016
0.016
0.016
0.016
0.016
0.016
0.016
0.016
0.016
0.016
0.016
0.016
0.016
0.016
0.016
0.016
0.016
0.016
0.016
0.016
0.016
0.016
0.016
0.016
0.016
0.016
0.016
0.016
0.016
0.016
0.016
0.016
0.016
0.016
0.016
0.016
0.016
0.016
0.016
0.016
0.016
0.016
0.016
0.016
0.016
0.016
0.016
0.016
0.016
0.016
0.016
0.016
0.016
0.016
0.016
0.016
0.016
0.016
0.016
0.016
0.016
0.016
0.016
0.016
0.016
0.016
0.016
0.016
0.016
0.016
0.016
0.016
0.016
0.016
0.016
0.016
0.016
0.016
0.016
0.016
0.016
0.016
0.016
0.016
0.016
0.016
0.016
0.016
0.016
0.016
0.016
0.016
0.016
0.016
0.016
0.016
0.016
0.016
0.016
0.016
0.016
0.016
0.016
0.016
0.016
0.016
0.016
0.016
0.016
0.016
0.016
0.016
0.016
0.016
0.016
0.016
0.016
0.016
0.016
0.016
0.016
0.016
0.016
0.016
0.016
0.016
0.016
0.016
0.016
0.016
0.016
0.016
0.016
0.016
0.016
0.016
0.016
0.016
0.016
0.016
0.016
0.016
0.016
0.016
0.016
0.016
0.016
0.016
0.016
0.016
0.016
0.016
0.016
0.016
0.016
0.016
0.016
0.016
0.016
0.016
0.016
0.016
0.016
0.016
0.016
0.016
0.016
0.016
0.016
0.016
0.016
0.016
0.016
0.016
0.016
0.016
0.016
0.016
0.016
0.016
0.016
0.016
0.016
0.016
0.016
0.016
0.016
0.016
0.016
0.016
0.016
0.016
0.016
0.016
0.016
0.016
0.016
0.016
0.016
0.016
0.016
0.016
0.016
0.016
0.016
0.016
0.016
0.016
0.016
0.016
0.016
0.016
0.016
0.016
0.016
0.016
0.016
0.016
0.016
0.016
0.016
0.016
0.016
0.016
0.016
0.016
0.016
0.016
0.016
0.016
0.016
0.016
0.016
0.016
0.016
0.016
0.016
0.016
0.016
0.016
0.016
0.016
0.016
0.016
0.016
0.016
0.016
0.016
0.0160001
0.0160001
0.0160001
0.0160001
0.0160001
0.0160001
0.0160001
0.0160001
0.0160001
0.0160001
0.0160001
0.0160001
0.0160001
0.016
0.016
0.016
0.016
0.016
0.016
0.016
0.016
0.016
0.016
0.016
0.016
0.016
0.016
0.016
0.016
0.016
0.016
0.016
0.016
0.016
0.016
0.016
0.016
0.016
0.016
0.016
0.016
0.016
0.016
0.016
0.016
0.016
0.016
0.016
0.016
0.016
0.016
0.016
0.016
0.016
0.016
0.016
0.016
0.016
0.016
0.016
0.016
0.016
0.0160001
0.0160001
0.0160001
0.0160001
0.0160001
0.0160001
0.0160001
0.0160001
0.0160001
0.0160001
0.0160001
0.0160001
0.0160001
0.0160001
0.0160001
0.0160001
0.0160001
0.0160001
0.0160001
0.0160001
0.0160001
0.0160001
0.0160001
0.0160001
0.0160001
0.0160001
0.0160001
0.0160001
0.0160002
0.0160002
0.0160002
0.0160002
0.0160002
0.0160002
0.0160002
0.0160002
0.0160002
0.0160002
0.0160002
0.0160002
0.0160002
0.016
0.016
0.016
0.016
0.016
0.016
0.016
0.016
0.016
0.016
0.016
0.016
0.016
0.016
0.016
0.016
0.016
0.016
0.016
0.016
0.016
0.016
0.016
0.016
0.016
0.016
0.016
0.016
0.016
0.016
0.016
0.016
0.0160001
0.0160001
0.0160001
0.0160001
0.0160001
0.0160001
0.0160001
0.0160001
0.0160001
0.0160002
0.0160002
0.0160002
0.0160002
0.0160002
0.0160002
0.0160003
0.0160003
0.0160003
0.0160003
0.0160003
0.0160003
0.0160003
0.0160003
0.0160003
0.0160004
0.0160004
0.0160004
0.0160004
0.0160004
0.0160004
0.0160004
0.0160004
0.0160004
0.0160004
0.0160004
0.0160004
0.0160004
0.0160005
0.0160005
0.0160005
0.0160005
0.0160005
0.0160005
0.0160005
0.0160005
0.0160005
0.0160006
0.0160006
0.0160006
0.0160006
0.0160006
0.0160006
0.0160007
0.0160007
0.0160007
0.0160007
0.0160008
0.0160008
0.016
0.016
0.016
0.016
0.016
0.016
0.016
0.016
0.016
0.016
0.016
0.016
0.016
0.016
0.016
0.016
0.016
0.016
0.016
0.016
0.0160001
0.0160001
0.0160001
0.0160001
0.0160002
0.0160002
0.0160002
0.0160003
0.0160003
0.0160003
0.0160004
0.0160005
0.0160005
0.0160006
0.0160006
0.0160007
0.0160008
0.0160008
0.0160009
0.0160009
0.016001
0.016001
0.0160011
0.0160012
0.0160012
0.0160012
0.0160013
0.0160013
0.0160013
0.0160014
0.0160014
0.0160014
0.0160014
0.0160015
0.0160015
0.0160015
0.0160015
0.0160016
0.0160016
0.0160016
0.0160016
0.0160017
0.0160017
0.0160017
0.0160017
0.0160018
0.0160018
0.0160018
0.0160018
0.0160019
0.0160019
0.0160019
0.0160019
0.0160019
0.016002
0.016002
0.016002
0.016002
0.016002
0.016002
0.0160021
0.0160021
0.0160021
0.0160021
0.0160021
0.0160021
0.0160021
0.0160022
0.0160022
0.0160022
0.016
0.016
0.016
0.016
0.016
0.016
0.016
0.016
0.016
0.016
0.016
0.016
0.0160001
0.0160001
0.0160002
0.0160003
0.0160005
0.0160006
0.0160008
0.016001
0.0160012
0.0160015
0.0160017
0.016002
0.0160022
0.0160025
0.0160028
0.0160031
0.0160033
0.0160036
0.0160039
0.0160041
0.0160043
0.0160046
0.0160048
0.016005
0.0160051
0.0160052
0.0160054
0.0160055
0.0160057
0.0160058
0.016006
0.0160062
0.0160063
0.0160065
0.0160066
0.0160068
0.0160069
0.0160071
0.0160072
0.0160073
0.0160074
0.0160075
0.0160076
0.0160077
0.0160078
0.0160079
0.0160079
0.016008
0.016008
0.016008
0.0160081
0.0160081
0.0160081
0.0160081
0.0160081
0.0160081
0.0160081
0.0160081
0.016008
0.016008
0.016008
0.016008
0.0160079
0.0160079
0.0160078
0.0160078
0.0160077
0.0160077
0.0160076
0.0160076
0.0160075
0.0160075
0.0160075
0.0160074
0.0160074
0.0160073
0.0160073
0.0160073
0.016
0.016
0.016
0.016
0.016
0.016
0.016
0.016
0.016
0.016
0.0160005
0.0160014
0.0160028
0.0160045
0.0160065
0.0160087
0.0160111
0.0160136
0.0160161
0.0160186
0.016021
0.0160234
0.0160256
0.0160278
0.0160298
0.0160316
0.0160333
0.0160348
0.0160361
0.0160373
0.0160382
0.0160389
0.0160393
0.0160399
0.0160406
0.0160414
0.0160422
0.0160432
0.0160441
0.016045
0.0160459
0.0160467
0.0160474
0.016048
0.0160484
0.0160488
0.016049
0.0160492
0.0160492
0.0160492
0.0160491
0.0160488
0.0160486
0.0160482
0.0160477
0.0160472
0.0160467
0.016046
0.0160454
0.0160446
0.0160439
0.0160431
0.0160423
0.0160415
0.0160407
0.0160398
0.016039
0.0160381
0.0160373
0.0160364
0.0160356
0.0160347
0.0160339
0.0160331
0.0160323
0.0160315
0.0160307
0.01603
0.0160292
0.0160285
0.0160275
0.0160265
0.0160255
0.0160246
0.0160237
0.0160228
0.0160221
0.0160214
0.0160207
0.0160201
0.016
0.016
0.016
0.016
0.016
0.016
0.016
0.016
0.016
0.0160001
0.0160294
0.0160581
0.0160867
0.0161152
0.0161438
0.0161723
0.0162005
0.0162283
0.0162555
0.0162817
0.0163069
0.0163307
0.016353
0.0163738
0.0163928
0.0164102
0.0164259
0.0164402
0.0164531
0.0164649
0.0164758
0.0164859
0.0164953
0.0165036
0.0165109
0.0165173
0.0165229
0.0165276
0.0165314
0.0165345
0.0165367
0.0165382
0.016539
0.016539
0.0165383
0.0165369
0.0165347
0.0165319
0.0165284
0.0165243
0.0165197
0.0165145
0.0165089
0.0165028
0.0164964
0.0164896
0.0164826
0.0164753
0.0164679
0.0164602
0.0164524
0.0164446
0.0164366
0.0164286
0.0164206
0.0164126
0.0164047
0.0163968
0.0163889
0.0163812
0.0163736
0.0163662
0.0163588
0.0163516
0.0163445
0.0163376
0.0163308
0.0163236
0.0163155
0.016304
0.0162519
0.016212
0.0161807
0.0161555
0.0161351
0.0161184
0.0161046
0.0160932
0.0160838
0.0160761
0.016
0.016
0.016
0.016
0.016
0.016
0.016
0.016
0.016
0.0160001
0.0160292
0.0160577
0.0160863
0.016115
0.0161438
0.0161727
0.0162014
0.0162298
0.0162577
0.0162848
0.0163108
0.0163356
0.0163589
0.0163805
0.0164004
0.0164186
0.016435
0.0164498
0.0164632
0.0164753
0.0164863
0.0164965
0.0165061
0.0165151
0.0165239
0.0165326
0.0165411
0.0165496
0.0165581
0.0165667
0.0165754
0.0165843
0.0165933
0.0166021
0.0166108
0.0166195
0.016628
0.0166363
0.0166444
0.0166522
0.0166597
0.0166668
0.0166734
0.0166796
0.0166852
0.0166903
0.0166948
0.0166987
0.0167019
0.0167043
0.016706
0.0167069
0.016707
0.0167063
0.0167047
0.0167022
0.0166988
0.0166945
0.0166893
0.0166832
0.0166763
0.0166686
0.0166601
0.0166509
0.016641
0.0166306
0.0166196
0.016608
0.0165959
0.0165823
0.0165104
0.016448
0.0163938
0.0163468
0.016306
0.0162707
0.0162402
0.0162139
0.0161913
0.016172
0.016
0.016
0.016
0.016
0.016
0.016
0.016
0.016
0.016
0.0160001
0.0160289
0.0160573
0.0160857
0.0161141
0.0161427
0.0161713
0.0161998
0.016228
0.0162556
0.0162825
0.0163083
0.0163328
0.0163557
0.016377
0.0163964
0.0164141
0.0164299
0.016444
0.0164566
0.0164678
0.016478
0.0164872
0.0164958
0.0165038
0.0165116
0.0165192
0.0165267
0.0165341
0.0165414
0.0165488
0.0165562
0.0165637
0.0165714
0.0165791
0.0165867
0.0165943
0.016602
0.0166097
0.0166175
0.0166252
0.0166329
0.0166407
0.0166485
0.0166563
0.0166642
0.0166722
0.0166803
0.0166885
0.0166968
0.0167053
0.0167139
0.0167226
0.0167315
0.0167405
0.0167496
0.0167589
0.0167683
0.0167778
0.0167872
0.0167966
0.0168058
0.0168148
0.0168234
0.0168315
0.016839
0.0168456
0.0168511
0.0168554
0.0168582
0.0168588
0.0167899
0.0167268
0.0166679
0.0166122
0.0165595
0.0165098
0.0164634
0.0164203
0.016381
0.0163448
0.016
0.016
0.016
0.016
0.016
0.016
0.016
0.016
0.016
0.0160001
0.0160287
0.0160569
0.016085
0.0161132
0.0161415
0.0161699
0.0161981
0.0162261
0.0162535
0.0162801
0.0163056
0.0163299
0.0163526
0.0163736
0.0163928
0.0164102
0.0164258
0.0164397
0.016452
0.016463
0.0164729
0.0164819
0.0164901
0.0164979
0.0165054
0.0165127
0.0165199
0.016527
0.0165341
0.0165411
0.0165482
0.0165554
0.0165627
0.0165699
0.016577
0.0165842
0.0165912
0.0165983
0.0166052
0.0166121
0.0166189
0.0166255
0.0166321
0.0166384
0.0166444
0.0166502
0.0166558
0.0166612
0.0166665
0.0166717
0.0166768
0.016682
0.0166871
0.0166922
0.0166973
0.0167025
0.0167078
0.0167133
0.016719
0.0167249
0.016731
0.0167375
0.0167443
0.0167515
0.016759
0.0167666
0.0167742
0.0167817
0.0167894
0.0167943
0.0167405
0.016699
0.0166645
0.0166346
0.0166084
0.0165852
0.016564
0.0165442
0.0165252
0.0165061
0.016
0.016
0.016
0.016
0.016
0.016
0.016
0.016
0.016
0.0160001
0.0160285
0.0160564
0.0160843
0.0161123
0.0161404
0.0161685
0.0161965
0.0162242
0.0162513
0.0162777
0.016303
0.016327
0.0163495
0.0163703
0.0163893
0.0164065
0.0164218
0.0164356
0.0164477
0.0164586
0.0164684
0.0164772
0.0164854
0.0164931
0.0165005
0.0165077
0.0165149
0.016522
0.016529
0.016536
0.0165431
0.0165503
0.0165576
0.0165649
0.016572
0.0165792
0.0165863
0.0165934
0.0166004
0.0166073
0.0166141
0.0166208
0.0166273
0.0166337
0.01664
0.0166461
0.0166521
0.016658
0.0166637
0.0166691
0.0166744
0.0166794
0.0166842
0.0166889
0.0166935
0.0166979
0.0167021
0.0167061
0.0167099
0.0167135
0.0167169
0.01672
0.0167228
0.0167254
0.0167277
0.0167296
0.0167313
0.0167324
0.0167324
0.0167266
0.0166677
0.0166216
0.0165841
0.0165527
0.0165258
0.0165026
0.0164825
0.0164651
0.0164508
0.0164401
0.016
0.016
0.016
0.016
0.016
0.016
0.016
0.016
0.016
0.0160001
0.0160283
0.016056
0.0160836
0.0161114
0.0161392
0.0161671
0.0161949
0.0162223
0.0162492
0.0162753
0.0163003
0.0163241
0.0163464
0.016367
0.0163858
0.0164027
0.016418
0.0164315
0.0164436
0.0164544
0.0164641
0.0164729
0.016481
0.0164887
0.016496
0.0165033
0.0165105
0.0165177
0.0165247
0.0165318
0.0165389
0.0165463
0.0165538
0.0165612
0.0165685
0.0165759
0.0165832
0.0165906
0.0165979
0.0166051
0.0166122
0.0166193
0.0166262
0.0166329
0.0166396
0.0166462
0.0166526
0.016659
0.0166652
0.0166714
0.0166776
0.0166836
0.0166896
0.0166955
0.0167013
0.0167071
0.0167128
0.0167185
0.016724
0.0167295
0.0167349
0.0167402
0.0167453
0.01675
0.0167543
0.0167582
0.0167618
0.0167649
0.0167667
0.0167626
0.0167034
0.0166569
0.0166191
0.0165873
0.01656
0.0165361
0.0165151
0.0164967
0.0164812
0.0164682
0.016
0.016
0.016
0.016
0.016
0.016
0.016
0.016
0.016
0.0160001
0.016028
0.0160555
0.016083
0.0161105
0.0161381
0.0161657
0.0161932
0.0162204
0.0162471
0.0162729
0.0162977
0.0163212
0.0163433
0.0163636
0.0163822
0.0163989
0.016414
0.0164274
0.0164393
0.0164499
0.0164595
0.0164682
0.0164762
0.0164837
0.0164909
0.016498
0.0165051
0.016512
0.0165189
0.0165258
0.0165328
0.0165401
0.0165476
0.0165551
0.0165626
0.0165702
0.0165778
0.0165856
0.0165933
0.016601
0.0166086
0.0166161
0.0166236
0.0166309
0.0166383
0.0166455
0.0166528
0.01666
0.0166672
0.0166744
0.0166816
0.0166888
0.0166961
0.0167034
0.0167107
0.0167181
0.0167255
0.016733
0.0167404
0.016748
0.0167555
0.016763
0.0167706
0.0167782
0.0167857
0.0167934
0.016801
0.0168088
0.0168165
0.0168234
0.0167719
0.016729
0.0166925
0.0166609
0.016633
0.0166082
0.016586
0.0165658
0.0165475
0.0165307
0.016
0.016
0.016
0.016
0.016
0.016
0.016
0.016
0.016
0.0160001
0.0160278
0.0160551
0.0160823
0.0161096
0.016137
0.0161644
0.0161917
0.0162186
0.016245
0.0162705
0.016295
0.0163182
0.0163398
0.0163597
0.0163778
0.016394
0.0164084
0.0164211
0.0164323
0.0164422
0.0164509
0.0164587
0.0164657
0.0164721
0.016478
0.0164838
0.0164895
0.0164951
0.0165006
0.0165062
0.0165121
0.0165184
0.0165253
0.0165323
0.0165395
0.016547
0.0165547
0.0165626
0.0165706
0.0165785
0.0165864
0.0165942
0.0166018
0.0166093
0.0166167
0.0166241
0.0166314
0.0166387
0.0166459
0.0166532
0.0166605
0.0166679
0.0166753
0.0166828
0.0166904
0.0166981
0.0167059
0.0167137
0.0167216
0.0167295
0.0167375
0.0167454
0.0167534
0.0167613
0.0167691
0.0167768
0.0167844
0.0167918
0.016799
0.0168051
0.0167498
0.0167019
0.0166593
0.0166206
0.0165851
0.0165521
0.0165213
0.0164925
0.0164655
0.0164398
0.016
0.016
0.016
0.016
0.016
0.016
0.016
0.016
0.016
0.0160001
0.0160276
0.0160547
0.0160817
0.0161087
0.0161359
0.016163
0.0161899
0.0162163
0.0162421
0.0162668
0.0162902
0.0163119
0.0163317
0.0163495
0.016365
0.0163784
0.0163897
0.0163992
0.016407
0.0164133
0.0164185
0.0164226
0.0164259
0.0164286
0.0164308
0.0164328
0.0164349
0.0164371
0.0164395
0.0164424
0.0164462
0.016451
0.0164568
0.0164634
0.0164707
0.0164786
0.0164871
0.0164959
0.0165048
0.0165137
0.0165223
0.0165306
0.0165385
0.0165461
0.0165533
0.0165602
0.0165667
0.0165729
0.0165789
0.0165846
0.01659
0.0165953
0.0166003
0.0166052
0.0166099
0.0166143
0.0166185
0.0166225
0.0166261
0.0166295
0.0166324
0.016635
0.016637
0.0166386
0.0166396
0.0166399
0.0166396
0.0166385
0.0166364
0.0166325
0.0165721
0.0165194
0.016473
0.0164318
0.016395
0.0163621
0.0163325
0.016306
0.0162825
0.0162615
0.016
0.016
0.016
0.016
0.016
0.016
0.016
0.016
0.016
0.0160001
0.0160274
0.0160541
0.0160807
0.0161071
0.0161329
0.0161579
0.0161818
0.0162041
0.0162244
0.0162425
0.0162581
0.0162712
0.0162818
0.0162901
0.0162962
0.0163004
0.016303
0.0163043
0.0163046
0.016304
0.0163028
0.0163012
0.0162992
0.0162969
0.0162947
0.0162926
0.0162911
0.0162901
0.0162898
0.0162907
0.016293
0.016297
0.0163027
0.0163098
0.0163183
0.0163279
0.0163386
0.01635
0.0163618
0.0163736
0.0163851
0.0163959
0.016406
0.0164152
0.0164233
0.0164302
0.016436
0.0164406
0.0164442
0.0164468
0.0164486
0.0164497
0.0164501
0.01645
0.0164494
0.0164484
0.0164469
0.016445
0.0164427
0.01644
0.0164368
0.0164332
0.0164292
0.0164248
0.0164199
0.0164145
0.0164086
0.016402
0.0163944
0.0163826
0.0163289
0.0162866
0.0162524
0.0162241
0.0162003
0.0161801
0.0161629
0.0161481
0.0161356
0.0161249
0.016
0.016
0.016
0.016
0.016
0.016
0.016
0.016
0.016
0.016
0.0160001
0.0160004
0.0160006
0.0160009
0.0160013
0.0160016
0.0160021
0.0160025
0.016003
0.0160034
0.0160039
0.0160044
0.0160048
0.0160052
0.0160057
0.016006
0.0160064
0.0160067
0.016007
0.0160073
0.0160075
0.0160077
0.0160078
0.0160079
0.016008
0.0160081
0.0160082
0.0160082
0.0160083
0.0160084
0.0160085
0.0160087
0.0160089
0.0160092
0.0160095
0.0160099
0.0160103
0.0160108
0.0160114
0.0160119
0.0160126
0.0160132
0.0160139
0.0160146
0.0160153
0.016016
0.0160167
0.0160174
0.0160182
0.0160189
0.0160196
0.0160203
0.0160211
0.0160218
0.0160225
0.0160232
0.0160239
0.0160246
0.0160253
0.0160259
0.0160266
0.0160272
0.0160278
0.0160283
0.0160288
0.0160292
0.0160296
0.0160299
0.0160302
0.0160303
0.0160302
0.0160299
0.0160295
0.0160291
0.0160287
0.0160283
0.0160279
0.0160275
0.0160271
0.0160268
0.016
0.016
0.016
0.016
0.016
0.016
0.016
0.016
0.016
0.016
0.016
0.016
0.016
0.016
0.016
0.016
0.016
0.016
0.016
0.016
0.016
0.0160001
0.0160001
0.0160001
0.0160001
0.0160001
0.0160001
0.0160001
0.0160001
0.0160001
0.0160002
0.0160002
0.0160002
0.0160002
0.0160002
0.0160002
0.0160002
0.0160002
0.0160002
0.0160002
0.0160002
0.0160002
0.0160003
0.0160003
0.0160003
0.0160003
0.0160003
0.0160003
0.0160004
0.0160004
0.0160004
0.0160005
0.0160005
0.0160005
0.0160006
0.0160006
0.0160006
0.0160007
0.0160007
0.0160008
0.0160009
0.0160009
0.016001
0.0160011
0.0160012
0.0160013
0.0160014
0.0160015
0.0160017
0.0160018
0.016002
0.0160021
0.0160023
0.0160025
0.0160027
0.0160029
0.0160031
0.0160033
0.0160035
0.0160037
0.016004
0.0160042
0.0160045
0.0160047
0.016005
0.0160052
0.0160055
0.0160057
0.016006
0.0160062
0.016
0.016
0.016
0.016
0.016
0.016
0.016
0.016
0.016
0.016
0.016
0.016
0.016
0.016
0.016
0.016
0.016
0.016
0.016
0.016
0.016
0.016
0.016
0.016
0.016
0.016
0.016
0.016
0.016
0.016
0.016
0.016
0.016
0.016
0.016
0.016
0.016
0.016
0.016
0.016
0.016
0.016
0.016
0.016
0.016
0.016
0.016
0.016
0.0160001
0.0160001
0.0160001
0.0160001
0.0160001
0.0160001
0.0160001
0.0160001
0.0160001
0.0160001
0.0160002
0.0160002
0.0160002
0.0160002
0.0160003
0.0160003
0.0160003
0.0160004
0.0160004
0.0160005
0.0160005
0.0160006
0.0160007
0.0160007
0.0160008
0.0160009
0.016001
0.016001
0.0160011
0.0160012
0.0160013
0.0160014
0.0160015
0.0160016
0.0160017
0.0160018
0.0160019
0.016002
0.0160021
0.0160022
0.0160023
0.0160024
0.016
0.016
0.016
0.016
0.016
0.016
0.016
0.016
0.016
0.016
0.016
0.016
0.016
0.016
0.016
0.016
0.016
0.016
0.016
0.016
0.016
0.016
0.016
0.016
0.016
0.016
0.016
0.016
0.016
0.016
0.016
0.016
0.016
0.016
0.016
0.016
0.016
0.016
0.016
0.016
0.016
0.016
0.0160001
0.0160001
0.0160001
0.0160001
0.0160002
0.0160002
0.0160002
0.0160002
0.0160003
0.0160003
0.0160003
0.0160003
0.0160004
0.0160004
0.0160004
0.0160005
0.0160005
0.0160006
0.0160006
0.0160007
0.0160007
0.0160008
0.0160009
0.016001
0.016001
0.0160011
0.0160012
0.0160013
0.0160014
0.0160015
0.0160016
0.0160016
0.0160017
0.0160018
0.0160019
0.016002
0.0160021
0.0160022
0.0160023
0.0160024
0.0160025
0.0160026
0.0160027
0.0160028
0.0160029
0.016003
0.0160031
0.0160032
0.016
0.016
0.016
0.016
0.016
0.016
0.016
0.016
0.016
0.016
0.016
0.016
0.016
0.016
0.016
0.016
0.016
0.016
0.016
0.016
0.016
0.016
0.016
0.016
0.016
0.016
0.016
0.016
0.016
0.016
0.016
0.016
0.016
0.016
0.016
0.016
0.016
0.016
0.016
0.016
0.0160001
0.0160002
0.0160004
0.0160006
0.0160008
0.016001
0.0160011
0.0160013
0.0160015
0.0160016
0.0160018
0.0160019
0.0160021
0.0160023
0.0160026
0.0160028
0.0160031
0.0160034
0.0160037
0.016004
0.0160043
0.0160046
0.016005
0.0160053
0.0160056
0.0160059
0.0160062
0.0160065
0.0160068
0.016007
0.0160073
0.0160075
0.0160077
0.0160079
0.016008
0.0160082
0.0160083
0.0160085
0.0160086
0.0160087
0.0160088
0.0160089
0.016009
0.0160091
0.0160092
0.0160093
0.0160094
0.0160096
0.0160097
0.01601
0.016
0.016
0.016
0.016
0.016
0.016
0.016
0.016
0.016
0.016
0.016
0.016
0.016
0.016
0.016
0.016
0.016
0.016
0.016
0.016
0.016
0.016
0.016
0.016
0.016
0.016
0.016
0.016
0.016
0.016
0.016
0.016
0.016
0.016
0.016
0.016
0.016
0.016
0.0160001
0.0160003
0.0160008
0.0160015
0.0160024
0.0160034
0.0160044
0.0160055
0.0160066
0.0160076
0.0160086
0.0160096
0.0160106
0.0160116
0.0160127
0.0160138
0.0160149
0.016016
0.0160171
0.0160181
0.0160191
0.0160201
0.016021
0.0160218
0.0160226
0.0160233
0.016024
0.0160246
0.0160251
0.0160255
0.0160259
0.0160263
0.0160265
0.0160268
0.016027
0.0160271
0.0160272
0.0160273
0.0160274
0.0160274
0.0160275
0.0160275
0.0160276
0.0160277
0.0160279
0.0160282
0.0160285
0.0160289
0.0160294
0.0160299
0.0160304
0.0160309
0.016
0.016
0.016
0.016
0.016
0.016
0.016
0.016
0.016
0.016
0.016
0.016
0.016
0.016
0.016
0.016
0.016
0.016
0.016
0.016
0.016
0.016
0.016
0.016
0.016
0.016
0.016
0.016
0.016
0.016
0.016
0.016
0.016
0.016
0.016
0.016
0.016
0.016
0.0160004
0.0160017
0.0160042
0.0160077
0.0160117
0.0160159
0.0160201
0.0160242
0.0160281
0.0160317
0.016035
0.016038
0.0160407
0.0160432
0.0160456
0.0160477
0.0160496
0.0160514
0.0160529
0.0160544
0.0160556
0.0160568
0.0160578
0.0160586
0.0160594
0.01606
0.0160605
0.0160609
0.0160612
0.0160614
0.0160615
0.0160616
0.0160615
0.0160614
0.0160612
0.016061
0.0160608
0.0160605
0.0160603
0.0160601
0.0160599
0.0160598
0.0160597
0.0160596
0.0160595
0.0160594
0.0160593
0.0160592
0.0160592
0.0160592
0.0160591
0.0160592
0.016
0.016
0.016
0.016
0.016
0.016
0.016
0.016
0.016
0.016
0.016
0.016
0.016
0.016
0.016
0.016
0.016
0.016
0.016
0.016
0.016
0.016
0.016
0.016
0.016
0.016
0.016
0.016
0.016
0.016
0.016
0.016
0.016
0.016
0.016
0.016
0.016
0.0160001
0.0160021
0.016008
0.0160179
0.0160294
0.0160409
0.0160517
0.0160613
0.0160696
0.0160766
0.0160825
0.0160874
0.0160914
0.0160947
0.0160974
0.0160995
0.0161012
0.0161025
0.0161036
0.0161044
0.016105
0.0161055
0.0161059
0.0161061
0.0161062
0.0161062
0.0161061
0.0161059
0.0161056
0.0161052
0.0161047
0.016104
0.0161033
0.0161024
0.0161015
0.0161005
0.0160995
0.0160984
0.0160973
0.0160962
0.0160951
0.016094
0.0160928
0.0160917
0.0160907
0.0160896
0.0160886
0.0160877
0.0160867
0.0160859
0.016085
0.0160842
0.0160835
0.016
0.016
0.016
0.016
0.016
0.016
0.016
0.016
0.016
0.016
0.016
0.016
0.016
0.016
0.016
0.016
0.016
0.016
0.016
0.016
0.016
0.016
0.016
0.016
0.016
0.016
0.016
0.016
0.016
0.016
0.016
0.016
0.016
0.016
0.016
0.016
0.016
0.0160003
0.0160083
0.0160258
0.0160482
0.0160705
0.0160893
0.0161048
0.0161171
0.0161268
0.0161345
0.0161404
0.0161449
0.0161482
0.0161504
0.0161517
0.0161523
0.0161524
0.0161522
0.0161517
0.0161511
0.0161503
0.0161494
0.0161485
0.0161475
0.0161464
0.0161453
0.016144
0.0161427
0.0161412
0.0161397
0.0161381
0.0161364
0.0161347
0.0161329
0.016131
0.0161291
0.0161272
0.0161253
0.0161234
0.0161215
0.0161197
0.0161178
0.016116
0.0161142
0.0161124
0.0161107
0.016109
0.0161074
0.0161058
0.0161044
0.0161029
0.0161016
0.0161003
0.016
0.016
0.016
0.016
0.016
0.016
0.016
0.016
0.016
0.016
0.016
0.016
0.016
0.016
0.016
0.016
0.016
0.016
0.016
0.016
0.016
0.016
0.016
0.016
0.016
0.016
0.016
0.016
0.016
0.016
0.016
0.016
0.016
0.016
0.016
0.0160001
0.0160001
0.0160005
0.0160092
0.0160284
0.0160534
0.0160778
0.0160989
0.0161165
0.0161308
0.0161422
0.0161514
0.0161586
0.0161642
0.0161684
0.0161713
0.0161732
0.0161742
0.0161745
0.0161743
0.0161737
0.0161728
0.0161717
0.0161704
0.0161691
0.0161676
0.0161659
0.0161642
0.0161625
0.0161606
0.0161587
0.0161568
0.0161548
0.0161527
0.0161507
0.0161485
0.0161464
0.0161442
0.016142
0.0161398
0.0161376
0.0161354
0.0161332
0.0161311
0.016129
0.016127
0.016125
0.0161231
0.0161212
0.0161194
0.0161177
0.016116
0.0161144
0.0161128
0.0161113
0.016
0.016
0.016
0.016
0.016
0.016
0.016
0.016
0.016
0.016
0.016
0.016
0.016
0.016
0.016
0.016
0.016
0.016
0.016
0.016
0.016
0.016
0.016
0.016
0.016
0.016
0.016
0.016
0.016
0.016
0.016
0.016
0.016
0.016
0.0160001
0.0160002
0.0160004
0.0160008
0.0160087
0.0160267
0.0160505
0.0160738
0.0160939
0.0161108
0.0161245
0.0161357
0.0161448
0.016152
0.0161578
0.0161623
0.0161657
0.0161683
0.01617
0.0161711
0.0161716
0.0161717
0.0161713
0.0161707
0.0161698
0.0161687
0.0161675
0.0161662
0.0161647
0.0161633
0.0161617
0.0161601
0.0161584
0.0161567
0.016155
0.0161532
0.0161513
0.0161495
0.0161476
0.0161456
0.0161437
0.0161417
0.0161397
0.0161377
0.0161358
0.0161339
0.016132
0.0161301
0.0161283
0.0161265
0.0161248
0.0161231
0.0161214
0.0161199
0.0161183
0.0161169
0.016
0.016
0.016
0.016
0.016
0.016
0.016
0.016
0.016
0.016
0.016
0.016
0.016
0.016
0.016
0.016
0.016
0.016
0.016
0.016
0.016
0.016
0.016
0.016
0.016
0.016
0.016
0.016
0.016
0.016
0.016
0.016
0.0160001
0.0160002
0.0160005
0.0160011
0.0160017
0.0160022
0.0160081
0.0160221
0.0160407
0.0160592
0.0160751
0.0160883
0.016099
0.0161077
0.0161152
0.0161217
0.0161274
0.0161324
0.0161367
0.0161404
0.0161434
0.0161459
0.0161477
0.016149
0.0161498
0.0161502
0.0161503
0.0161501
0.0161498
0.0161492
0.0161486
0.0161479
0.0161471
0.0161463
0.0161455
0.0161448
0.016144
0.0161431
0.0161423
0.0161414
0.0161404
0.0161394
0.0161384
0.0161372
0.016136
0.0161348
0.0161335
0.0161322
0.0161308
0.0161294
0.016128
0.0161266
0.0161252
0.0161239
0.0161225
0.0161212
0.0161198
0.0161185
0.016
0.016
0.016
0.016
0.016
0.016
0.016
0.016
0.016
0.016
0.016
0.016
0.016
0.016
0.016
0.016
0.016
0.016
0.016
0.016
0.016
0.016
0.016
0.016
0.016
0.016
0.016
0.016
0.016
0.016
0.016
0.0160001
0.0160003
0.0160009
0.0160021
0.0160045
0.0160064
0.0160073
0.0160076
0.0160091
0.0160127
0.0160177
0.0160235
0.0160299
0.0160367
0.0160438
0.0160512
0.0160589
0.0160666
0.0160742
0.0160814
0.016088
0.0160939
0.0160991
0.0161034
0.016107
0.0161099
0.0161122
0.0161139
0.0161151
0.016116
0.0161166
0.0161169
0.0161169
0.0161168
0.0161168
0.0161169
0.0161172
0.0161178
0.0161186
0.0161195
0.0161205
0.0161213
0.0161221
0.0161227
0.0161232
0.0161235
0.0161237
0.0161237
0.0161235
0.0161232
0.0161228
0.0161223
0.0161217
0.0161209
0.0161202
0.0161194
0.0161185
0.0161176
0.0161167
0.016
0.016
0.016
0.016
0.016
0.016
0.016
0.016
0.016
0.016
0.016
0.016
0.016
0.016
0.016
0.016
0.016
0.016
0.016
0.016
0.016
0.016
0.016
0.016
0.016
0.016
0.016
0.016
0.016
0.0160001
0.0160002
0.0160006
0.0160014
0.0160032
0.0160071
0.0160147
0.016019
0.0160212
0.0160221
0.016022
0.016022
0.0160224
0.016023
0.0160241
0.0160255
0.0160274
0.0160301
0.0160337
0.0160381
0.0160431
0.0160485
0.016054
0.0160593
0.0160643
0.0160687
0.0160726
0.0160759
0.0160786
0.0160807
0.0160822
0.016083
0.0160835
0.0160839
0.0160843
0.0160848
0.0160853
0.016086
0.0160866
0.0160873
0.0160881
0.016089
0.0160903
0.0160919
0.0160938
0.0160958
0.016098
0.0161003
0.0161025
0.0161046
0.0161063
0.0161078
0.016109
0.0161099
0.0161106
0.0161111
0.0161114
0.0161115
0.0161115
0.0161113
0.0161111
0.016
0.016
0.016
0.016
0.016
0.016
0.016
0.016
0.016
0.016
0.016
0.016
0.016
0.016
0.016
0.016
0.016
0.016
0.016
0.016
0.016
0.016
0.016
0.016
0.016
0.016
0.016
0.016
0.0160001
0.0160004
0.016001
0.0160022
0.0160047
0.0160096
0.0160192
0.0160366
0.0160424
0.0160453
0.016047
0.0160475
0.0160474
0.0160473
0.0160473
0.0160473
0.0160474
0.0160472
0.0160468
0.0160465
0.0160466
0.0160474
0.0160488
0.0160508
0.0160532
0.0160558
0.0160584
0.0160608
0.016063
0.0160648
0.0160664
0.0160684
0.0160708
0.0160734
0.016076
0.0160782
0.0160799
0.016081
0.0160818
0.0160823
0.0160827
0.0160829
0.0160832
0.0160834
0.0160837
0.0160841
0.0160845
0.016085
0.0160856
0.0160863
0.0160872
0.0160884
0.0160898
0.0160913
0.0160929
0.0160944
0.0160959
0.0160973
0.0160985
0.0160995
0.0161003
0.0161009
0.016
0.016
0.016
0.016
0.016
0.016
0.016
0.016
0.016
0.016
0.016
0.016
0.016
0.016
0.016
0.016
0.016
0.016
0.016
0.016
0.016
0.016
0.016
0.016
0.016
0.016
0.016
0.0160002
0.0160007
0.0160018
0.0160038
0.0160074
0.0160136
0.0160241
0.0160419
0.0160703
0.0160713
0.0160723
0.0160733
0.016074
0.0160739
0.0160735
0.0160731
0.016073
0.0160743
0.0160742
0.0160715
0.016068
0.0160646
0.0160621
0.0160605
0.0160598
0.0160599
0.0160606
0.0160617
0.016063
0.0160655
0.0160695
0.0160745
0.0160787
0.0160812
0.0160823
0.0160827
0.0160827
0.0160825
0.0160822
0.0160819
0.0160816
0.0160814
0.0160811
0.016081
0.0160809
0.0160809
0.0160809
0.016081
0.0160811
0.0160813
0.0160815
0.0160818
0.0160822
0.0160825
0.016083
0.0160834
0.0160839
0.0160844
0.0160849
0.0160856
0.0160863
0.0160871
0.0160879
0.016
0.016
0.016
0.016
0.016
0.016
0.016
0.016
0.016
0.016
0.016
0.016
0.016
0.016
0.016
0.016
0.016
0.016
0.016
0.016
0.016
0.016
0.016
0.016
0.016
0.016
0.0160002
0.0160011
0.0160034
0.0160074
0.0160134
0.0160219
0.0160337
0.0160501
0.016073
0.0161017
0.0160888
0.0160872
0.016085
0.0160789
0.0160718
0.0160686
0.0160667
0.0160657
0.0160656
0.0160678
0.0160746
0.0160821
0.0160845
0.0160848
0.0160847
0.0160843
0.0160838
0.0160832
0.0160826
0.016082
0.0160814
0.0160809
0.0160804
0.0160799
0.0160795
0.0160792
0.0160789
0.0160787
0.0160786
0.0160785
0.0160785
0.0160785
0.0160786
0.0160787
0.0160789
0.0160791
0.0160793
0.0160795
0.0160798
0.01608
0.0160803
0.0160806
0.0160808
0.0160811
0.0160814
0.0160817
0.016
0.016
0.016
0.016
0.016
0.016
0.016
0.016
0.016
0.016
0.016
0.016
0.016
0.016
0.016
0.016
0.016
0.016
0.016
0.016
0.016
0.016
0.016
0.016
0.016
0.0160001
0.0160013
0.0160058
0.0160145
0.0160265
0.0160405
0.0160562
0.0160733
0.0160919
0.0161121
0.016129
0.0160897
0.0160888
0.0160878
0.0160866
0.0160853
0.0160837
0.0160835
0.0160844
0.0160858
0.0160869
0.0160869
0.0160866
0.016086
0.0160853
0.0160844
0.0160836
0.0160827
0.0160819
0.016081
0.0160802
0.0160795
0.0160788
0.0160782
0.0160776
0.0160772
0.0160768
0.0160765
0.0160763
0.0160762
0.0160761
0.016076
0.0160761
0.0160761
0.0160762
0.0160764
0.0160765
0.0160767
0.0160769
0.0160771
0.0160773
0.0160775
0.0160777
0.016078
0.0160782
0.0160783
0.0160785
0.016
0.016
0.016
0.016
0.016
0.016
0.016
0.016
0.016
0.016
0.016
0.016
0.016
0.016
0.016
0.016
0.016
0.016
0.016
0.016
0.016
0.016
0.016
0.016
0.016
0.0160002
0.0160066
0.0160228
0.0160455
0.0160693
0.0160911
0.0161102