/*--------------------------------*- C++ -*----------------------------------*\
| =========                 |                                                 |
| \\      /  F ield         | OpenFOAM: The Open Source CFD Toolbox           |
|  \\    /   O peration     | Version:  v2012                                 |
|   \\  /    A nd           | Website:  www.openfoam.com                      |
|    \\/     M anipulation  |                                                 |
\*---------------------------------------------------------------------------*/
FoamFile
{
    version     2.0;
    format      ascii;
    class       volScalarField;
    location    "300/air";
    object      TLeaf;
}
// * * * * * * * * * * * * * * * * * * * * * * * * * * * * * * * * * * * * * //

dimensions      [0 0 0 1 0 0 0];


internalField   nonuniform List<scalar> 
287104
(
310.316
310.61
310.874
311.114
311.335
311.54
311.731
311.91
312.079
312.24
312.393
312.539
312.679
312.814
312.943
313.068
313.189
313.306
313.419
313.529
313.637
313.741
313.844
313.944
314.042
314.138
314.232
314.325
314.416
314.505
314.594
314.68
314.766
314.85
314.933
315.015
315.096
315.176
315.255
315.333
315.41
315.486
315.561
315.636
315.709
315.782
315.853
315.924
315.994
316.063
316.132
316.199
316.266
316.332
316.397
316.461
316.524
316.587
316.649
316.71
316.771
316.83
316.889
316.947
317.005
317.062
317.118
317.174
317.229
317.284
317.339
317.393
317.447
317.5
317.553
317.606
317.658
317.711
317.765
317.818
317.872
317.927
317.982
318.038
318.095
318.152
318.21
318.27
318.333
318.407
310.312
310.602
310.862
311.099
311.317
311.518
311.706
311.882
312.048
312.206
312.357
312.5
312.638
312.77
312.897
313.019
313.137
313.252
313.363
313.471
313.576
313.678
313.778
313.876
313.971
314.065
314.157
314.247
314.336
314.423
314.509
314.593
314.676
314.758
314.839
314.919
314.997
315.075
315.152
315.227
315.302
315.376
315.449
315.521
315.592
315.662
315.732
315.8
315.868
315.935
316.001
316.067
316.131
316.195
316.258
316.32
316.382
316.442
316.502
316.561
316.62
316.678
316.735
316.791
316.847
316.902
316.957
317.011
317.065
317.118
317.171
317.224
317.276
317.327
317.379
317.43
317.482
317.534
317.586
317.638
317.691
317.744
317.798
317.853
317.908
317.964
318.021
318.079
318.141
318.214
310.307
310.594
310.85
311.084
311.298
311.497
311.682
311.856
312.02
312.176
312.324
312.465
312.601
312.731
312.856
312.976
313.093
313.205
313.315
313.421
313.524
313.625
313.723
313.819
313.913
314.005
314.095
314.184
314.271
314.356
314.44
314.523
314.604
314.684
314.763
314.841
314.918
314.994
315.069
315.142
315.215
315.287
315.358
315.428
315.497
315.566
315.633
315.7
315.766
315.831
315.895
315.958
316.021
316.082
316.143
316.203
316.263
316.321
316.379
316.436
316.492
316.547
316.602
316.656
316.709
316.762
316.814
316.866
316.917
316.968
317.018
317.068
317.117
317.166
317.214
317.263
317.311
317.36
317.408
317.457
317.506
317.556
317.607
317.657
317.709
317.761
317.813
317.867
317.924
317.992
310.303
310.585
310.838
311.069
311.28
311.477
311.659
311.83
311.992
312.145
312.292
312.431
312.565
312.693
312.816
312.935
313.05
313.161
313.269
313.373
313.475
313.574
313.671
313.766
313.858
313.949
314.038
314.125
314.211
314.295
314.378
314.459
314.539
314.618
314.696
314.772
314.848
314.922
314.996
315.068
315.14
315.21
315.28
315.349
315.417
315.484
315.55
315.616
315.681
315.744
315.807
315.869
315.931
315.991
316.051
316.11
316.168
316.225
316.282
316.338
316.393
316.447
316.501
316.554
316.606
316.658
316.709
316.759
316.81
316.859
316.909
316.957
317.006
317.054
317.101
317.149
317.196
317.244
317.292
317.34
317.389
317.438
317.488
317.539
317.589
317.641
317.693
317.746
317.804
317.871
310.299
310.577
310.827
311.054
311.263
311.456
311.636
311.805
311.964
312.116
312.26
312.398
312.53
312.656
312.778
312.895
313.008
313.117
313.223
313.327
313.427
313.525
313.62
313.714
313.805
313.894
313.982
314.068
314.152
314.235
314.316
314.396
314.475
314.552
314.629
314.704
314.778
314.851
314.923
314.994
315.065
315.134
315.202
315.27
315.336
315.402
315.467
315.531
315.594
315.656
315.718
315.778
315.838
315.897
315.955
316.013
316.069
316.125
316.18
316.235
316.288
316.341
316.393
316.445
316.496
316.546
316.596
316.646
316.695
316.744
316.792
316.84
316.887
316.935
316.982
317.029
317.076
317.124
317.171
317.22
317.269
317.318
317.369
317.42
317.472
317.524
317.577
317.632
317.691
317.759
310.295
310.569
310.815
311.039
311.245
311.436
311.614
311.78
311.937
312.087
312.229
312.365
312.495
312.619
312.739
312.855
312.966
313.074
313.179
313.281
313.38
313.476
313.57
313.662
313.752
313.84
313.927
314.011
314.094
314.176
314.256
314.334
314.412
314.488
314.563
314.637
314.709
314.781
314.851
314.921
314.989
315.057
315.124
315.189
315.254
315.318
315.381
315.442
315.504
315.564
315.623
315.681
315.739
315.795
315.851
315.906
315.96
316.014
316.066
316.118
316.169
316.22
316.269
316.318
316.367
316.415
316.462
316.509
316.556
316.602
316.647
316.693
316.738
316.783
316.827
316.872
316.916
316.961
317.006
317.052
317.098
317.144
317.191
317.238
317.286
317.333
317.381
317.429
317.48
317.54
310.291
310.561
310.804
311.025
311.228
311.416
311.591
311.755
311.91
312.058
312.198
312.332
312.46
312.583
312.702
312.816
312.926
313.033
313.136
313.237
313.334
313.43
313.523
313.613
313.702
313.789
313.873
313.957
314.038
314.118
314.196
314.273
314.349
314.423
314.496
314.568
314.638
314.707
314.775
314.842
314.908
314.972
315.035
315.097
315.158
315.217
315.275
315.331
315.386
315.44
315.492
315.544
315.594
315.644
315.692
315.739
315.786
315.832
315.877
315.921
315.964
316.007
316.049
316.091
316.131
316.172
316.211
316.251
316.289
316.327
316.365
316.402
316.439
316.475
316.511
316.546
316.581
316.616
316.651
316.686
316.721
316.755
316.788
316.819
316.849
316.878
316.905
316.931
316.96
316.996
310.287
310.554
310.793
311.01
311.211
311.396
311.569
311.731
311.884
312.029
312.168
312.3
312.427
312.548
312.665
312.778
312.886
312.992
313.094
313.194
313.29
313.384
313.476
313.566
313.653
313.739
313.822
313.904
313.983
314.061
314.138
314.212
314.285
314.355
314.423
314.488
314.552
314.613
314.672
314.729
314.784
314.838
314.889
314.939
314.986
315.033
315.077
315.12
315.161
315.2
315.238
315.274
315.307
315.34
315.37
315.399
315.426
315.451
315.475
315.497
315.518
315.537
315.555
315.572
315.588
315.602
315.615
315.627
315.638
315.649
315.658
315.666
315.674
315.681
315.687
315.692
315.697
315.701
315.705
315.709
315.712
315.716
315.719
315.723
315.728
315.733
315.741
315.754
315.785
315.845
310.282
310.546
310.782
310.996
311.194
311.377
311.547
311.707
311.858
312.001
312.138
312.269
312.395
312.516
312.633
312.747
312.857
312.964
313.069
313.17
313.269
313.365
313.458
313.549
313.637
313.72
313.8
313.876
313.949
314.019
314.085
314.148
314.209
314.266
314.321
314.372
314.421
314.467
314.51
314.551
314.589
314.625
314.659
314.69
314.719
314.745
314.769
314.79
314.809
314.827
314.842
314.855
314.867
314.878
314.887
314.894
314.9
314.905
314.908
314.911
314.912
314.912
314.911
314.909
314.906
314.902
314.898
314.892
314.887
314.88
314.873
314.866
314.857
314.849
314.839
314.83
314.82
314.81
314.8
314.789
314.778
314.767
314.756
314.746
314.737
314.727
314.719
314.713
314.718
314.74
310.279
310.538
310.771
310.982
311.177
311.358
311.526
311.683
311.832
311.974
312.112
312.252
312.392
312.532
312.672
312.81
312.945
313.077
313.205
313.329
313.448
313.563
313.673
313.778
313.878
313.971
314.059
314.142
314.22
314.294
314.364
314.431
314.494
314.555
314.615
314.674
314.731
314.786
314.838
314.889
314.936
314.98
315.022
315.059
315.094
315.125
315.153
315.179
315.202
315.222
315.24
315.256
315.268
315.279
315.286
315.291
315.294
315.295
315.293
315.289
315.282
315.274
315.264
315.252
315.238
315.223
315.206
315.188
315.169
315.148
315.127
315.104
315.081
315.057
315.032
315.006
314.981
314.955
314.928
314.899
314.865
314.828
314.791
314.754
314.719
314.686
314.657
314.633
314.623
314.632
310.275
310.531
310.76
310.969
311.161
311.339
311.505
311.66
311.807
311.951
314.655
314.751
314.944
315.162
315.38
315.587
315.779
315.955
316.115
316.258
316.384
316.494
316.59
316.671
316.739
316.795
316.842
316.88
316.913
316.941
316.966
316.988
317.01
317.029
317.049
317.075
317.097
317.104
317.11
317.126
317.144
317.169
317.194
317.198
317.205
317.222
317.237
317.25
317.263
317.275
317.287
317.298
317.308
317.317
317.324
317.33
317.335
317.338
317.34
317.341
317.339
317.337
317.333
317.327
317.321
317.314
317.306
317.297
317.288
317.278
317.268
317.256
317.243
317.23
317.216
317.202
317.189
317.171
317.147
317.113
316.182
316.022
315.877
315.744
315.621
315.509
315.409
315.323
315.262
315.237
310.271
310.523
310.749
310.955
311.145
311.32
311.483
311.637
311.782
311.924
314.502
314.586
314.775
314.992
315.211
315.42
315.615
315.795
315.958
316.104
316.234
316.347
316.445
316.528
316.597
316.655
316.701
316.738
316.769
316.794
316.816
316.836
316.854
316.872
316.894
316.925
316.954
316.962
316.971
316.995
317.022
317.061
317.103
317.115
317.132
317.165
317.195
317.226
317.257
317.288
317.321
317.353
317.386
317.418
317.449
317.48
317.51
317.54
317.568
317.596
317.622
317.646
317.669
317.691
317.712
317.731
317.749
317.765
317.779
317.791
317.8
317.805
317.808
317.807
317.804
317.798
317.791
317.781
317.767
317.763
317.642
317.51
317.363
317.209
317.056
316.908
316.767
316.637
316.525
316.439
310.267
310.516
310.739
310.942
311.129
311.302
311.463
311.614
311.757
311.897
314.386
314.467
314.651
314.865
315.08
315.286
315.478
315.656
315.817
315.961
316.089
316.201
316.296
316.377
316.444
316.499
316.543
316.577
316.603
316.624
316.64
316.655
316.669
316.682
316.7
316.73
316.759
316.759
316.758
316.778
316.8
316.838
316.879
316.882
316.889
316.916
316.94
316.965
316.991
317.017
317.044
317.071
317.098
317.125
317.152
317.179
317.207
317.235
317.264
317.292
317.322
317.353
317.385
317.418
317.454
317.491
317.529
317.57
317.611
317.653
317.695
317.738
317.78
317.821
317.861
317.902
317.941
317.979
318.016
318.067
318.364
318.364
318.337
318.287
318.221
318.141
318.048
317.949
317.852
317.765
310.263
310.508
310.728
310.928
311.113
311.283
311.442
311.591
311.733
311.87
314.274
314.353
314.534
314.744
314.955
315.158
315.348
315.522
315.681
315.823
315.949
316.059
316.153
316.232
316.298
316.352
316.396
316.43
316.456
316.474
316.489
316.501
316.512
316.523
316.54
316.573
316.605
316.601
316.593
316.611
316.632
316.671
316.716
316.713
316.713
316.739
316.761
316.784
316.807
316.832
316.855
316.878
316.899
316.919
316.938
316.957
316.974
316.991
317.007
317.022
317.038
317.054
317.072
317.09
317.109
317.129
317.149
317.17
317.192
317.214
317.237
317.26
317.284
317.307
317.33
317.354
317.378
317.403
317.43
317.468
317.141
317.141
317.14
317.135
317.13
317.131
317.143
317.168
317.212
317.286
310.259
310.501
310.718
310.915
311.097
311.265
311.422
311.569
311.708
311.844
314.163
314.24
314.419
314.625
314.833
315.032
315.219
315.39
315.547
315.687
315.811
315.919
316.011
316.089
316.154
316.207
316.251
316.286
316.313
316.332
316.344
316.354
316.362
316.372
316.389
316.424
316.46
316.453
316.44
316.459
316.479
316.52
316.572
316.565
316.559
316.586
316.609
316.633
316.659
316.684
316.708
316.73
316.75
316.769
316.789
316.809
316.827
316.845
316.862
316.879
316.895
316.912
316.928
316.945
316.961
316.977
316.993
317.007
317.021
317.033
317.044
317.053
317.059
317.063
317.065
317.068
317.07
317.072
317.073
317.072
316.518
316.431
316.355
316.287
316.228
316.176
316.137
316.114
316.125
316.197
310.256
310.494
310.708
310.902
311.082
311.247
311.402
311.547
311.684
311.818
314.053
314.129
314.304
314.507
314.711
314.907
315.091
315.26
315.414
315.552
315.674
315.78
315.871
315.947
316.01
316.063
316.107
316.144
316.173
316.193
316.205
316.212
316.218
316.225
316.241
316.278
316.319
316.311
316.293
316.312
316.333
316.377
316.434
316.426
316.416
316.445
316.47
316.499
316.528
316.556
316.579
316.599
316.619
316.639
316.66
316.681
316.701
316.721
316.741
316.761
316.781
316.802
316.823
316.844
316.865
316.885
316.905
316.924
316.942
316.959
316.974
316.986
316.996
317.003
317.008
317.014
317.021
317.029
317.037
317.043
316.709
316.636
316.573
316.517
316.468
316.425
316.389
316.365
316.371
316.412
310.252
310.487
310.698
310.89
311.066
311.23
311.382
311.525
311.66
311.792
313.945
314.018
314.19
314.39
314.591
314.784
314.964
315.131
315.282
315.418
315.538
315.643
315.732
315.806
315.867
315.919
315.963
316.002
316.034
316.057
316.071
316.076
316.078
316.082
316.096
316.135
316.18
316.17
316.149
316.168
316.189
316.236
316.3
316.291
316.279
316.311
316.341
316.375
316.409
316.438
316.46
316.479
316.498
316.519
316.542
316.565
316.588
316.612
316.636
316.66
316.685
316.711
316.736
316.761
316.786
316.81
316.834
316.858
316.88
316.901
316.919
316.935
316.95
316.963
316.977
316.994
317.015
317.04
317.069
317.117
317.161
317.155
317.14
317.123
317.106
317.092
317.082
317.077
317.085
317.112
310.249
310.48
310.688
310.877
311.051
311.212
311.362
311.503
311.637
311.767
313.839
313.912
314.08
314.276
314.474
314.664
314.841
315.005
315.154
315.287
315.404
315.507
315.593
315.665
315.724
315.773
315.815
315.854
315.889
315.917
315.933
315.937
315.936
315.935
315.945
315.981
316.028
316.016
315.99
316.008
316.03
316.078
316.148
316.139
316.127
316.163
316.2
316.24
316.277
316.304
316.322
316.338
316.356
316.377
316.401
316.425
316.45
316.475
316.5
316.526
316.553
316.579
316.606
316.632
316.659
316.685
316.711
316.736
316.76
316.782
316.802
316.82
316.838
316.857
316.877
316.902
316.931
316.965
317.005
317.063
317.278
317.283
317.275
317.259
317.239
317.217
317.196
317.178
317.168
317.173
310.245
310.473
310.678
310.865
311.036
311.195
311.343
311.482
311.613
311.742
313.742
313.814
313.981
314.173
314.367
314.553
314.727
314.886
315.029
315.157
315.269
315.364
315.444
315.509
315.56
315.6
315.635
315.668
315.701
315.729
315.746
315.749
315.743
315.734
315.734
315.764
315.808
315.792
315.761
315.778
315.8
315.85
315.925
315.92
315.912
315.957
316.005
316.053
316.092
316.117
316.132
316.145
316.163
316.184
316.208
316.231
316.253
316.275
316.297
316.318
316.339
316.359
316.379
316.399
316.418
316.437
316.454
316.469
316.481
316.492
316.501
316.509
316.517
316.526
316.537
316.551
316.568
316.588
316.61
316.645
316.712
316.664
316.603
316.535
316.466
316.397
316.333
316.275
316.229
316.204
310.242
310.467
310.668
310.852
311.021
311.178
311.324
311.461
311.59
311.717
313.681
313.762
313.927
314.113
314.296
314.469
314.625
314.762
314.881
314.982
315.065
315.132
315.184
315.223
315.252
315.272
315.289
315.309
315.334
315.359
315.378
315.383
315.375
315.361
315.355
315.379
315.422
315.409
315.379
315.397
315.422
315.474
315.556
315.562
315.565
315.627
315.692
315.754
315.803
315.834
315.855
315.877
315.903
315.932
315.959
315.983
316.002
316.017
316.028
316.037
316.044
316.05
316.054
316.058
316.06
316.059
316.057
316.052
316.045
316.037
316.029
316.021
316.014
316.008
316.005
316.004
316.005
316.007
316.006
316
315.725
315.63
315.544
315.467
315.397
315.334
315.279
315.235
315.213
315.227
310.238
310.46
310.659
310.84
311.007
311.161
311.305
311.44
311.567
311.688
311.804
311.917
312.025
312.131
312.233
312.333
312.429
312.523
312.613
312.701
312.786
312.868
312.948
313.024
313.098
313.17
313.239
313.306
313.371
313.435
313.497
313.558
313.617
313.675
313.731
313.786
313.842
313.896
313.95
314.003
314.056
314.11
314.165
314.219
314.273
314.326
314.379
314.428
314.474
314.517
314.554
314.588
314.618
314.644
314.666
314.685
314.7
314.712
314.721
314.727
314.731
314.733
314.733
314.732
314.729
314.725
314.721
314.715
314.708
314.701
314.693
314.685
314.676
314.666
314.655
314.644
314.632
314.618
314.604
314.588
314.567
314.545
314.521
314.497
314.473
314.451
314.431
314.416
314.413
314.43
310.235
310.453
310.649
310.828
310.993
311.145
311.286
311.419
311.545
311.664
311.778
311.887
311.991
312.092
312.188
312.282
312.372
312.459
312.543
312.625
312.704
312.781
312.855
312.928
312.998
313.067
313.134
313.199
313.263
313.326
313.388
313.449
313.509
313.568
313.625
313.682
313.74
313.796
313.852
313.907
313.961
314.014
314.067
314.118
314.167
314.214
314.259
314.302
314.342
314.379
314.412
314.443
314.47
314.495
314.516
314.535
314.551
314.565
314.576
314.585
314.592
314.597
314.6
314.601
314.6
314.597
314.593
314.588
314.581
314.573
314.563
314.552
314.54
314.527
314.512
314.497
314.481
314.464
314.447
314.428
314.41
314.391
314.373
314.356
314.34
314.324
314.311
314.301
314.302
314.32
310.231
310.447
310.64
310.816
310.978
311.128
311.268
311.398
311.522
311.64
311.752
311.859
311.962
312.06
312.155
312.246
312.334
312.42
312.502
312.583
312.661
312.737
312.811
312.883
312.954
313.022
313.09
313.156
313.22
313.284
313.348
313.41
313.471
313.532
313.591
313.65
313.709
313.768
313.826
313.883
313.939
313.995
314.051
314.107
314.161
314.216
314.271
314.325
314.378
314.429
314.479
314.527
314.573
314.616
314.657
314.695
314.73
314.762
314.792
314.819
314.845
314.868
314.889
314.908
314.924
314.939
314.953
314.964
314.974
314.982
314.989
314.994
314.998
315.001
315.003
315.005
315.005
315.006
315.007
315.007
315.009
315.01
315.012
315.015
315.019
315.023
315.03
315.041
315.066
315.113
310.228
310.44
310.631
310.804
310.964
311.112
311.249
311.378
311.5
311.616
311.726
311.832
311.933
312.03
312.123
312.213
312.3
312.384
312.466
312.545
312.622
312.697
312.77
312.841
312.911
312.979
313.045
313.111
313.175
313.238
313.301
313.363
313.424
313.484
313.543
313.603
313.663
313.722
313.78
313.837
313.891
313.943
313.995
314.045
314.096
314.147
314.198
314.249
314.299
314.348
314.396
314.442
314.487
314.53
314.572
314.611
314.649
314.685
314.718
314.75
314.78
314.808
314.834
314.859
314.882
314.904
314.925
314.944
314.964
314.982
315
315.017
315.034
315.051
315.067
315.084
315.101
315.118
315.136
315.155
315.174
315.195
315.216
315.239
315.262
315.286
315.312
315.338
315.368
315.405
310.225
310.434
310.621
310.792
310.95
311.095
311.231
311.358
311.477
311.592
311.7
311.804
311.904
312
312.091
312.18
312.265
312.348
312.428
312.506
312.582
312.656
312.728
312.798
312.867
312.935
313.001
313.065
313.129
313.192
313.254
313.316
313.376
313.436
313.495
313.554
313.614
313.673
313.728
313.777
313.818
313.853
313.885
313.916
313.946
313.977
314.009
314.041
314.073
314.104
314.132
314.159
314.183
314.204
314.223
314.24
314.255
314.268
314.28
314.291
314.302
314.314
314.326
314.339
314.354
314.37
314.388
314.407
314.429
314.451
314.476
314.502
314.529
314.558
314.587
314.618
314.649
314.682
314.716
314.751
314.786
314.823
314.861
314.9
314.94
314.981
315.022
315.063
315.106
315.152
310.221
310.427
310.612
310.781
310.936
311.079
311.212
311.337
311.456
311.568
311.675
311.778
311.876
311.97
312.06
312.148
312.232
312.313
312.393
312.469
312.544
312.617
312.688
312.758
312.825
312.892
312.957
313.022
313.085
313.147
313.209
313.27
313.331
313.39
313.449
313.508
313.567
313.622
313.661
313.677
313.67
313.647
313.62
313.592
313.566
313.544
313.525
313.507
313.492
313.479
313.468
313.458
313.449
313.443
313.439
313.438
313.439
313.444
313.452
313.462
313.475
313.491
313.51
313.532
313.556
313.582
313.61
313.641
313.673
313.707
313.742
313.778
313.816
313.854
313.893
313.932
313.972
314.012
314.053
314.094
314.134
314.174
314.212
314.25
314.285
314.319
314.352
314.383
314.416
314.452
310.218
310.421
310.603
310.769
310.922
311.063
311.195
311.318
311.434
311.545
311.651
311.752
311.848
311.941
312.03
312.116
312.199
312.28
312.358
312.434
312.507
312.579
312.649
312.718
312.785
312.851
312.915
312.979
313.042
313.104
313.166
313.227
313.288
313.347
313.406
313.465
313.523
313.556
313.517
313.418
313.286
313.154
313.042
312.951
312.879
312.826
312.787
312.759
312.741
312.73
312.726
312.729
312.736
312.747
312.761
312.778
312.796
312.817
312.839
312.863
312.888
312.914
312.942
312.97
313
313.031
313.063
313.095
313.129
313.163
313.197
313.232
313.267
313.301
313.336
313.37
313.404
313.437
313.47
313.501
313.532
313.563
313.594
313.624
313.653
313.68
313.706
313.731
313.756
313.782
310.215
310.415
310.595
310.758
310.909
311.048
311.178
311.299
311.414
311.523
311.627
311.727
311.822
311.914
312.002
312.087
312.169
312.248
312.325
312.4
312.473
312.544
312.614
312.681
312.748
312.813
312.877
312.94
313.003
313.065
313.126
313.188
313.249
313.31
313.37
313.43
313.483
313.448
313.228
312.932
312.674
312.496
312.372
312.297
312.258
312.243
312.245
312.256
312.274
312.295
312.318
312.344
312.369
312.395
312.421
312.447
312.473
312.499
312.525
312.55
312.576
312.602
312.629
312.655
312.681
312.708
312.735
312.762
312.789
312.816
312.843
312.87
312.896
312.921
312.946
312.969
312.992
313.014
313.036
313.058
313.079
313.1
313.12
313.14
313.159
313.177
313.194
313.212
313.233
313.259
310.212
310.41
310.587
310.749
310.897
311.035
311.163
311.282
311.396
311.504
311.607
311.705
311.799
311.89
311.976
312.06
312.141
312.22
312.296
312.37
312.443
312.513
312.582
312.649
312.715
312.78
312.843
312.906
312.969
313.031
313.093
313.155
313.218
313.28
313.343
313.404
313.433
313.273
312.717
312.291
312.028
311.892
311.849
311.849
311.873
311.911
311.954
311.999
312.042
312.083
312.12
312.153
312.184
312.212
312.239
312.264
312.289
312.312
312.335
312.358
312.381
312.402
312.423
312.444
312.465
312.485
312.505
312.524
312.542
312.56
312.577
312.594
312.609
312.625
312.639
312.654
312.668
312.683
312.698
312.713
312.728
312.744
312.761
312.777
312.793
312.809
312.825
312.842
312.861
312.883
310.21
310.405
310.581
310.74
310.887
311.023
311.15
311.269
311.381
311.487
311.589
311.687
311.78
311.869
311.956
312.039
312.119
312.197
312.273
312.346
312.418
312.488
312.557
312.624
312.69
312.754
312.818
312.881
312.944
313.007
313.07
313.133
313.197
313.262
313.327
313.391
313.422
313.253
312.599
312.098
311.771
311.586
311.583
311.611
311.655
311.708
311.764
311.818
311.87
311.917
311.959
311.998
312.033
312.063
312.091
312.116
312.14
312.163
312.185
312.206
312.228
312.249
312.269
312.289
312.308
312.326
312.344
312.359
312.374
312.388
312.4
312.412
312.423
312.433
312.443
312.454
312.464
312.474
312.485
312.497
312.508
312.521
312.534
312.547
312.561
312.575
312.589
312.605
312.623
312.643
310.208
310.402
310.576
310.734
310.88
311.015
311.141
311.258
311.37
311.476
311.577
311.673
311.766
311.855
311.941
312.023
312.103
312.181
312.256
312.329
312.401
312.471
312.54
312.607
312.673
312.738
312.803
312.867
312.931
312.995
313.059
313.124
313.189
313.255
313.321
313.384
313.419
313.26
312.56
312.007
311.63
311.398
311.428
311.478
311.537
311.598
311.66
311.718
311.774
311.826
311.873
311.916
311.954
311.988
312.019
312.048
312.075
312.102
312.128
312.154
312.179
312.203
312.227
312.25
312.271
312.291
312.308
312.323
312.337
312.348
312.357
312.365
312.371
312.376
312.381
312.385
312.39
312.395
312.4
312.407
312.415
312.423
312.433
312.444
312.455
312.467
312.479
312.493
312.509
312.526
310.207
310.4
310.573
310.731
310.876
311.01
311.135
311.252
311.363
311.468
311.569
311.665
311.758
311.846
311.932
312.014
312.094
312.171
312.247
312.32
312.392
312.462
312.531
312.599
312.666
312.733
312.799
312.865
312.93
312.996
313.061
313.126
313.19
313.252
313.31
313.359
313.398
313.269
312.6
312.049
311.663
311.416
311.457
311.515
311.577
311.639
311.697
311.752
311.803
311.851
311.895
311.937
311.976
312.013
312.048
312.082
312.115
312.149
312.183
312.218
312.252
312.286
312.32
312.352
312.381
312.408
312.432
312.451
312.466
312.476
312.482
312.485
312.484
312.48
312.475
312.47
312.464
312.459
312.455
312.452
312.451
312.451
312.453
312.457
312.462
312.468
312.476
312.485
312.497
312.511
310.207
310.399
310.572
310.729
310.874
311.008
311.132
311.249
311.36
311.465
311.566
311.662
311.754
311.843
311.928
312.011
312.091
312.168
312.244
312.318
312.39
312.46
312.53
312.599
312.668
312.736
312.804
312.872
312.938
313.004
313.068
313.128
313.184
313.229
313.257
313.267
313.292
313.314
313.084
312.787
312.466
312.192
312.153
312.128
312.11
312.099
312.093
312.092
312.097
312.107
312.121
312.139
312.162
312.189
312.218
312.25
312.284
312.321
312.358
312.399
312.442
312.487
312.536
312.586
312.637
312.685
312.729
312.766
312.794
312.814
312.827
312.833
312.833
312.827
312.816
312.798
312.774
312.748
312.721
312.696
312.674
312.655
312.639
312.626
312.617
312.61
312.606
312.605
312.608
312.613
310.207
310.399
310.572
310.729
310.874
311.007
311.132
311.249
311.359
311.465
311.565
311.662
311.754
311.843
311.928
312.011
312.091
312.169
312.245
312.319
312.391
312.462
312.533
312.603
312.674
312.744
312.814
312.883
312.948
313.009
313.063
313.108
313.137
313.138
313.105
313.049
313.052
313.08
312.926
312.785
312.646
312.515
312.581
312.637
312.673
312.687
312.68
312.655
312.621
312.585
312.553
312.53
312.516
312.512
312.516
312.528
312.549
312.58
312.619
312.671
312.74
312.82
312.904
312.986
313.059
313.12
313.168
313.204
313.228
313.243
313.249
313.247
313.24
313.229
313.215
313.198
313.18
313.159
313.135
313.109
313.083
313.056
313.03
313.004
312.979
312.953
312.929
312.908
312.894
312.884
310.207
310.399
310.572
310.73
310.874
311.008
311.133
311.25
311.361
311.466
311.567
311.663
311.755
311.844
311.93
312.012
312.093
312.171
312.247
312.321
312.394
312.465
312.536
312.608
312.68
312.751
312.821
312.887
312.943
312.988
313.017
313.025
313.002
312.938
312.835
312.742
312.767
312.817
312.644
312.491
312.362
312.259
312.397
312.524
312.626
312.709
312.772
312.812
312.827
312.824
312.81
312.795
312.782
312.774
312.773
312.786
312.815
312.869
312.953
313.045
313.117
313.154
313.153
313.123
313.077
313.029
312.986
312.952
312.928
312.913
312.906
312.905
312.91
312.92
312.934
312.951
312.971
312.994
313.018
313.045
313.07
313.094
313.115
313.132
313.146
313.155
313.16
313.16
313.16
313.161
310.207
310.4
310.573
310.73
310.876
311.01
311.135
311.252
311.362
311.468
311.568
311.665
311.757
311.846
311.932
312.015
312.095
312.173
312.249
312.324
312.397
312.469
312.54
312.611
312.684
312.755
312.82
312.869
312.896
312.898
312.874
312.823
312.743
312.632
312.511
312.471
312.58
312.715
312.505
312.316
312.174
312.09
312.442
312.757
313.005
313.145
313.192
313.193
313.166
313.127
313.087
313.056
313.038
313.04
313.066
313.127
313.206
313.248
313.17
313.011
312.855
312.739
312.66
312.608
312.574
312.552
312.539
312.533
312.532
312.536
312.543
312.553
312.566
312.581
312.598
312.618
312.639
312.663
312.69
312.718
312.749
312.782
312.816
312.851
312.887
312.923
312.96
312.997
313.034
313.073
310.207
310.4
310.573
310.731
310.876
311.011
311.136
311.253
311.364
311.469
311.57
311.667
311.759
311.848
311.934
312.017
312.097
312.176
312.252
312.327
312.4
312.472
312.544
312.615
312.687
312.751
312.778
312.766
312.716
312.641
312.56
312.474
312.388
312.308
312.258
312.345
313.604
313.409
313.281
313.222
313.269
313.282
313.29
313.316
313.374
313.393
313.191
312.854
312.665
312.556
312.469
312.404
312.357
312.325
312.304
312.293
312.288
312.288
312.292
312.298
312.306
312.316
312.328
312.341
312.355
312.371
312.387
312.405
312.424
312.445
312.466
312.489
312.513
312.538
312.565
312.592
312.621
312.65
312.68
312.71
312.743
312.779
310.207
310.4
310.573
310.731
310.876
311.011
311.136
311.253
311.364
311.47
311.571
311.667
311.76
311.849
311.935
312.018
312.099
312.177
312.254
312.329
312.403
312.475
312.547
312.618
312.686
312.708
312.63
312.484
312.332
312.217
312.126
312.07
312.047
312.057
312.128
312.358
313.273
313.024
312.907
312.868
312.861
312.859
312.811
312.718
312.59
312.454
312.353
312.264
312.221
312.189
312.158
312.134
312.117
312.108
312.106
312.108
312.114
312.122
312.133
312.145
312.157
312.171
312.185
312.199
312.213
312.226
312.24
312.254
312.269
312.284
312.3
312.318
312.336
312.356
312.376
312.398
312.42
312.443
312.467
312.492
312.521
312.548
310.207
310.4
310.573
310.731
310.876
311.01
311.135
311.253
311.363
311.469
311.57
311.667
311.759
311.848
311.934
312.018
312.098
312.177
312.254
312.329
312.403
312.476
312.548
312.618
312.666
312.577
312.233
311.944
311.766
311.688
311.686
311.721
311.785
311.882
312.05
312.42
313.101
312.758
312.578
312.467
312.385
312.318
312.258
312.204
312.152
312.097
312.047
312.016
312
311.989
311.979
311.977
311.98
311.987
311.998
312.011
312.026
312.042
312.058
312.075
312.092
312.108
312.124
312.139
312.153
312.165
312.177
312.189
312.199
312.21
312.221
312.232
312.244
312.257
312.27
312.285
312.3
312.315
312.332
312.349
312.37
312.389
310.207
310.4
310.573
310.73
310.876
311.01
311.135
311.252
311.363
311.468
311.569
311.665
311.758
311.847
311.933
312.016
312.097
312.176
312.252
312.328
312.402
312.475
312.547
312.616
312.66
312.557
312.104
311.728
311.476
311.34
311.389
311.465
311.569
311.71
311.94
312.415
313.026
312.636
312.432
312.292
312.186
312.104
312.038
311.987
311.948
311.918
311.902
311.898
311.899
311.904
311.91
311.922
311.937
311.954
311.974
311.994
312.014
312.035
312.056
312.077
312.096
312.115
312.133
312.149
312.164
312.177
312.188
312.197
312.205
312.212
312.218
312.224
312.229
312.235
312.242
312.249
312.257
312.265
312.274
312.284
312.298
312.309
310.207
310.4
310.572
310.73
310.875
311.009
311.134
311.251
311.362
311.467
311.568
311.664
311.757
311.846
311.932
312.015
312.095
312.174
312.251
312.326
312.4
312.473
312.545
312.614
312.657
312.549
312.016
311.569
311.252
311.054
311.138
311.241
311.364
311.52
311.766
312.277
313.006
312.586
312.359
312.226
312.119
312.034
311.965
311.919
311.889
311.877
311.877
311.883
311.895
311.911
311.928
311.95
311.974
311.999
312.024
312.049
312.074
312.098
312.121
312.144
312.167
312.188
312.208
312.227
312.243
312.258
312.27
312.279
312.286
312.291
312.293
312.294
312.294
312.293
312.291
312.29
312.288
312.288
312.288
312.29
312.297
312.302
310.207
310.399
310.572
310.73
310.875
311.009
311.133
311.25
311.361
311.466
311.567
311.664
311.756
311.845
311.931
312.014
312.094
312.173
312.249
312.324
312.398
312.471
312.542
312.612
312.657
312.557
312.015
311.556
311.223
311.005
311.102
311.211
311.332
311.474
311.688
312.128
313.094
312.659
312.41
312.287
312.169
312.076
312.002