/*--------------------------------*- C++ -*----------------------------------*\
| =========                 |                                                 |
| \\      /  F ield         | OpenFOAM: The Open Source CFD Toolbox           |
|  \\    /   O peration     | Version:  v2012                                 |
|   \\  /    A nd           | Website:  www.openfoam.com                      |
|    \\/     M anipulation  |                                                 |
\*---------------------------------------------------------------------------*/
FoamFile
{
    version     2.0;
    format      ascii;
    class       volScalarField;
    location    "300/asphalt";
    object      T;
}
// * * * * * * * * * * * * * * * * * * * * * * * * * * * * * * * * * * * * * //

dimensions      [0 0 0 1 0 0 0];


internalField   nonuniform List<scalar> 
1980
(
321.64
322.058
322.472
322.825
323.129
323.393
323.624
323.828
324.01
324.172
324.319
324.453
324.575
324.686
324.789
324.885
324.973
325.054
325.129
325.199
325.263
325.323
325.38
325.433
325.484
325.534
325.582
325.628
325.675
325.721
325.765
325.804
325.832
325.865
325.899
325.933
325.965
325.996
326.027
326.058
326.088
326.118
326.147
326.175
326.204
326.233
326.261
326.287
326.313
326.337
326.36
326.383
326.406
326.429
326.452
326.476
326.501
326.53
326.569
326.598
326.623
326.647
326.671
326.694
326.715
326.736
326.757
326.778
326.799
326.819
326.839
326.859
326.88
326.9
326.92
326.941
326.96
326.98
327
327.02
327.04
327.06
327.082
327.106
327.132
327.162
327.197
327.25
327.368
327.69
321.642
322.06
322.473
322.827
323.131
323.395
323.626
323.831
324.012
324.175
324.323
324.456
324.578
324.69
324.793
324.888
324.976
325.058
325.133
325.202
325.267
325.327
325.384
325.438
325.49
325.54
325.589
325.636
325.683
325.73
325.774
325.816
325.853
325.889
325.924
325.958
325.991
326.024
326.056
326.087
326.117
326.147
326.176
326.205
326.233
326.26
326.288
326.314
326.341
326.366
326.39
326.414
326.438
326.461
326.485
326.508
326.532
326.557
326.582
326.607
326.631
326.655
326.679
326.702
326.724
326.745
326.766
326.787
326.808
326.828
326.849
326.869
326.89
326.91
326.931
326.951
326.972
326.991
327.011
327.031
327.051
327.071
327.093
327.116
327.142
327.171
327.207
327.26
327.378
327.701
321.643
322.061
322.475
322.828
323.132
323.396
323.628
323.833
324.015
324.178
324.325
324.459
324.581
324.693
324.796
324.891
324.979
325.06
325.136
325.205
325.27
325.331
325.388
325.443
325.496
325.546
325.596
325.644
325.691
325.737
325.781
325.822
325.861
325.898
325.933
325.967
326.001
326.034
326.066
326.097
326.128
326.158
326.187
326.216
326.243
326.271
326.298
326.324
326.351
326.377
326.403
326.427
326.451
326.475
326.499
326.522
326.546
326.569
326.593
326.616
326.639
326.663
326.687
326.71
326.731
326.753
326.774
326.795
326.816
326.837
326.858
326.879
326.899
326.92
326.941
326.962
326.982
327.003
327.023
327.043
327.064
327.084
327.106
327.129
327.154
327.183
327.219
327.272
327.391
327.716
321.644
322.062
322.475
322.829
323.133
323.398
323.629
323.834
324.017
324.18
324.328
324.462
324.584
324.696
324.799
324.894
324.981
325.063
325.138
325.208
325.273
325.334
325.392
325.448
325.501
325.552
325.602
325.65
325.698
325.743
325.786
325.827
325.865
325.902
325.938
325.972
326.007
326.04
326.072
326.104
326.134
326.164
326.194
326.223
326.25
326.277
326.304
326.331
326.357
326.384
326.41
326.435
326.46
326.484
326.508
326.532
326.555
326.579
326.601
326.624
326.647
326.67
326.694
326.716
326.738
326.76
326.781
326.803
326.824
326.845
326.866
326.887
326.908
326.929
326.95
326.971
326.992
327.013
327.034
327.055
327.076
327.097
327.119
327.142
327.167
327.196
327.231
327.284
327.404
327.73
321.644
322.063
322.476
322.83
323.134
323.399
323.631
323.836
324.018
324.182
324.329
324.463
324.585
324.697
324.8
324.895
324.983
325.064
325.14
325.21
325.275
325.337
325.396
325.452
325.506
325.558
325.607
325.656
325.703
325.748
325.79
325.83
325.868
325.905
325.941
325.976
326.011
326.044
326.076
326.108
326.139
326.169
326.198
326.227
326.255
326.282
326.309
326.336
326.362
326.389
326.415
326.441
326.466
326.491
326.515
326.539
326.563
326.586
326.609
326.632
326.654
326.677
326.7
326.723
326.745
326.767
326.788
326.81
326.831
326.853
326.874
326.895
326.916
326.937
326.959
326.98
327.001
327.023
327.044
327.066
327.087
327.109
327.132
327.155
327.181
327.209
327.244
327.298
327.418
327.745
321.645
322.063
322.477
322.83
323.135
323.4
323.632
323.837
324.019
324.183
324.331
324.465
324.587
324.699
324.802
324.897
324.984
325.066
325.141
325.212
325.278
325.34
325.4
325.456
325.511
325.562
325.612
325.661
325.707
325.751
325.793
325.833
325.871
325.908
325.944
325.98
326.014
326.048
326.08
326.112
326.143
326.173
326.203
326.232
326.259
326.286
326.314
326.341
326.367
326.394
326.421
326.447
326.472
326.497
326.521
326.546
326.569
326.593
326.616
326.639
326.662
326.684
326.707
326.73
326.752
326.774
326.795
326.817
326.839
326.861
326.882
326.904
326.925
326.946
326.968
326.989
327.011
327.033
327.055
327.077
327.099
327.122
327.145
327.169
327.194
327.223
327.258
327.312
327.433
327.761
321.645
322.064
322.477
322.831
323.135
323.4
323.632
323.838
324.02
324.184
324.332
324.466
324.588
324.7
324.803
324.898
324.986
325.067
325.143
325.214
325.281
325.344
325.403
325.46
325.515
325.567
325.617
325.665
325.711
325.754
325.796
325.836
325.874
325.912
325.948
325.983
326.018
326.051
326.084
326.116
326.147
326.177
326.207
326.236
326.264
326.291
326.319
326.346
326.373
326.4
326.426
326.452
326.478
326.503
326.527
326.552
326.576
326.6
326.623
326.646
326.669
326.692
326.714
326.737
326.759
326.781
326.803
326.825
326.847
326.869
326.891
326.912
326.934
326.955
326.977
326.999
327.021
327.043
327.066
327.089
327.112
327.135
327.158
327.183
327.209
327.238
327.274
327.328
327.45
327.779
321.645
322.064
322.477
322.831
323.136
323.401
323.633
323.838
324.021
324.185
324.333
324.467
324.589
324.701
324.804
324.899
324.987
325.069
325.145
325.216
325.284
325.347
325.407
325.465
325.519
325.571
325.621
325.669
325.715
325.758
325.8
325.84
325.879
325.916
325.953
325.988
326.023
326.056
326.089
326.121
326.152
326.183
326.213
326.242
326.27
326.298
326.326
326.353
326.38
326.407
326.434
326.46
326.485
326.51
326.535
326.56
326.584
326.608
326.632
326.655
326.678
326.701
326.723
326.746
326.768
326.79
326.813
326.835
326.857
326.879
326.901
326.923
326.944
326.966
326.987
327.009
327.031
327.054
327.077
327.1
327.123
327.147
327.171
327.196
327.223
327.252
327.288
327.342
327.463
327.791
321.646
322.064
322.478
322.832
323.137
323.402
323.634
323.84
324.022
324.187
324.335
324.469
324.591
324.704
324.807
324.902
324.991
325.073
325.15
325.222
325.29
325.354
325.414
325.472
325.527
325.579
325.629
325.677
325.722
325.766
325.808
325.848
325.888
325.926
325.963
325.999
326.033
326.067
326.1
326.133
326.164
326.195
326.225
326.255
326.284
326.312
326.34
326.368
326.395
326.422
326.449
326.475
326.501
326.526
326.551
326.576
326.601
326.625
326.649
326.672
326.695
326.718
326.741
326.764
326.786
326.809
326.831
326.853
326.875
326.898
326.92
326.942
326.963
326.985
327.007
327.028
327.05
327.073
327.096
327.119
327.142
327.166
327.19
327.216
327.242
327.272
327.307
327.36
327.478
327.8
321.647
322.066
322.481
322.836
323.142
323.408
323.642
323.849
324.033
324.198
324.348
324.483
324.607
324.72
324.825
324.921
325.011
325.095
325.173
325.246
325.315
325.381
325.443
325.501
325.557
325.61
325.661
325.71
325.756
325.801
325.844
325.886
325.926
325.965
326.003
326.04
326.076
326.111
326.145
326.179
326.211
326.243
326.274
326.305
326.335
326.364
326.394
326.422
326.451
326.478
326.506
326.533
326.559
326.586
326.611
326.637
326.662
326.687
326.712
326.737
326.761
326.785
326.808
326.831
326.855
326.878
326.901
326.924
326.946
326.969
326.992
327.014
327.037
327.059
327.081
327.104
327.126
327.149
327.172
327.196
327.219
327.243
327.268
327.294
327.321
327.35
327.385
327.436
327.546
327.852
321.654
322.08
322.502
322.864
323.176
323.449
323.689
323.902
324.092
324.262
324.417
324.558
324.687
324.805
324.914
325.016
325.11
325.198
325.281
325.358
325.432
325.501
325.567
325.63
325.689
325.746
325.801
325.853
325.903
325.951
325.998
326.044
326.088
326.13
326.172
326.212
326.251
326.29
326.327
326.364
326.4
326.435
326.469
326.503
326.536
326.569
326.601
326.633
326.664
326.695
326.725
326.755
326.784
326.813
326.842
326.87
326.898
326.925
326.953
326.98
327.007
327.033
327.059
327.085
327.111
327.136
327.162
327.187
327.212
327.237
327.262
327.287
327.311
327.336
327.361
327.385
327.41
327.435
327.46
327.485
327.51
327.536
327.563
327.59
327.619
327.65
327.686
327.735
327.833
328.096
322.789
323.252
323.693
324.066
324.386
324.665
324.909
325.124
325.316
325.488
325.642
325.783
325.911
326.029
326.138
326.238
326.331
326.417
326.496
326.569
326.637
326.701
326.76
326.817
326.871
326.923
326.973
327.023
327.072
327.12
327.167
327.21
327.244
327.281
327.317
327.353
327.386
327.42
327.453
327.485
327.517
327.548
327.579
327.608
327.639
327.669
327.698
327.727
327.753
327.779
327.803
327.827
327.851
327.875
327.9
327.925
327.951
327.979
328.014
328.043
328.069
328.094
328.119
328.143
328.165
328.187
328.209
328.231
328.252
328.273
328.294
328.315
328.336
328.358
328.379
328.4
328.421
328.441
328.462
328.483
328.503
328.525
328.548
328.574
328.602
328.632
328.669
328.722
328.842
329.208
322.79
323.253
323.694
324.067
324.387
324.666
324.91
325.125
325.317
325.489
325.644
325.785
325.913
326.031
326.14
326.24
326.333
326.418
326.498
326.571
326.639
326.703
326.763
326.82
326.875
326.927
326.978
327.029
327.078
327.127
327.174
327.218
327.259
327.297
327.334
327.37
327.405
327.439
327.472
327.505
327.537
327.568
327.599
327.629
327.659
327.688
327.716
327.745
327.772
327.799
327.825
327.85
327.874
327.899
327.923
327.948
327.973
327.998
328.024
328.05
328.075
328.099
328.125
328.149
328.172
328.194
328.216
328.237
328.259
328.28
328.302
328.323
328.344
328.366
328.387
328.408
328.429
328.45
328.471
328.492
328.513
328.534
328.557
328.583
328.61
328.641
328.677
328.731
328.851
329.219
322.791
323.254
323.695
324.067
324.388
324.667
324.911
325.126
325.318
325.49
325.646
325.787
325.915
326.033
326.142
326.242
326.335
326.42
326.5
326.573
326.641
326.705
326.766
326.824
326.879
326.933
326.984
327.035
327.085
327.134
327.18
327.224
327.264
327.303
327.34
327.376
327.412
327.447
327.481
327.514
327.546
327.577
327.608
327.638
327.667
327.696
327.724
327.752
327.78
327.808
327.834
327.86
327.886
327.911
327.935
327.96
327.984
328.009
328.033
328.057
328.082
328.106
328.131
328.155
328.178
328.2
328.222
328.244
328.266
328.288
328.31
328.331
328.353
328.374
328.396
328.417
328.439
328.46
328.481
328.503
328.524
328.546
328.569
328.594
328.621
328.651
328.688
328.742
328.863
329.232
322.792
323.254
323.695
324.068
324.389
324.667
324.912
325.127
325.32
325.492
325.647
325.788
325.917
326.035
326.144
326.244
326.336
326.422
326.501
326.575
326.643
326.708
326.77
326.828
326.884
326.938
326.99
327.042
327.091
327.139
327.185
327.228
327.268
327.307
327.344
327.381
327.417
327.452
327.486
327.519
327.551
327.583
327.614
327.644
327.673
327.701
327.729
327.758
327.786
327.813
327.841
327.868
327.893
327.919
327.944
327.968
327.993
328.017
328.041
328.065
328.089
328.113
328.138
328.161
328.184
328.207
328.229
328.251
328.273
328.295
328.317
328.339
328.36
328.382
328.404
328.426
328.448
328.469
328.491
328.513
328.535
328.557
328.581
328.605
328.632
328.662
328.698
328.753
328.875
329.244
322.792
323.255
323.696
324.069
324.389
324.668
324.912
325.128
325.321
325.493
325.649
325.79
325.918
326.036
326.145
326.245
326.337
326.423
326.502
326.576
326.646
326.711
326.773
326.832
326.889
326.943
326.996
327.047
327.096
327.143
327.188
327.23
327.271
327.309
327.347
327.384
327.42
327.456
327.49
327.523
327.555
327.587
327.618
327.648
327.677
327.705
327.734
327.762
327.79
327.818
327.846
327.873
327.899
327.925
327.95
327.975
328
328.024
328.048
328.072
328.096
328.119
328.143
328.167
328.19
328.213
328.235
328.257
328.28
328.302
328.324
328.346
328.368
328.39
328.412
328.434
328.456
328.479
328.501
328.523
328.546
328.569
328.592
328.617
328.644
328.674
328.71
328.764
328.887
329.258
322.792
323.255
323.696
324.069
324.39
324.669
324.913
325.129
325.321
325.494
325.649
325.79
325.919
326.037
326.146
326.246
326.338
326.424
326.503
326.578
326.648
326.714
326.776
326.836
326.893
326.947
327
327.051
327.1
327.146
327.191
327.233
327.273
327.312
327.35
327.387
327.423
327.459
327.493
327.526
327.559
327.59
327.621
327.652
327.681
327.71
327.738
327.766
327.794
327.822
327.85
327.877
327.904
327.93
327.956
327.981
328.006
328.03
328.055
328.078
328.102
328.126
328.149
328.173
328.196
328.219
328.241
328.264
328.287
328.309
328.331
328.354
328.376
328.398
328.42
328.442
328.465
328.488
328.511
328.534
328.557
328.58
328.604
328.63
328.657
328.687
328.723
328.777
328.901
329.272
322.792
323.255
323.696
324.069
324.39
324.669
324.913
325.129
325.322
325.494
325.65
325.791
325.92
326.038
326.146
326.246
326.339
326.425
326.504
326.579
326.65
326.716
326.779
326.839
326.896
326.951
327.004
327.054
327.103
327.149
327.193
327.235
327.275
327.314
327.353
327.39
327.426
327.461
327.496
327.529
327.562
327.594
327.625
327.655
327.685
327.714
327.742
327.771
327.799
327.827
327.855
327.882
327.909
327.935
327.961
327.986
328.011
328.036
328.061
328.085
328.108
328.132
328.156
328.179
328.202
328.225
328.248
328.271
328.294
328.316
328.339
328.361
328.383
328.406
328.428
328.45
328.473
328.497
328.52
328.544
328.568
328.592
328.617
328.642
328.67
328.7
328.736
328.791
328.916
329.288
322.792
323.255
323.696
324.069
324.39
324.669
324.914
325.13
325.322
325.495
325.65
325.791
325.92
326.038
326.147
326.247
326.34
326.426
326.506
326.581
326.652
326.719
326.782
326.843
326.9
326.955
327.008
327.058
327.106
327.152
327.196
327.238
327.279
327.318
327.357
327.394
327.43
327.466
327.5
327.534
327.567
327.599
327.63
327.661
327.69
327.72
327.749
327.778
327.806
327.834
327.862
327.889
327.916
327.942
327.968
327.994
328.019
328.044
328.068
328.093
328.117
328.14
328.164
328.187
328.21
328.233
328.256
328.279
328.302
328.325
328.348
328.37
328.393
328.415
328.437
328.459
328.482
328.505
328.529
328.553
328.577
328.602
328.627
328.653
328.681
328.712
328.748
328.803
328.926
329.297
322.792
323.255
323.696
324.069
324.39
324.669
324.914
325.13
325.323
325.496
325.651
325.793
325.922
326.04
326.149
326.249
326.342
326.429
326.51
326.585
326.657
326.724
326.788
326.849
326.906
326.962
327.014
327.064
327.112
327.158
327.202
327.245
327.286
327.326
327.365
327.403
327.439
327.475
327.51
327.544
327.577
327.609
327.641
327.672
327.702
327.732
327.762
327.791
327.819
327.847
327.875
327.902
327.929
327.956
327.982
328.008
328.033
328.059
328.083
328.108
328.132
328.156
328.179
328.203
328.226
328.249
328.272
328.295
328.318
328.341
328.364
328.386
328.409
328.431
328.453
328.476
328.498
328.521
328.545
328.569
328.593
328.617
328.642
328.669
328.697
328.727
328.763
328.816
328.936
329.3
322.793
323.257
323.699
324.073
324.395
324.675
324.921
325.139
325.332
325.506
325.663
325.806
325.936
326.055
326.165
326.267
326.361
326.449
326.531
326.609
326.681
326.75
326.815
326.877
326.935
326.991
327.045
327.096
327.145
327.192
327.237
327.281
327.323
327.364
327.404
327.443
327.481
327.517
327.553
327.588
327.622
327.656
327.689
327.721
327.752
327.783
327.813
327.843
327.873
327.902
327.931
327.959
327.986
328.014
328.041
328.067
328.094
328.12
328.145
328.171
328.196
328.22
328.245
328.269
328.293
328.317
328.341
328.364
328.388
328.411
328.434
328.458
328.48
328.503
328.526
328.549
328.572
328.595
328.619
328.643
328.668
328.692
328.718
328.744
328.772
328.803
328.839
328.889
329
329.346
322.801
323.272
323.723
324.105
324.434
324.722
324.974
325.199
325.399
325.579
325.742
325.891
326.027
326.152
326.267
326.374
326.474
326.567
326.654
326.736
326.814
326.887
326.957
327.023
327.086
327.146
327.204
327.259
327.312
327.363
327.413
327.461
327.507
327.552
327.596
327.639
327.68
327.721
327.76
327.799
327.837
327.874
327.91
327.946
327.981
328.015
328.049
328.083
328.116
328.148
328.18
328.211
328.242
328.272
328.302
328.332
328.362
328.391
328.419
328.448
328.476
328.503
328.531
328.558
328.584
328.611
328.637
328.664
328.69
328.716
328.742
328.767
328.793
328.818
328.843
328.869
328.894
328.92
328.946
328.972
328.998
329.025
329.052
329.081
329.111
329.143
329.18
329.229
329.327
329.623
)
;

boundaryField
{
    inlet
    {
        type            zeroGradient;
    }
    outlet
    {
        type            zeroGradient;
    }
    side
    {
        type            zeroGradient;
    }
    asphalt_to_soil1
    {
        type            compressible::turbulentTemperatureRadCoupledMixed;
        refValue        nonuniform List<scalar> 
990
(
320.476
320.854
321.24
321.573
321.861
322.11
322.328
322.521
322.692
322.846
322.985
323.111
323.227
323.332
323.43
323.519
323.603
323.68
323.751
323.816
323.877
323.934
323.987
324.038
324.086
324.133
324.178
324.222
324.266
324.309
324.351
324.387
324.408
324.438
324.47
324.501
324.531
324.561
324.591
324.62
324.648
324.676
324.704
324.73
324.758
324.785
324.811
324.837
324.861
324.884
324.906
324.927
324.949
324.971
324.993
325.016
325.04
325.069
325.11
325.139
325.164
325.187
325.209
325.231
325.252
325.272
325.292
325.312
325.331
325.351
325.37
325.389
325.409
325.428
325.448
325.467
325.486
325.505
325.524
325.543
325.563
325.583
325.604
325.627
325.652
325.681
325.715
325.767
325.88
326.163
320.479
320.857
321.243
321.576
321.864
322.113
322.332
322.525
322.697
322.851
322.99
323.117
323.232
323.338
323.435
323.525
323.608
323.685
323.756
323.822
323.883
323.94
323.993
324.045
324.094
324.141
324.187
324.232
324.276
324.32
324.362
324.401
324.436
324.47
324.502
324.534
324.566
324.596
324.626
324.656
324.684
324.713
324.74
324.767
324.794
324.82
324.846
324.871
324.896
324.92
324.943
324.966
324.988
325.011
325.033
325.055
325.078
325.102
325.127
325.151
325.174
325.197
325.22
325.242
325.262
325.283
325.303
325.323
325.343
325.362
325.382
325.401
325.421
325.441
325.46
325.48
325.499
325.518
325.537
325.556
325.575
325.595
325.616
325.638
325.663
325.691
325.725
325.777
325.891
326.175
320.481
320.858
321.244
321.578
321.866
322.116
322.335
322.528
322.7
322.855
322.994
323.121
323.236
323.342
323.439
323.529
323.612
323.689
323.76
323.826
323.887
323.944
323.999
324.05
324.1
324.148
324.195
324.24
324.285
324.328
324.37
324.409
324.445
324.48
324.513
324.546
324.578
324.609
324.639
324.669
324.698
324.726
324.754
324.781
324.807
324.833
324.858
324.884
324.909
324.934
324.958
324.981
325.004
325.027
325.049
325.072
325.094
325.117
325.139
325.161
325.184
325.206
325.229
325.25
325.271
325.292
325.312
325.332
325.353
325.373
325.392
325.412
325.432
325.452
325.472
325.491
325.511
325.531
325.55
325.569
325.589
325.609
325.629
325.651
325.675
325.703
325.737
325.789
325.904
326.19
320.482
320.86
321.246
321.579
321.867
322.117
322.337
322.53
322.703
322.857
322.997
323.124
323.239
323.345
323.442
323.532
323.615
323.692
323.763
323.829
323.89
323.948
324.003
324.056
324.106
324.155
324.202
324.247
324.292
324.335
324.376
324.414
324.451
324.485
324.519
324.552
324.584
324.616
324.646
324.676
324.705
324.734
324.761
324.789
324.815
324.84
324.866
324.891
324.916
324.942
324.966
324.991
325.014
325.037
325.06
325.082
325.105
325.127
325.149
325.17
325.192
325.214
325.237
325.258
325.279
325.3
325.32
325.341
325.361
325.382
325.402
325.422
325.442
325.462
325.482
325.502
325.522
325.542
325.562
325.582
325.602
325.622
325.643
325.665
325.689
325.716
325.75
325.802
325.917
326.204
320.483
320.861
321.247
321.58
321.868
322.119
322.338
322.532
322.705
322.86
322.999
323.126
323.241
323.347
323.445
323.534
323.617
323.694
323.765
323.832
323.894
323.952
324.008
324.061
324.112
324.16
324.208
324.254
324.298
324.34
324.38
324.418
324.455
324.489
324.523
324.556
324.589
324.621
324.651
324.681
324.71
324.739
324.767
324.794
324.82
324.846
324.871
324.897
324.922
324.948
324.973
324.997
325.021
325.045
325.068
325.09
325.113
325.135
325.157
325.179
325.2
325.222
325.244
325.266
325.287
325.307
325.328
325.349
325.37
325.39
325.411
325.431
325.451
325.471
325.491
325.512
325.532
325.552
325.573
325.594
325.614
325.635
325.656
325.679
325.703
325.73
325.764
325.816
325.932
326.22
320.484
320.861
321.248
321.581
321.87
322.12
322.34
322.534
322.707
322.861
323.001
323.128
323.243
323.349
323.446
323.536
323.619
323.696
323.768
323.834
323.897
323.956
324.012
324.066
324.117
324.166
324.213
324.259
324.303
324.344
324.384
324.422
324.458
324.493
324.527
324.56
324.593
324.625
324.656
324.686
324.715
324.744
324.772
324.799
324.825
324.851
324.877
324.903
324.928
324.954
324.979
325.003
325.028
325.051
325.075
325.098
325.12
325.143
325.165
325.187
325.208
325.23
325.252
325.273
325.294
325.315
325.336
325.357
325.378
325.399
325.42
325.44
325.461
325.481
325.501
325.522
325.543
325.564
325.585
325.606
325.627
325.649
325.67
325.693
325.718
325.745
325.779
325.832
325.949
326.238
320.484
320.862
321.248
321.582
321.87
322.121
322.341
322.535
322.708
322.863
323.003
323.129
323.245
323.351
323.448
323.538
323.621
323.698
323.77
323.837
323.9
323.96
324.016
324.07
324.121
324.171
324.218
324.263
324.307
324.348
324.388
324.425
324.462
324.497
324.531
324.565
324.597
324.629
324.66
324.69
324.72
324.748
324.777
324.804
324.831
324.857
324.883
324.909
324.934
324.96
324.985
325.01
325.034
325.058
325.081
325.105
325.128
325.15
325.173
325.195
325.216
325.238
325.26
325.281
325.302
325.324
325.345
325.366
325.387
325.408
325.429
325.45
325.47
325.491
325.512
325.533
325.554
325.575
325.597
325.619
325.641
325.663
325.685
325.708
325.733
325.761
325.795
325.849
325.966
326.257
320.485
320.863
321.249
321.583
321.871
322.122
322.342
322.536
322.709
322.864
323.004
323.131
323.246
323.352
323.45
323.54
323.623
323.7
323.773
323.84
323.904
323.964
324.021
324.075
324.126
324.176
324.223
324.268
324.311
324.353
324.392
324.43
324.467
324.502
324.537
324.57
324.603
324.635
324.666
324.696
324.726
324.755
324.783
324.811
324.838
324.865
324.891
324.917
324.943
324.968
324.993
325.018
325.042
325.066
325.09
325.113
325.137
325.16
325.182
325.204
325.226
325.248
325.27
325.291
325.313
325.334
325.355
325.377
325.398
325.419
325.44
325.461
325.482
325.503
325.524
325.545
325.566
325.588
325.61
325.632
325.654
325.677
325.7
325.724
325.749
325.777
325.811
325.865
325.982
326.272
320.485
320.863
321.249
321.584
321.872
322.123
322.343
322.538
322.711
322.867
323.007
323.134
323.25
323.356
323.454
323.544
323.628
323.706
323.778
323.846
323.911
323.971
324.029
324.083
324.135
324.185
324.232
324.277
324.32
324.362
324.401
324.44
324.477
324.513
324.548
324.582
324.615
324.647
324.679
324.709
324.739
324.768
324.797
324.825
324.853
324.88
324.906
324.933
324.959
324.984
325.01
325.035
325.059
325.083
325.107
325.131
325.155
325.178
325.2
325.223
325.245
325.267
325.289
325.311
325.332
325.354
325.375
325.397
325.418
325.44
325.461
325.482
325.503
325.524
325.545
325.566
325.587
325.609
325.631
325.653
325.676
325.699
325.722
325.746
325.772
325.8
325.834
325.886
326.001
326.286
320.486
320.865
321.253
321.588
321.878
322.131
322.352
322.548
322.722
322.879
323.02
323.149
323.266
323.373
323.472
323.564
323.649
323.728
323.802
323.872
323.937
323.999
324.057
324.113
324.166
324.216
324.265
324.311
324.355
324.397
324.438
324.478
324.516
324.553
324.589
324.624
324.658
324.691
324.724
324.756
324.787
324.817
324.846
324.876
324.904
324.932
324.96
324.987
325.014
325.041
325.067
325.093
325.118
325.143
325.168
325.192
325.216
325.24
325.264
325.288
325.311
325.333
325.356
325.378
325.401
325.423
325.445
325.467
325.489
325.511
325.533
325.555
325.577
325.598
325.62
325.641
325.663
325.685
325.708
325.73
325.753
325.777
325.8
325.825
325.851
325.879
325.913
325.963
326.071
326.341
320.492
320.877
321.271
321.613
321.908
322.166
322.393
322.594
322.774
322.935
323.081
323.214
323.336
323.448
323.551
323.646
323.735
323.819
323.897
323.97
324.039
324.105
324.167
324.226
324.282
324.336
324.387
324.436
324.484
324.529
324.573
324.616
324.658
324.698
324.737
324.775
324.812
324.848
324.883
324.918
324.952
324.985
325.017
325.049
325.081
325.112
325.142
325.172
325.202
325.231
325.259
325.287
325.315
325.343
325.37
325.397
325.423
325.45
325.476
325.501
325.527
325.552
325.577
325.601
325.626
325.65
325.675
325.699
325.723
325.747
325.771
325.795
325.818
325.842
325.865
325.889
325.913
325.937
325.961
325.985
326.01
326.034
326.06
326.086
326.113
326.143
326.177
326.226
326.322
326.557
)
;
        refGradient     uniform 0;
        valueFraction   nonuniform List<scalar> 
990
(
0.495766
0.495766
0.495766
0.495766
0.495766
0.495766
0.495766
0.495766
0.495766
0.495766
0.495766
0.495766
0.495766
0.495766
0.495766
0.495766
0.495766
0.495766
0.495766
0.495766
0.495766
0.495766
0.495766
0.495766
0.495766
0.495766
0.495766
0.495766
0.495766
0.495766
0.495766
0.495766
0.495766
0.495766
0.495766
0.495766
0.495766
0.495766
0.495766
0.495766
0.495766
0.495766
0.495766
0.495766
0.495766
0.495766
0.495766
0.495766
0.495766
0.495766
0.495766
0.495766
0.495766
0.495766
0.495766
0.495766
0.495766
0.495766
0.495766
0.495766
0.495766
0.495766
0.495766
0.495766
0.495766
0.495766
0.495766
0.495766
0.495766
0.495766
0.495766
0.495766
0.495766
0.495766
0.495766
0.495766
0.495766
0.495766
0.495766
0.495766
0.495766
0.495766
0.495766
0.495766
0.495766
0.495766
0.495766
0.495766
0.495766
0.495766
0.495766
0.495766
0.495766
0.495766
0.495766
0.495766
0.495766
0.495766
0.495766
0.495766
0.495766
0.495766
0.495766
0.495766
0.495766
0.495766
0.495766
0.495766
0.495766
0.495766
0.495766
0.495766
0.495766
0.495766
0.495766
0.495766
0.495766
0.495766
0.495766
0.495766
0.495766
0.495766
0.495766
0.495766
0.495766
0.495766
0.495766
0.495766
0.495766
0.495766
0.495766
0.495766
0.495766
0.495766
0.495766
0.495766
0.495766
0.495766
0.495766
0.495766
0.495766
0.495766
0.495766
0.495766
0.495766
0.495766
0.495766
0.495766
0.495766
0.495766
0.495766
0.495766
0.495766
0.495766
0.495766
0.495766
0.495766
0.495766
0.495766
0.495766
0.495766
0.495766
0.495766
0.495766
0.495766
0.495766
0.495766
0.495766
0.495766
0.495766
0.495766
0.495766
0.495766
0.495766
0.495766
0.495766
0.495766
0.495766
0.495766
0.495766
0.495766
0.495766
0.495766
0.495766
0.495766
0.495766
0.495766
0.495766
0.495766
0.495766
0.495766
0.495766
0.495766
0.495766
0.495766
0.495766
0.495766
0.495766
0.495766
0.495766
0.495766
0.495766
0.495766
0.495766
0.495766
0.495766
0.495766
0.495766
0.495766
0.495766
0.495766
0.495766
0.495766
0.495766
0.495766
0.495766
0.495766
0.495766
0.495766
0.495766
0.495766
0.495766
0.495766
0.495766
0.495766
0.495766
0.495766
0.495766
0.495766
0.495766
0.495766
0.495766
0.495766
0.495766
0.495766
0.495766
0.495766
0.495766
0.495766
0.495766
0.495766
0.495766
0.495766
0.495766
0.495766
0.495766
0.495766
0.495766
0.495766
0.495766
0.495766
0.495766
0.495766
0.495766
0.495766
0.495766
0.495766
0.495766
0.495766
0.495766
0.495766
0.495766
0.495766
0.495766
0.495766
0.495766
0.495766
0.495766
0.495766
0.495766
0.495766
0.495766
0.495766
0.495766
0.495766
0.495766
0.495766
0.495766
0.495766
0.495766
0.495766
0.495766
0.495766
0.495766
0.495766
0.495766
0.495766
0.495766
0.495766
0.495766
0.495766
0.495766
0.495766
0.495766
0.495766
0.495766
0.495766
0.495766
0.495766
0.495766
0.495766
0.495766
0.495766
0.495766
0.495766
0.495766
0.495766
0.495766
0.495766
0.495766
0.495766
0.495766
0.495766
0.495766
0.495766
0.495766
0.495766
0.495766
0.495766
0.495766
0.495766
0.495766
0.495766
0.495766
0.495766
0.495766
0.495766
0.495766
0.495766
0.495766
0.495766
0.495766
0.495766
0.495766
0.495766
0.495766
0.495766
0.495766
0.495766
0.495766
0.495766
0.495766
0.495766
0.495766
0.495766
0.495766
0.495766
0.495766
0.495766
0.495766
0.495766
0.495766
0.495766
0.495766
0.495766
0.495766
0.495766
0.495766
0.495766
0.495766
0.495766
0.495766
0.495766
0.495766
0.495766
0.495766
0.495766
0.495766
0.495766
0.495766
0.495766
0.495766
0.495766
0.495766
0.495766
0.495766
0.495766
0.495766
0.495766
0.495766
0.495766
0.495766
0.495766
0.495766
0.495766
0.495766
0.495766
0.495766
0.495766
0.495766
0.495766
0.495766
0.495766
0.495766
0.495766
0.495766
0.495766
0.495766
0.495766
0.495766
0.495766
0.495766
0.495766
0.495766
0.495766
0.495766
0.495766
0.495766
0.495766
0.495766
0.495766
0.495766
0.495766
0.495766
0.495766
0.495766
0.495766
0.495766
0.495766
0.495766
0.495766
0.495766
0.495766
0.495766
0.495766
0.495766
0.495766
0.495766
0.495766
0.495766
0.495766
0.495766
0.495766
0.495766
0.495766
0.495766
0.495766
0.495766
0.495766
0.495766
0.495766
0.495766
0.495766
0.495766
0.495766
0.495766
0.495766
0.495766
0.495766
0.495766
0.495766
0.495766
0.495766
0.495766
0.495766
0.495766
0.495766
0.495766
0.495766
0.495766
0.495766
0.495766
0.495766
0.495766
0.495766
0.495766
0.495766
0.495766
0.495766
0.495766
0.495766
0.495766
0.495766
0.495766
0.495766
0.495766
0.495766
0.495766
0.495766
0.495766
0.495766
0.495766
0.495766
0.495766
0.495766
0.495766
0.495766
0.495766
0.495766
0.495766
0.495766
0.495766
0.495766
0.495766
0.495766
0.495766
0.495766
0.495766
0.495766
0.495766
0.495766
0.495766
0.495766
0.495766
0.495766
0.495766
0.495766
0.495766
0.495766
0.495766
0.495766
0.495766
0.495766
0.495766
0.495766
0.495766
0.495766
0.495766
0.495766
0.495766
0.495766
0.495766
0.495766
0.495766
0.495766
0.495766
0.495766
0.495766
0.495766
0.495766
0.495766
0.495766
0.495766
0.495766
0.495766
0.495766
0.495766
0.495766
0.495766
0.495766
0.495766
0.495766
0.495766
0.495766
0.495766
0.495766
0.495766
0.495766
0.495766
0.495766
0.495766
0.495766
0.495766
0.495766
0.495766
0.495766
0.495766
0.495766
0.495766
0.495766
0.495766
0.495766
0.495766
0.495766
0.495766
0.495766
0.495766
0.495766
0.495766
0.495766
0.495766
0.495766
0.495766
0.495766
0.495766
0.495766
0.495766
0.495766
0.495766
0.495766
0.495766
0.495766
0.495766
0.495766
0.495766
0.495766