/*--------------------------------*- C++ -*----------------------------------*\
| =========                 |                                                 |
| \\      /  F ield         | OpenFOAM: The Open Source CFD Toolbox           |
|  \\    /   O peration     | Version:  v2012                                 |
|   \\  /    A nd           | Website:  www.openfoam.com                      |
|    \\/     M anipulation  |                                                 |
\*---------------------------------------------------------------------------*/
FoamFile
{
    version     2.0;
    format      ascii;
    class       volScalarField;
    location    "200/soil1";
    object      T;
}
// * * * * * * * * * * * * * * * * * * * * * * * * * * * * * * * * * * * * * //

dimensions      [0 0 0 1 0 0 0];


internalField   nonuniform List<scalar> 
57600
(
302.904
302.942
302.987
303.023
303.049
303.066
303.078
303.088
303.097
303.107
303.12
303.134
303.149
303.164
303.178
303.191
303.203
303.214
303.224
303.234
303.243
303.252
303.26
303.268
303.275
303.283
303.289
303.296
303.302
303.308
303.313
303.319
303.325
303.33
303.336
303.341
303.346
303.351
303.356
303.361
303.366
303.371
303.376
303.38
303.385
303.39
303.395
303.399
303.404
303.409
303.413
303.417
303.422
303.426
303.43
303.435
303.439
303.443
303.448
303.452
303.457
303.462
303.466
303.471
303.476
303.481
303.486
303.491
303.495
303.5
303.504
303.508
303.511
303.514
303.516
303.519
303.523
303.528
303.537
303.55
303.568
303.591
303.617
303.644
303.67
303.691
303.708
303.726
303.75
303.78
302.883
302.92
302.964
303
303.025
303.041
303.052
303.061
303.069
303.079
303.091
303.105
303.12
303.134
303.147
303.16
303.171
303.182
303.192
303.202
303.211
303.219
303.227
303.234
303.241
303.248
303.254
303.26
303.266
303.272
303.277
303.283
303.288
303.294
303.299
303.304
303.309
303.314
303.318
303.323
303.327
303.332
303.337
303.341
303.346
303.35
303.355
303.359
303.363
303.368
303.372
303.376
303.38
303.384
303.388
303.392
303.396
303.401
303.405
303.409
303.413
303.418
303.422
303.427
303.431
303.436
303.441
303.446
303.45
303.455
303.459
303.462
303.466
303.468
303.471
303.473
303.476
303.482
303.49
303.503
303.521
303.544
303.57
303.597
303.623
303.644
303.661
303.679
303.704
303.735
302.855
302.892
302.935
302.969
302.993
303.009
303.019
303.027
303.035
303.045
303.056
303.07
303.084
303.098
303.111
303.123
303.134
303.145
303.154
303.163
303.172
303.18
303.188
303.195
303.202
303.208
303.214
303.22
303.225
303.231
303.236
303.242
303.247
303.252
303.257
303.262
303.266
303.271
303.275
303.28
303.284
303.288
303.293
303.297
303.302
303.306
303.31
303.314
303.318
303.322
303.326
303.33
303.334
303.338
303.342
303.346
303.35
303.353
303.357
303.361
303.365
303.37
303.374
303.378
303.383
303.387
303.392
303.396
303.401
303.405
303.409
303.413
303.416
303.418
303.42
303.423
303.426
303.431
303.439
303.452
303.469
303.492
303.518
303.545
303.571
303.592
303.61
303.627
303.653
303.683
302.826
302.862
302.904
302.938
302.961
302.976
302.986
302.993
303
303.009
303.021
303.034
303.048
303.061
303.074
303.086
303.097
303.107
303.116
303.125
303.134
303.142
303.149
303.156
303.163
303.169
303.175
303.18
303.186
303.191
303.196
303.201
303.206
303.211
303.216
303.221
303.225
303.23
303.234
303.238
303.242
303.247
303.251
303.255
303.259
303.263
303.267
303.271
303.275
303.279
303.283
303.287
303.291
303.294
303.298
303.302
303.305
303.309
303.313
303.317
303.321
303.325
303.329
303.333
303.337
303.342
303.346
303.351
303.355
303.359
303.363
303.366
303.369
303.371
303.373
303.375
303.378
303.383
303.391
303.404
303.422
303.444
303.47
303.497
303.523
303.544
303.561
303.579
303.604
303.634
302.796
302.832
302.873
302.906
302.928
302.943
302.952
302.959
302.966
302.974
302.985
302.998
303.012
303.025
303.037
303.049
303.06
303.07
303.079
303.088
303.096
303.104
303.111
303.118
303.124
303.131
303.136
303.142
303.147
303.152
303.157
303.162
303.167
303.172
303.177
303.181
303.186
303.19
303.194
303.198
303.202
303.206
303.21
303.214
303.218
303.222
303.226
303.23
303.234
303.238
303.242
303.245
303.249
303.252
303.256
303.259
303.263
303.266
303.27
303.274
303.277
303.281
303.285
303.289
303.294
303.298
303.302
303.306
303.311
303.315
303.318
303.321
303.324
303.326
303.328
303.33
303.333
303.338
303.346
303.358
303.376
303.398
303.424
303.451
303.476
303.498
303.515
303.532
303.557
303.586
302.767
302.802
302.842
302.874
302.896
302.91
302.919
302.925
302.932
302.94
302.95
302.963
302.976
302.989
303.001
303.013
303.023
303.033
303.042
303.051
303.059
303.066
303.074
303.08
303.087
303.093
303.099
303.104
303.11
303.115
303.12
303.125
303.129
303.134
303.138
303.142
303.147
303.151
303.155
303.159
303.163
303.167
303.171
303.174
303.178
303.182
303.186
303.19
303.193
303.197
303.2
303.204
303.207
303.211
303.214
303.217
303.221
303.224
303.227
303.231
303.234
303.238
303.242
303.246
303.25
303.254
303.258
303.262
303.266
303.27
303.274
303.277
303.279
303.281
303.283
303.285
303.288
303.292
303.3
303.313
303.33
303.352
303.378
303.405
303.431
303.452
303.469
303.486
303.51
303.539
302.738
302.772
302.812
302.843
302.865
302.878
302.886
302.892
302.898
302.905
302.915
302.927
302.939
302.952
302.964
302.975
302.986
302.996
303.005
303.013
303.021
303.029
303.036
303.043
303.049
303.055
303.061
303.067
303.073
303.078
303.084
303.088
303.092
303.096
303.1
303.104
303.108
303.112
303.116
303.119
303.123
303.127
303.131
303.134
303.138
303.142
303.145
303.149
303.152
303.156
303.159
303.162
303.165
303.168
303.171
303.174
303.177
303.18
303.184
303.187
303.19
303.194
303.197
303.201
303.204
303.208
303.212
303.216
303.22
303.223
303.227
303.23
303.232
303.234
303.236
303.237
303.24
303.245
303.253
303.265
303.283
303.305
303.331
303.358
303.383
303.405
303.422
303.439
303.463
303.491
302.71
302.743
302.782
302.813
302.833
302.846
302.854
302.859
302.864
302.87
302.877
302.886
302.898
302.91
302.922
302.934
302.945
302.955
302.964
302.973
302.981
302.989
302.996
303.003
303.009
303.016
303.022
303.028
303.034
303.041
303.046
303.051
303.054
303.057
303.06
303.064
303.067
303.071
303.075
303.078
303.082
303.085
303.089
303.092
303.095
303.099
303.102
303.105
303.108
303.111
303.114
303.117
303.12
303.122
303.125
303.128
303.13
303.133
303.136
303.138
303.141
303.144
303.148
303.151
303.154
303.158
303.161
303.165
303.169
303.172
303.175
303.178
303.18
303.182
303.183
303.185
303.187
303.192
303.2
303.212
303.231
303.254
303.281
303.308
303.334
303.355
303.372
303.389
303.413
303.44
302.682
302.715
302.753
302.783
302.803
302.815
302.822
302.826
302.829
302.829
302.826
302.829
302.838
302.849
302.862
302.875
302.888
302.899
302.91
302.921
302.93
302.939
302.947
302.955
302.961
302.968
302.974
302.981
302.988
302.995
303.002
303.006
303.009
303.011
303.013
303.016
303.019
303.022
303.025
303.028
303.031
303.035
303.038
303.041
303.044
303.047
303.05
303.053
303.055
303.058
303.06
303.063
303.065
303.068
303.07
303.072
303.074
303.077
303.079
303.081
303.084
303.086
303.089
303.092
303.095
303.099
303.102
303.105
303.109
303.112
303.115
303.117
303.119
303.121
303.122
303.123
303.126
303.13
303.138
303.152
303.174
303.2
303.229
303.259
303.285
303.307
303.325
303.342
303.366
303.393
302.654
302.686
302.724
302.753
302.772
302.784
302.79
302.793
302.79
302.775
302.74
302.723
302.725
302.737
302.753
302.77
302.787
302.804
302.819
302.834
302.846
302.858
302.869
302.878
302.886
302.893
302.899
302.907
302.914
302.922
302.929
302.935
302.937
302.939
302.939
302.94
302.942
302.945
302.948
302.95
302.954
302.957
302.96
302.963
302.966
302.969
302.971
302.974
302.977
302.979
302.982
302.984
302.986
302.988
302.991
302.993
302.995
302.997
302.999
303.001
303.003
303.006
303.008
303.011
303.014
303.017
303.021
303.024
303.027
303.03
303.033
303.035
303.037
303.039
303.04
303.041
303.044
303.048
303.058
303.076
303.108
303.145
303.182
303.216
303.247
303.271
303.29
303.309
303.334
303.362
302.627
302.659
302.695
302.724
302.743
302.753
302.759
302.759
302.748
302.704
302.596
302.541
302.534
302.549
302.574
302.601
302.628
302.653
302.675
302.696
302.714
302.73
302.743
302.755
302.764
302.771
302.778
302.785
302.792
302.8
302.807
302.812
302.814
302.814
302.813
302.813
302.813
302.815
302.817
302.819
302.822
302.826
302.829
302.832
302.835
302.838
302.842
302.845
302.848
302.851
302.853
302.856
302.859
302.862
302.864
302.867
302.869
302.872
302.874
302.876
302.879
302.882
302.884
302.887
302.89
302.894
302.897
302.9
302.904
302.907
302.91
302.913
302.915
302.917
302.918
302.92
302.922
302.927
302.938
302.964
303.019
303.079
303.133
303.179
303.217
303.246
303.269
303.29
303.317
303.348
302.6
302.631
302.667
302.695
302.713
302.723
302.728
302.727
302.711
302.653
302.517
302.446
302.434
302.451
302.479
302.511
302.541
302.57
302.596
302.619
302.639
302.657
302.672
302.684
302.694
302.702
302.708
302.714
302.721
302.729
302.736
302.742
302.745
302.744
302.742
302.74
302.739
302.739
302.741
302.744
302.747
302.751
302.756
302.759
302.762
302.767
302.771
302.775
302.779
302.783
302.787
302.791
302.794
302.798
302.802
302.805
302.809
302.812
302.815
302.819
302.822
302.825
302.829
302.832
302.836
302.84
302.843
302.847
302.851
302.855
302.858
302.861
302.863
302.865
302.867
302.869
302.871
302.876
302.888
302.917
302.978
303.043
303.1
303.148
303.187
303.218
303.241
303.263
303.291
303.323
302.574
302.604
302.64
302.667
302.684
302.694
302.698
302.696
302.679
302.617
302.475
302.4
302.386
302.403
302.432
302.464
302.495
302.525
302.551
302.575
302.596
302.614
302.63
302.642
302.652
302.66
302.666
302.671
302.678
302.685
302.693
302.699
302.702
302.702
302.699
302.696
302.694
302.693
302.693
302.696
302.699
302.703
302.708
302.711
302.715
302.719
302.723
302.727
302.731
302.736
302.74
302.744
302.748
302.752
302.756
302.76
302.763
302.767
302.77
302.774
302.777
302.78
302.784
302.787
302.791
302.795
302.799
302.803
302.806
302.81
302.813
302.816
302.818
302.82
302.821
302.823
302.825
302.83
302.841
302.869
302.929
302.993
303.049
303.095
303.133
303.163
303.186
303.208
303.236
303.268
302.548
302.578
302.612
302.639
302.656
302.665
302.668
302.666
302.648
302.586
302.444
302.369
302.356
302.372
302.401
302.432
302.463
302.492
302.519
302.543
302.564
302.582
302.597
302.609
302.619
302.627
302.633
302.638
302.644
302.651
302.658
302.665
302.669
302.669
302.667
302.663
302.66
302.657
302.657
302.659
302.662
302.666
302.671
302.674
302.677
302.681
302.685
302.689
302.693
302.697
302.701
302.705
302.709
302.713
302.716
302.72
302.723
302.726
302.729
302.732
302.735
302.737
302.74
302.743
302.746
302.749
302.753
302.756
302.759
302.762
302.764
302.767
302.768
302.77
302.771
302.771
302.773
302.777
302.788
302.815
302.873
302.935
302.989
303.036
303.074
303.103
303.127
303.149
303.178
303.209
302.522
302.552
302.586
302.612
302.628
302.636
302.639
302.637
302.619
302.557
302.417
302.343
302.33
302.346
302.374
302.405
302.436
302.464
302.491
302.514
302.534
302.552
302.567
302.579
302.589
302.597
302.603
302.608
302.614
302.62
302.627
302.633
302.638
302.639
302.638
302.634
302.63
302.626
302.625
302.626
302.629
302.634
302.638
302.641
302.644
302.648
302.652
302.656
302.66
302.664
302.668
302.672
302.675
302.679
302.682
302.685
302.688
302.691
302.694
302.696
302.698
302.701
302.703
302.705
302.708
302.711
302.713
302.716
302.719
302.721
302.724
302.726
302.727
302.728
302.729
302.729
302.731
302.735
302.745
302.771
302.828
302.889
302.944
302.99
303.028
303.058
303.081
303.104
303.132
303.163
302.497
302.526
302.559
302.585
302.6
302.608
302.611
302.608
302.59
302.529
302.392
302.319
302.305
302.321
302.349
302.38
302.41
302.438
302.464
302.487
302.506
302.524
302.538
302.55
302.56
302.568
302.574
302.58
302.585
302.591
302.597
302.603
302.608
302.61
302.609
302.606
302.602
302.597
302.594
302.594
302.598
302.602
302.607
302.61
302.613
302.617
302.621
302.626
302.63
302.634
302.638
302.642
302.645
302.649
302.652
302.655
302.658
302.66
302.663
302.665
302.667
302.669
302.672
302.674
302.676
302.679
302.681
302.684
302.686
302.689
302.691
302.693
302.694
302.695
302.695
302.696
302.697
302.701
302.711
302.737
302.793
302.854
302.908
302.954
302.992
303.022
303.045
303.067
303.095
303.125
302.473
302.501
302.533
302.558
302.573
302.581
302.583
302.579
302.562
302.502
302.367
302.296
302.283
302.298
302.325
302.356
302.386
302.414
302.439
302.461
302.48
302.496
302.51
302.521
302.531
302.539
302.546
302.552
302.558
302.563
302.568
302.573
302.577
302.58
302.58
302.578
302.574
302.568
302.563
302.563
302.566
302.571
302.577
302.58
302.583
302.587
302.592
302.597
302.602
302.607
302.611
302.614
302.617
302.621
302.624
302.628
302.631
302.633
302.636
302.638
302.64
302.642
302.644
302.647
302.649
302.651
302.654
302.657
302.659
302.661
302.664
302.665
302.666
302.667
302.668
302.668
302.67
302.673
302.683
302.709
302.765
302.824
302.878
302.924
302.961
302.991
303.015
303.037
303.064
303.094
302.448
302.476
302.508
302.532
302.546
302.553
302.555
302.552
302.535
302.477
302.345
302.276
302.264
302.279
302.306
302.336
302.365
302.393
302.418
302.439
302.457
302.472
302.484
302.494
302.503
302.511
302.518
302.525
302.531
302.535
302.54
302.544
302.547
302.55
302.55
302.549
302.545
302.539
302.533
302.532
302.535
302.54
302.546
302.55
302.554
302.559
302.565
302.571
302.577
302.581
302.585
302.589
302.592
302.596
302.6
302.603
302.606
302.609
302.612
302.614
302.616
302.619
302.621
302.623
302.625
302.628
302.631
302.633
302.636
302.638
302.64
302.642
302.643
302.644
302.645
302.645
302.646
302.65
302.66
302.686
302.741
302.801
302.854
302.899
302.937
302.967
302.99
303.011
303.038
303.067
302.424
302.451
302.483
302.506
302.52
302.527
302.528
302.525
302.509
302.456
302.334
302.27
302.259
302.274
302.3
302.328
302.356
302.383
302.406
302.426
302.442
302.454
302.464
302.472
302.48
302.487
302.494
302.501
302.507
302.512
302.516
302.519
302.521
302.523
302.524
302.523
302.52
302.514
302.508
302.506
302.508
302.513
302.52
302.524
302.529
302.535
302.543
302.55
302.557
302.562
302.566
302.57
302.574
302.578
302.582
302.585
302.589
302.592
302.595
302.597
302.599
302.602
302.604
302.606
302.608
302.611
302.614
302.616
302.619
302.621
302.623
302.625
302.626
302.627
302.627
302.628
302.629
302.633
302.642
302.668
302.722
302.78
302.833
302.878
302.915
302.944
302.967
302.987
303.013
303.042
302.401
302.427
302.458
302.481
302.494
302.5
302.502
302.499
302.487
302.447
302.352
302.304
302.298
302.312
302.333
302.357
302.381
302.404
302.424
302.441
302.453
302.462
302.468
302.473
302.478
302.484
302.491
302.498
302.505
302.511
302.515
302.518
302.521
302.522
302.523
302.524
302.523
302.519
302.514
302.512
302.512
302.516
302.52
302.524
302.528
302.535
302.544
302.552
302.559
302.564
302.569
302.573
302.577
302.581
302.585
302.589
302.592
302.595
302.598
302.6
302.602
302.604
302.606
302.608
302.61
302.613
302.615
302.617
302.62
302.622
302.624
302.626
302.627
302.627
302.628
302.628
302.629
302.633
302.642
302.664
302.713
302.765
302.814
302.856
302.892
302.919
302.941
302.96
302.985
303.012
302.378
302.403
302.433
302.456
302.468
302.474
302.476
302.474
302.469
302.454
302.424
302.41
302.412
302.422
302.436
302.452
302.468
302.484
302.499
302.512
302.52
302.525
302.528
302.531
302.535
302.54
302.548
302.557
302.566
302.574
302.581
302.585
302.589
302.591
302.594
302.597
302.601
302.601
302.6
302.598
302.596
302.595
302.594
302.593
302.593
302.597
302.603
302.609
302.612
302.615
302.617
302.619
302.622
302.626
302.629
302.633
302.636
302.639
302.642
302.644
302.647
302.649
302.652
302.654
302.656
302.659
302.662
302.665
302.668
302.671
302.673
302.675
302.677
302.677
302.678
302.679
302.681
302.684
302.693
302.709
302.738
302.772
302.807
302.84
302.869
302.893
302.911
302.929
302.951
302.977
302.355
302.38
302.409
302.431
302.443
302.449
302.45
302.449
302.448
302.446
302.442
302.443
302.45
302.459
302.47
302.482
302.494
302.507
302.52
302.531
302.539
302.542
302.544
302.544
302.547
302.552
302.56
302.569
302.58
302.589
302.597
302.603
302.607
302.61
302.615
302.622
302.631
302.639
302.644
302.643
302.638
302.632
302.623
302.615
302.611
302.612
302.615
302.618
302.62
302.621
302.622
302.624
302.627
302.63
302.634
302.637
302.64
302.643
302.646
302.649
302.651
302.654
302.656
302.658
302.661
302.664
302.667
302.67
302.673
302.676
302.679
302.681
302.683
302.684
302.685
302.686
302.688
302.692
302.699
302.712
302.733
302.758
302.786
302.815
302.841
302.862
302.879
302.894
302.915
302.94
302.332
302.357
302.386
302.406
302.418
302.423
302.424
302.423
302.423
302.425
302.429
302.435
302.443
302.452
302.462
302.472
302.483
302.495
302.508
302.519
302.527
302.53
302.531
302.531
302.532
302.536
302.544
302.553
302.564
302.573
302.582
302.588
302.593
302.598
302.605
302.618
302.635
302.651
302.663
302.666
302.658
302.644
302.626
302.61
302.599
302.596
302.597
302.599
302.599
302.6
302.601
302.603
302.607
302.61
302.614
302.617
302.621
302.624
302.627
302.629
302.632
302.634
302.636
302.639
302.641
302.644
302.647
302.65
302.653
302.656
302.658
302.661
302.662
302.663
302.664
302.665
302.666
302.67
302.677
302.688
302.705
302.728
302.753
302.779
302.804
302.824
302.839
302.853
302.873
302.896
302.31
302.334
302.362
302.382
302.394
302.398
302.398
302.398
302.398
302.4
302.405
302.413
302.422
302.431
302.439
302.449
302.459
302.471
302.483
302.495
302.503
302.508
302.509
302.508
302.509
302.512
302.519
302.528
302.538
302.548
302.556
302.563
302.568
302.574
302.586
302.605
302.631
302.656
302.677
302.683
302.673
302.65
302.62
302.594
302.574
302.565
302.564
302.564
302.564
302.564
302.566
302.568
302.572
302.576
302.579
302.583
302.586
302.589
302.592
302.595
302.597
302.599
302.601
302.603
302.605
302.608
302.61
302.613
302.615
302.618
302.62
302.622
302.623
302.623
302.623
302.624
302.624
302.627
302.633
302.643
302.659
302.68
302.703
302.728
302.751
302.77
302.784
302.797
302.816
302.837
302.287
302.311
302.338
302.358
302.369
302.373
302.373
302.372
302.372
302.374
302.379
302.387
302.396
302.405
302.413
302.422
302.431
302.442
302.454
302.466
302.476
302.482
302.484
302.483
302.483
302.486
302.492
302.501
302.511
302.52
302.528
302.535
302.54
302.548
302.564
302.591
302.627
302.66
302.69
302.699
302.683
302.647
302.603
302.565
302.535
302.519
302.514
302.513
302.512
302.513
302.514
302.517
302.52
302.523
302.527
302.53
302.533
302.536
302.539
302.541
302.543
302.545
302.547
302.548
302.55
302.551
302.553
302.555
302.557
302.559
302.56
302.561
302.561
302.561
302.561
302.56
302.56
302.563
302.568
302.578
302.592
302.612
302.635
302.66
302.682
302.701
302.715
302.728
302.745
302.766
302.265
302.288
302.315
302.334
302.344
302.348
302.347
302.346
302.345
302.348
302.353
302.36
302.369
302.378
302.386
302.394
302.403
302.413
302.424
302.436
302.447
302.454
302.457
302.457
302.457
302.458
302.464
302.472
302.482
302.492
302.5
302.507
302.512
302.521
302.54
302.575
302.619
302.66
302.698
302.707
302.678
302.622
302.557
302.507
302.467
302.444
302.436
302.434
302.434
302.434
302.436
302.438
302.441
302.444
302.448
302.451
302.455
302.458
302.461
302.464
302.466
302.468
302.469
302.47
302.472
302.473
302.474
302.476
302.477
302.479
302.48
302.481
302.482
302.482
302.481
302.481
302.482
302.484
302.49
302.5
302.516
302.536
302.56
302.585
302.608
302.627
302.642
302.655
302.673
302.693
302.243
302.265
302.291
302.31
302.32
302.323
302.322
302.32
302.319
302.321
302.326
302.333
302.342
302.35
302.359
302.367
302.375
302.384
302.395
302.406
302.416
302.424
302.429
302.43
302.43
302.431
302.435
302.443
302.453
302.464
302.473
302.48
302.485
302.495
302.516
302.556
302.606
302.648
302.68
302.675
302.625
302.545
302.464
302.406
302.361
302.337
302.329
302.328
302.331
302.334
302.337
302.341
302.345
302.35
302.354
302.359
302.364
302.368
302.371
302.374
302.377
302.379
302.381
302.383
302.384
302.386
302.387
302.389
302.391
302.393
302.395
302.397
302.399
302.4
302.4
302.401
302.403
302.407
302.415
302.426
302.442
302.464
302.489
302.515
302.539
302.559
302.575
302.59
302.608
302.627
302.221
302.243
302.269
302.287
302.296
302.298
302.297
302.295
302.294
302.295
302.3
302.307
302.315
302.324
302.332
302.34
302.348
302.357
302.366
302.377
302.387
302.396
302.401
302.403
302.404
302.404
302.407
302.415
302.425
302.436
302.446
302.454
302.46
302.471
302.493
302.533
302.582
302.612
302.62
302.583
302.509
302.418
302.33
302.278
302.24
302.224
302.223
302.228
302.236
302.243
302.25
302.256
302.262
302.267
302.272
302.277
302.281
302.285
302.289
302.292
302.294
302.296
302.298
302.3
302.302
302.304
302.306
302.309
302.312
302.315
302.318
302.321
302.324
302.327
302.329
302.332
302.335
302.341
302.349
302.362
302.379
302.402
302.428
302.455
302.48
302.502
302.519
302.534
302.552
302.571
302.202
302.223
302.248
302.265
302.274
302.276
302.275
302.272
302.271
302.272
302.276
302.283
302.291
302.3
302.308
302.316
302.324
302.332
302.341
302.35
302.36
302.369
302.376
302.379
302.38
302.381
302.384
302.39
302.399
302.41
302.42
302.429
302.438
302.451
302.474
302.51
302.542
302.514
302.392
302.291
302.212
302.161
302.167
302.163
302.148
302.144
302.15
302.161
302.172
302.183
302.191
302.198
302.203
302.208
302.211
302.214
302.217
302.22
302.222
302.224
302.226
302.228
302.23
302.232
302.234
302.237
302.24
302.243
302.247
302.251
302.256
302.26
302.264
302.268
302.271
302.275
302.28
302.287
302.296
302.31
302.329
302.352
302.379
302.406
302.433
302.455
302.472
302.488
302.507
302.526
302.185
302.206
302.23
302.247
302.256
302.257
302.256
302.253
302.251
302.252
302.256
302.263
302.271
302.28
302.288
302.296
302.304
302.312
302.32
302.329
302.338
302.347
302.354
302.359
302.363
302.366
302.369
302.375
302.382
302.391
302.4
302.41
302.421
302.438
302.462
302.49
302.493
302.372
302.041
301.863
301.795
301.828
302.013
302.09
302.102
302.106
302.113
302.124
302.135
302.147
302.156
302.163
302.167
302.17
302.171
302.172
302.173
302.174
302.176
302.177
302.178
302.18
302.182
302.184
302.186
302.189
302.192
302.196
302.2
302.205
302.209
302.214
302.219
302.224
302.228
302.233
302.239
302.246
302.256
302.271
302.29
302.314
302.341
302.369
302.396
302.419
302.437
302.453
302.471
302.491
302.173
302.194
302.218
302.234
302.242
302.244
302.242
302.239
302.237
302.238
302.242
302.249
302.256
302.265
302.273
302.282
302.29
302.298
302.305
302.314
302.322
302.331
302.339
302.347
302.354
302.362
302.369
302.375
302.38
302.385
302.389
302.397
302.412
302.433
302.459
302.48
302.453
302.243
301.719
301.476
301.424
301.545
301.909
302.064
302.099
302.106
302.107
302.111
302.12
302.13
302.139
302.146
302.15
302.152
302.152
302.152
302.151
302.151
302.151
302.152
302.152
302.153
302.154
302.156
302.157
302.16
302.163
302.166
302.17
302.175
302.18
302.185
302.19
302.195
302.2
302.205
302.211
302.219
302.229
302.244
302.264
302.288
302.315
302.344
302.37
302.393
302.412
302.428
302.447
302.466
302.166
302.186
302.21
302.226
302.234
302.235
302.233
302.23
302.228
302.229
302.233
302.24
302.248
302.257
302.265
302.273
302.282
302.29
302.297
302.305
302.313
302.322
302.332
302.344
302.357
302.371
302.385
302.393
302.396
302.394
302.391
302.395
302.408
302.435
302.464
302.479
302.431
302.165
301.528
301.245
301.209
301.398
301.892
302.103
302.148
302.147
302.135
302.127
302.128
302.134
302.141
302.148
302.152
302.154
302.153
302.151
302.149
302.148
302.149
302.149
302.148
302.147
302.146
302.146
302.147
302.148
302.15
302.153
302.156
302.16
302.165
302.17
302.175
302.18
302.185
302.19
302.196
302.204
302.215
302.229
302.249
302.273
302.301
302.329
302.356
302.379
302.397
302.414
302.433
302.452
302.163
302.183
302.207
302.223
302.231
302.232
302.23
302.227
302.225
302.226
302.23
302.237
302.245
302.254
302.262
302.271
302.279
302.287
302.295
302.302
302.31
302.32
302.333
302.351
302.373
302.395
302.417
302.428
302.428
302.419
302.406
302.401
302.406
302.433
302.466
302.477
302.422
302.137
301.463
301.166
301.144
301.385
301.973
302.215
302.254
302.235
302.201
302.175
302.163
302.161
302.164
302.167
302.169
302.169
302.167
302.163
302.159
302.158
302.163
302.163
302.16
302.157
302.154
302.153
302.152
302.151
302.152
302.154
302.156
302.159
302.163
302.168
302.173
302.177
302.182
302.187
302.192
302.2
302.211
302.225
302.245
302.269
302.296
302.325
302.352
302.375
302.393
302.409
302.428
302.447
302.164
302.184
302.208
302.224
302.232
302.233
302.231
302.228
302.226
302.227
302.231
302.238
302.246
302.255
302.263
302.272
302.28
302.288
302.296
302.304
302.312
302.323
302.34
302.366
302.397
302.429
302.46
302.475
302.472
302.454
302.428
302.411
302.407
302.43
302.46
302.468
302.412
302.129
301.46
301.166
301.155
301.424
302.063
302.326
302.362
302.332
302.281
302.24
302.217
302.208
302.205
302.204
302.202
302.199
302.194
302.187
302.182
302.18
302.186
302.185
302.182
302.177
302.173
302.17
302.168
302.166
302.166
302.166
302.168
302.17
302.173
302.177
302.18
302.184
302.188
302.193
302.198
302.205
302.216
302.23
302.249
302.273
302.3
302.329
302.355
302.378
302.396
302.413
302.432
302.451
302.167
302.187
302.211
302.228
302.235
302.237
302.234
302.231
302.229
302.23
302.234
302.241
302.249
302.258
302.266
302.275
302.283
302.291
302.299
302.306
302.315
302.327
302.35
302.384
302.426
302.468
302.508
302.528
302.52
302.489
302.447
302.415
302.397
302.408
302.424
302.409
302.32
302.031
301.388
301.107
301.105
301.383
302.036
302.324
302.392
302.373
302.317
302.264
302.232
302.218
302.215
302.214
302.214
302.211
302.207
302.202
302.197
302.197
302.204
302.204
302.201
302.198
302.194
302.191
302.189
302.187
302.186
302.186
302.186
302.188
302.19
302.193
302.196
302.199
302.202
302.206
302.211
302.217
302.227
302.241
302.26
302.283
302.31
302.338
302.365
302.387
302.405
302.421
302.44
302.459
302.171
302.191
302.215
302.232
302.239
302.241
302.239
302.235
302.234
302.235
302.239
302.245
302.253
302.262
302.27
302.279
302.287
302.295
302.302
302.309
302.318
302.332
302.358
302.4
302.453
302.504
302.554
302.577
302.56
302.51
302.446
302.398
302.365
302.357
302.336
302.229
301.955
301.62
301.085
300.858
300.861
301.104
301.68
302.035
302.294
302.359
302.317
302.255
302.215
302.197
302.194
302.196
302.199
302.201
302.201
302.199
302.197
302.199
302.209
302.212
302.211
302.21
302.209
302.207
302.206
302.205
302.205
302.205
302.205
302.207
302.208
302.21
302.213
302.216
302.218
302.221
302.226
302.232
302.241
302.254
302.273
302.296
302.323
302.35
302.377
302.399
302.417
302.433
302.451
302.47
302.174
302.195
302.219
302.235
302.243
302.245
302.243
302.24
302.238
302.239
302.243
302.25
302.258
302.266
302.275
302.283
302.291
302.299
302.306
302.313
302.321
302.335
302.363
302.409
302.468
302.523
302.577
302.594
302.562
302.491
302.408
302.349
302.308
302.285
302.206
301.879
301.068
300.585
300.265
300.138
300.14
300.278
300.619
301.119
301.944
302.246
302.273
302.232
302.199
302.182
302.177
302.178
302.181
302.184
302.186
302.188
302.19
302.195
302.206
302.212
302.213
302.214
302.215
302.216
302.216
302.216
302.217
302.217
302.218
302.219
302.221
302.223
302.225
302.228
302.23
302.233
302.237
302.243
302.252
302.265
302.284
302.307
302.333
302.361
302.387
302.409
302.427
302.442
302.461
302.48
302.176
302.197
302.221
302.238
302.246
302.247
302.245
302.242
302.241
302.242
302.246
302.253
302.261
302.27
302.278
302.286
302.294
302.302
302.309
302.316
302.324
302.337
302.364
302.408
302.464
302.512
302.555
302.551
302.501
302.418
302.326
302.274
302.243
302.227
302.128
301.694
300.632
300.066
299.827
299.747
299.748
299.831
300.078
300.654
301.739
302.171
302.243
302.22
302.191
302.175
302.169
302.168
302.169
302.173
302.176
302.18
302.184
302.191
302.204
302.21
302.213
302.216
302.218
302.22
302.222
302.223
302.224
302.225
302.227
302.228
302.23
302.232
302.234
302.236
302.238
302.241
302.245
302.251
302.26
302.273
302.291
302.314
302.341
302.368
302.394
302.416
302.434
302.449
302.468
302.486
302.177
302.198
302.222
302.239
302.247
302.249
302.247
302.244
302.242
302.243
302.248
302.255
302.263
302.271
302.28
302.288
302.296
302.304
302.311
302.319
302.326
302.338
302.359
302.394
302.427
302.419
302.341
302.277
302.219
302.177
302.183
302.185
302.183
302.186
302.093
301.63
300.488
299.89
299.669
299.603
299.603
299.669
299.891
300.495
301.658
302.136
302.229
302.214
302.189
302.173
302.166
302.165
302.166
302.169
302.174
302.179
302.185
302.193
302.206
302.214
302.217
302.22
302.223
302.225
302.227
302.229
302.231
302.233
302.234
302.236
302.238
302.239
302.242
302.244
302.246
302.249
302.252
302.258
302.267
302.28
302.298
302.321
302.347
302.375
302.401
302.423
302.44
302.455
302.473
302.492
302.178
302.199
302.223
302.24
302.248
302.249
302.247
302.244
302.243
302.244
302.248
302.255
302.263
302.272
302.281
302.289
302.297
302.305
302.312
302.32
302.327
302.337
302.351
302.368
302.363
302.253
301.957
301.807
301.757
301.805
302.007
302.102
302.137
302.156
302.072
301.607
300.446
299.839
299.622
299.56
299.559
299.62
299.837
300.449
301.633
302.126
302.228
302.22
302.199
302.185
302.178
302.175
302.175
302.179
302.184
302.19
302.196
302.205
302.221
302.229
302.232
302.233
302.234
302.235
302.237
302.239
302.24
302.242
302.244
302.245
302.247
302.249
302.251
302.253
302.255
302.257
302.261
302.266
302.275
302.288
302.306
302.329
302.355
302.382
302.408
302.43
302.447
302.462
302.48
302.498
302.178
302.199
302.223
302.24
302.248
302.249
302.247
302.244
302.243
302.244
302.248
302.255
302.263
302.272
302.281
302.289
302.297
302.305
302.312
302.32
302.327
302.335
302.342
302.341
302.292
302.074
301.559
301.329
301.294
301.44
301.846
302.035
302.101
302.128
302.046
301.586
300.43
299.826
299.611
299.55
299.55
299.609
299.825
300.439
301.631
302.131
302.242
302.242
302.226
302.213
302.205
302.201
302.2
302.202
302.207
302.213
302.221
302.233
302.252
302.26
302.262
302.259
302.255
302.253
302.252
302.252
302.254
302.255
302.256
302.258
302.259
302.261
302.262
302.264
302.266
302.268
302.272
302.277
302.285
302.298
302.316
302.338
302.364
302.391
302.417
302.438
302.455
302.469
302.487
302.505
302.178