/*--------------------------------*- C++ -*----------------------------------*\
| =========                 |                                                 |
| \\      /  F ield         | OpenFOAM: The Open Source CFD Toolbox           |
|  \\    /   O peration     | Version:  v2012                                 |
|   \\  /    A nd           | Website:  www.openfoam.com                      |
|    \\/     M anipulation  |                                                 |
\*---------------------------------------------------------------------------*/
FoamFile
{
    version     2.0;
    format      ascii;
    class       volScalarField;
    location    "450/asphalt";
    object      T;
}
// * * * * * * * * * * * * * * * * * * * * * * * * * * * * * * * * * * * * * //

dimensions      [0 0 0 1 0 0 0];


internalField   nonuniform List<scalar> 
1980
(
321.649
322.067
322.481
322.835
323.14
323.405
323.637
323.843
324.025
324.189
324.337
324.471
324.593
324.705
324.808
324.903
324.992
325.073
325.149
325.219
325.285
325.346
325.404
325.459
325.511
325.561
325.61
325.656
325.702
325.747
325.789
325.827
325.853
325.886
325.92
325.953
325.986
326.018
326.049
326.08
326.11
326.139
326.168
326.196
326.224
326.251
326.278
326.304
326.33
326.354
326.378
326.401
326.424
326.447
326.47
326.493
326.517
326.544
326.581
326.607
326.631
326.652
326.673
326.694
326.714
326.733
326.752
326.77
326.789
326.807
326.825
326.843
326.86
326.878
326.895
326.912
326.928
326.945
326.961
326.978
326.995
327.013
327.031
327.051
327.072
327.096
327.126
327.173
327.282
327.588
321.648
322.067
322.481
322.835
323.14
323.405
323.637
323.843
324.025
324.189
324.337
324.471
324.593
324.705
324.808
324.903
324.991
325.073
325.149
325.219
325.284
325.346
325.404
325.459
325.512
325.563
325.611
325.658
325.705
325.749
325.793
325.833
325.87
325.905
325.94
325.974
326.007
326.04
326.072
326.102
326.132
326.162
326.191
326.219
326.246
326.273
326.3
326.326
326.352
326.377
326.401
326.425
326.449
326.472
326.495
326.517
326.54
326.563
326.587
326.61
326.632
326.654
326.676
326.696
326.716
326.735
326.754
326.773
326.792
326.81
326.828
326.846
326.863
326.881
326.898
326.915
326.932
326.948
326.965
326.981
326.998
327.015
327.034
327.053
327.074
327.098
327.128
327.174
327.283
327.589
321.648
322.067
322.481
322.835
323.14
323.405
323.637
323.842
324.025
324.189
324.337
324.471
324.593
324.705
324.808
324.903
324.991
325.073
325.148
325.219
325.284
325.346
325.405
325.46
325.513
325.564
325.613
325.661
325.707
325.752
325.795
325.835
325.873
325.91
325.945
325.979
326.013
326.046
326.078
326.108
326.139
326.168
326.197
326.225
326.253
326.279
326.306
326.332
326.358
326.383
326.408
326.433
326.457
326.48
326.503
326.525
326.548
326.57
326.592
326.614
326.635
326.656
326.678
326.699
326.718
326.738
326.757
326.776
326.795
326.813
326.831
326.849
326.867
326.885
326.902
326.919
326.936
326.953
326.969
326.986
327.003
327.02
327.038
327.056
327.077
327.101
327.13
327.177
327.285
327.592
321.648
322.067
322.481
322.835
323.14
323.405
323.637
323.842
324.025
324.189
324.337
324.471
324.593
324.705
324.808
324.903
324.991
325.073
325.148
325.219
325.285
325.347
325.406
325.462
325.515
325.566
325.616
325.664
325.71
325.754
325.797
325.837
325.875
325.911
325.947
325.981
326.015
326.048
326.08
326.111
326.142
326.171
326.2
326.229
326.256
326.283
326.309
326.335
326.361
326.387
326.412
326.437
326.461
326.484
326.508
326.53
326.553
326.575
326.596
326.618
326.639
326.66
326.681
326.701
326.721
326.741
326.76
326.779
326.798
326.816
326.835
326.853
326.87
326.888
326.906
326.923
326.94
326.957
326.974
326.991
327.008
327.025
327.042
327.061
327.081
327.104
327.133
327.179
327.288
327.594
321.648
322.067
322.481
322.834
323.139
323.404
323.637
323.842
324.025
324.189
324.337
324.471
324.593
324.705
324.808
324.903
324.991
325.072
325.148
325.219
325.285
325.348
325.407
325.463
325.517
325.569
325.618
325.666
325.712
325.756
325.798
325.838
325.876
325.913
325.948
325.983
326.017
326.05
326.082
326.113
326.144
326.173
326.203
326.231
326.258
326.285
326.311
326.338
326.364
326.389
326.415
326.44
326.464
326.488
326.511
326.534
326.556
326.578
326.6
326.621
326.642
326.663
326.684
326.704
326.724
326.744
326.763
326.782
326.801
326.82
326.838
326.856
326.874
326.892
326.909
326.927
326.944
326.962
326.979
326.996
327.013
327.03
327.047
327.066
327.086
327.109
327.137
327.183
327.291
327.597
321.648
322.067
322.48
322.834
323.139
323.404
323.637
323.842
324.025
324.189
324.336
324.47
324.593
324.705
324.808
324.903
324.991
325.072
325.148
325.219
325.286
325.349
325.408
325.465
325.519
325.571
325.62
325.668
325.714
325.757
325.799
325.839
325.877
325.914
325.95
325.985
326.019
326.052
326.084
326.115
326.146
326.176
326.205
326.233
326.261
326.288
326.314
326.341
326.367
326.392
326.418
326.443
326.467
326.491
326.515
326.538
326.56
326.583
326.604
326.626
326.647
326.667
326.688
326.708
326.728
326.748
326.767
326.786
326.805
326.824
326.843
326.861
326.879
326.896
326.914
326.932
326.949
326.967
326.984
327.001
327.019
327.036
327.054
327.072
327.092
327.115
327.143
327.188
327.295
327.602
321.648
322.066
322.48
322.834
323.139
323.404
323.636
323.842
324.025
324.188
324.336
324.47
324.593
324.705
324.808
324.903
324.991
325.072
325.148
325.22
325.287
325.35
325.41
325.467
325.521
325.573
325.622
325.67
325.715
325.759
325.8
325.84
325.878
325.916
325.952
325.987
326.021
326.054
326.086
326.118
326.148
326.178
326.208
326.236
326.264
326.291
326.318
326.344
326.37
326.396
326.422
326.447
326.471
326.495
326.519
326.542
326.565
326.587
326.609
326.63
326.652
326.672
326.693
326.713
326.733
326.753
326.772
326.792
326.811
326.83
326.848
326.867
326.885
326.902
326.92
326.938
326.955
326.973
326.991
327.008
327.026
327.043
327.061
327.08
327.1
327.122
327.15
327.194
327.301
327.606
321.647
322.066
322.48
322.834
323.139
323.404
323.636
323.842
324.024
324.188
324.336
324.47
324.593
324.705
324.808
324.903
324.991
325.073
325.149
325.221
325.288
325.352
325.412
325.469
325.524
325.576
325.625
325.673
325.718
325.761
325.803
325.843
325.881
325.919
325.955
325.99
326.025
326.058
326.09
326.122
326.153
326.183
326.212
326.241
326.269
326.297
326.324
326.35
326.377
326.402
326.428
326.453
326.477
326.502
326.525
326.549
326.572
326.594
326.616
326.638
326.659
326.68
326.701
326.721
326.741
326.761
326.78
326.8
326.819
326.838
326.856
326.875
326.893
326.91
326.928
326.946
326.963
326.981
326.998
327.016
327.033
327.051
327.069
327.088
327.107
327.129
327.156
327.199
327.304
327.607
321.647
322.066
322.48
322.834
323.139
323.404
323.637
323.842
324.025
324.19
324.338
324.472
324.595
324.707
324.81
324.906
324.994
325.076
325.153
325.225
325.293
325.357
325.418
325.475
325.53
325.582
325.632
325.679
325.725
325.768
325.81
325.851
325.89
325.927
325.964
326
326.034
326.068
326.101
326.133
326.164
326.194
326.224
326.253
326.281
326.309
326.337
326.364
326.39
326.416
326.442
326.467
326.492
326.516
326.54
326.563
326.587
326.609
326.632
326.654
326.675
326.696
326.717
326.737
326.758
326.777
326.797
326.817
326.836
326.855
326.873
326.892
326.91
326.927
326.945
326.962
326.98
326.997
327.015
327.032
327.05
327.067
327.085
327.103
327.123
327.145
327.171
327.212
327.312
327.61
321.648
322.068
322.483
322.838
323.144
323.411
323.644
323.851
324.036
324.201
324.35
324.486
324.61
324.723
324.828
324.924
325.014
325.098
325.176
325.249
325.318
325.383
325.445
325.504
325.559
325.613
325.663
325.712
325.758
325.803
325.846
325.887
325.927
325.966
326.004
326.041
326.076
326.111
326.145
326.178
326.21
326.241
326.272
326.302
326.331
326.36
326.389
326.417
326.444
326.471
326.498
326.523
326.549
326.574
326.599
326.623
326.647
326.671
326.694
326.717
326.739
326.761
326.782
326.804
326.824
326.845
326.865
326.885
326.905
326.925
326.944
326.963
326.981
327
327.018
327.036
327.054
327.072
327.089
327.107
327.125
327.142
327.16
327.179
327.199
327.221
327.247
327.285
327.379
327.663
321.655
322.081
322.503
322.865
323.178
323.451
323.691
323.904
324.094
324.265
324.419
324.56
324.689
324.807
324.917
325.018
325.112
325.2
325.283
325.361
325.434
325.503
325.569
325.632
325.691
325.748
325.802
325.854
325.904
325.953
325.999
326.044
326.088
326.131
326.172
326.212
326.251
326.289
326.326
326.362
326.397
326.432
326.466
326.499
326.532
326.564
326.595
326.626
326.656
326.686
326.715
326.744
326.772
326.8
326.828
326.855
326.881
326.907
326.933
326.959
326.984
327.008
327.032
327.056
327.079
327.102
327.125
327.148
327.17
327.192
327.213
327.234
327.255
327.276
327.296
327.316
327.336
327.356
327.375
327.395
327.414
327.434
327.453
327.474
327.495
327.518
327.544
327.582
327.665
327.91
322.795
323.258
323.699
324.072
324.393
324.672
324.917
325.133
325.326
325.498
325.654
325.795
325.923
326.041
326.15
326.25
326.343
326.429
326.509
326.583
326.652
326.717
326.778
326.836
326.891
326.944
326.995
327.044
327.092
327.139
327.184
327.226
327.258
327.294
327.331
327.366
327.4
327.434
327.467
327.499
327.531
327.562
327.592
327.622
327.651
327.68
327.708
327.736
327.763
327.789
327.814
327.838
327.862
327.887
327.911
327.935
327.96
327.987
328.02
328.046
328.07
328.093
328.115
328.137
328.157
328.178
328.197
328.217
328.237
328.256
328.275
328.293
328.312
328.33
328.348
328.366
328.383
328.4
328.417
328.435
328.453
328.471
328.491
328.511
328.534
328.559
328.589
328.636
328.745
329.092
322.795
323.258
323.699
324.072
324.393
324.672
324.917
325.133
325.325
325.498
325.653
325.795
325.923
326.041
326.15
326.25
326.343
326.429
326.509
326.583
326.652
326.717
326.778
326.836
326.892
326.945
326.996
327.046
327.095
327.142
327.187
327.23
327.27
327.308
327.344
327.38
327.415
327.45
327.483
327.515
327.547
327.578
327.609
327.638
327.667
327.695
327.724
327.751
327.778
327.805
327.831
327.856
327.88
327.905
327.929
327.953
327.977
328.001
328.025
328.049
328.072
328.094
328.117
328.139
328.16
328.18
328.2
328.22
328.239
328.259
328.278
328.296
328.315
328.333
328.352
328.369
328.387
328.404
328.421
328.439
328.456
328.474
328.493
328.513
328.535
328.56
328.59
328.637
328.747
329.094
322.795
323.258
323.699
324.072
324.393
324.672
324.917
325.133
325.325
325.498
325.653
325.794
325.923
326.041
326.15
326.25
326.343
326.429
326.508
326.582
326.652
326.717
326.779
326.837
326.893
326.947
326.998
327.049
327.097
327.145
327.19
327.232
327.273
327.311
327.348
327.384
327.42
327.454
327.488
327.52
327.552
327.583
327.614
327.644
327.672
327.7
327.728
327.756
327.783
327.81
327.836
327.862
327.887
327.912
327.936
327.96
327.983
328.007
328.03
328.052
328.075
328.097
328.12
328.142
328.163
328.183
328.203
328.223
328.243
328.262
328.281
328.3
328.319
328.337
328.355
328.374
328.391
328.409
328.426
328.444
328.461
328.479
328.497
328.517
328.539
328.563
328.593
328.639
328.749
329.097
322.794
323.257
323.699
324.072
324.393
324.672
324.917
325.133
325.325
325.498
325.653
325.794
325.923
326.041
326.15
326.25
326.342
326.428
326.508
326.582
326.652
326.717
326.78
326.839
326.895
326.949
327.001
327.051
327.1
327.147
327.191
327.234
327.274
327.312
327.35
327.386
327.422
327.457
327.49
327.523
327.555
327.586
327.617
327.647
327.675
327.703
327.731
327.759
327.786
327.813
327.84
327.866
327.891
327.916
327.941
327.964
327.988
328.011
328.034
328.056
328.079
328.101
328.123
328.145
328.165
328.186
328.206
328.226
328.246
328.265
328.285
328.304
328.322
328.341
328.359
328.377
328.395
328.413
328.431
328.449
328.466
328.484
328.502
328.521
328.543
328.567
328.596
328.642
328.752
329.099
322.794
323.257
323.699
324.072
324.393
324.672
324.916
325.133
325.325
325.497
325.653
325.794
325.923
326.041
326.149
326.25
326.342
326.428
326.508
326.582
326.652
326.718
326.781
326.84
326.897
326.951
327.003
327.054
327.102
327.149
327.193
327.235
327.275
327.313
327.351
327.388
327.424
327.458
327.492
327.525
327.557
327.588
327.619
327.649
327.678
327.706
327.734
327.761
327.789
327.816
327.843
327.869
327.895
327.92
327.944
327.968
327.992
328.015
328.038
328.06
328.082
328.104
328.126
328.148
328.168
328.189
328.209
328.229
328.249
328.269
328.288
328.307
328.326
328.345
328.363
328.381
328.4
328.418
328.436
328.454
328.472
328.489
328.508
328.527
328.548
328.571
328.6
328.646
328.755
329.102
322.794
323.257
323.698
324.072
324.393
324.672
324.916
325.132
325.325
325.497
325.653
325.794
325.923
326.041
326.149
326.249
326.342
326.428
326.508
326.583
326.653
326.719
326.782
326.842
326.899
326.953
327.006
327.056
327.104
327.15
327.194
327.236
327.276
327.315
327.353
327.389
327.425
327.46
327.494
327.527
327.559
327.591
327.621
327.651
327.68
327.709
327.737
327.764
327.792
327.819
327.846
327.872
327.898
327.923
327.948
327.972
327.996
328.019
328.042
328.065
328.087
328.109
328.13
328.152
328.173
328.193
328.214
328.234
328.254
328.273
328.293
328.312
328.331
328.349
328.368
328.386
328.405
328.423
328.441
328.46
328.478
328.496
328.514
328.533
328.554
328.578
328.606
328.651
328.76
329.107
322.794
323.257
323.698
324.071
324.392
324.671
324.916
325.132
325.324
325.497
325.653
325.794
325.923
326.041
326.149
326.249
326.342
326.428
326.508
326.583
326.654
326.72
326.784
326.844
326.901
326.955
327.008
327.058
327.106
327.151
327.195
327.237
327.277
327.316
327.354
327.391
327.427
327.462
327.496
327.529
327.562
327.593
327.624
327.654
327.683
327.712
327.74
327.768
327.796
327.823
327.85
327.876
327.902
327.927
327.952
327.976
328
328.024
328.047
328.069
328.092
328.114
328.135
328.157
328.178
328.198
328.219
328.239
328.259
328.279
328.299
328.318
328.337
328.355
328.374
328.392
328.411
328.43
328.448
328.466
328.485
328.503
328.522
328.541
328.562
328.585
328.613
328.657
328.765
329.112
322.794
323.256
323.698
324.071
324.392
324.671
324.916
325.132
325.324
325.497
325.653
325.794
325.923
326.041
326.149
326.249
326.342
326.428
326.509
326.584
326.655
326.722
326.786
326.846
326.903
326.958
327.01
327.06
327.108
327.153
327.197
327.239
327.28
327.319
327.358
327.395
327.431
327.466
327.5
327.533
327.566
327.598
327.629
327.659
327.688
327.717
327.746
327.774
327.802
327.829
327.856
327.882
327.908
327.933
327.958
327.983
328.007
328.031
328.054
328.077
328.099
328.121
328.143
328.164
328.185
328.206
328.226
328.247
328.267
328.287
328.306
328.326
328.345
328.363
328.382
328.4
328.419
328.437
328.456
328.474
328.492
328.511
328.529
328.549
328.57
328.593
328.62
328.662
328.768
329.112
322.793
323.256
323.698
324.071
324.392
324.671
324.916
325.132
325.325
325.497
325.653
325.795
325.924
326.042
326.151
326.251
326.344
326.431
326.512
326.588
326.659
326.727
326.791
326.851
326.909
326.963
327.016
327.066
327.114
327.159
327.203
327.246
327.287
327.327
327.366
327.403
327.439
327.475
327.509
327.543
327.576
327.608
327.639
327.669
327.699
327.729
327.758
327.786
327.814
327.841
327.868
327.895
327.921
327.946
327.971
327.996
328.02
328.044
328.068
328.091
328.113
328.136
328.157
328.179
328.2
328.221
328.242
328.262
328.282
328.302
328.322
328.341
328.36
328.378
328.397
328.415
328.433
328.452
328.47
328.488
328.506
328.524
328.543
328.562
328.583
328.605
328.632
328.672
328.774
329.111
322.794
323.258
323.7
324.074
324.396
324.677
324.923
325.14
325.334
325.508
325.665
325.808
325.938
326.057
326.167
326.269
326.363
326.451
326.533
326.61
326.683
326.752
326.817
326.878
326.937
326.993
327.046
327.097
327.146
327.192
327.238
327.281
327.324
327.364
327.404
327.443
327.48
327.516
327.552
327.586
327.62
327.653
327.686
327.717
327.748
327.779
327.808
327.838
327.867
327.895
327.923
327.95
327.977
328.003
328.029
328.055
328.08
328.104
328.129
328.153
328.176
328.199
328.222
328.244
328.266
328.287
328.309
328.33
328.35
328.371
328.391
328.411
328.43
328.449
328.468
328.487
328.506
328.525
328.543
328.561
328.58
328.598
328.617
328.637
328.658
328.68
328.706
328.744
328.839
329.161
322.801
323.273
323.724
324.106
324.435
324.723
324.976
325.2
325.4
325.581
325.744
325.892
326.028
326.153
326.269
326.376
326.475
326.568
326.656
326.738
326.815
326.888
326.958
327.024
327.087
327.147
327.204
327.259
327.312
327.363
327.413
327.46
327.507
327.552
327.595
327.637
327.679
327.719
327.758
327.796
327.834
327.87
327.906
327.941
327.976
328.01
328.043
328.076
328.108
328.14
328.171
328.201
328.231
328.26
328.29
328.318
328.346
328.374
328.401
328.428
328.454
328.48
328.506
328.531
328.556
328.58
328.604
328.628
328.652
328.675
328.697
328.72
328.742
328.763
328.785
328.806
328.827
328.848
328.869
328.889
328.91
328.93
328.951
328.972
328.995
329.018
329.045
329.082
329.165
329.442
)
;

boundaryField
{
    inlet
    {
        type            zeroGradient;
    }
    outlet
    {
        type            zeroGradient;
    }
    side
    {
        type            zeroGradient;
    }
    asphalt_to_soil1
    {
        type            compressible::turbulentTemperatureRadCoupledMixed;
        refValue        nonuniform List<scalar> 
990
(
320.488
320.867
321.253
321.587
321.876
322.127
322.347
322.542
322.715
322.87
323.009
323.136
323.252
323.358
323.455
323.545
323.629
323.706
323.778
323.844
323.906
323.964
324.019
324.071
324.12
324.167
324.213
324.257
324.3
324.342
324.382
324.417
324.437
324.467
324.499
324.53
324.561
324.591
324.621
324.65
324.678
324.706
324.733
324.759
324.786
324.812
324.837
324.862
324.886
324.909
324.931
324.953
324.975
324.997
325.019
325.041
325.064
325.09
325.13
325.156
325.179
325.199
325.219
325.239
325.258
325.276
325.294
325.311
325.329
325.346
325.363
325.38
325.396
325.413
325.429
325.445
325.461
325.477
325.492
325.508
325.524
325.541
325.559
325.578
325.598
325.621
325.651
325.697
325.803
326.073
320.488
320.866
321.253
321.587
321.876
322.127
322.347
322.541
322.714
322.869
323.009
323.136
323.252
323.358
323.455
323.545
323.629
323.706
323.777
323.844
323.906
323.964
324.019
324.071
324.121
324.169
324.215
324.259
324.303
324.345
324.386
324.424
324.458
324.491
324.524
324.556
324.588
324.618
324.648
324.677
324.706
324.734
324.761
324.788
324.814
324.839
324.864
324.889
324.913
324.937
324.96
324.983
325.005
325.027
325.048
325.07
325.092
325.114
325.137
325.159
325.18
325.201
325.221
325.241
325.26
325.278
325.296
325.314
325.331
325.349
325.366
325.383
325.399
325.416
325.432
325.449
325.464
325.48
325.496
325.511
325.527
325.544
325.561
325.579
325.599
325.622
325.652
325.698
325.804
326.074
320.488
320.866
321.253
321.587
321.876
322.127
322.347
322.541
322.714
322.869
323.009
323.136
323.252
323.358
323.455
323.545
323.628
323.705
323.777
323.843
323.906
323.964
324.019
324.072
324.122
324.17
324.217
324.262
324.305
324.348
324.388
324.427
324.462
324.497
324.53
324.562
324.594
324.625
324.655
324.685
324.713
324.741
324.768
324.795
324.821
324.846
324.871
324.896
324.92
324.945
324.968
324.991
325.014
325.036
325.057
325.079
325.1
325.121
325.142
325.163
325.183
325.203
325.224
325.243
325.262
325.28
325.299
325.316
325.334
325.352
325.369
325.386
325.403
325.42
325.436
325.452
325.468
325.484
325.5
325.516
325.532
325.548
325.565
325.583
325.603
325.625
325.654
325.701
325.807
326.077
320.488
320.866
321.253
321.587
321.876
322.127
322.347
322.541
322.714
322.869
323.009
323.136
323.252
323.358
323.455
323.545
323.628
323.705
323.777
323.843
323.906
323.965
324.02
324.073
324.124
324.172
324.219
324.264
324.308
324.35
324.39
324.428
324.464
324.499
324.532
324.565
324.597
324.628
324.658
324.688
324.716
324.744
324.772
324.799
324.824
324.85
324.875
324.899
324.924
324.948
324.972
324.995
325.018
325.041
325.062
325.084
325.105
325.126
325.146
325.167
325.187
325.207
325.227
325.246
325.265
325.283
325.301
325.319
325.337
325.355
325.372
325.389
325.406
325.423
325.439
325.456
325.472
325.488
325.504
325.52
325.536
325.553
325.569
325.587
325.606
325.628
325.657
325.703
325.809
326.079
320.488
320.866
321.253
321.587
321.876
322.127
322.347
322.541
322.714
322.869
323.009
323.136
323.251
323.357
323.455
323.545
323.628
323.705
323.777
323.844
323.906
323.965
324.021
324.075
324.126
324.174
324.221
324.266
324.31
324.352
324.391
324.429
324.465
324.5
324.534
324.566
324.599
324.63
324.66
324.69
324.718
324.747
324.774
324.801
324.827
324.852
324.877
324.902
324.926
324.951
324.975
324.998
325.021
325.044
325.066
325.087
325.109
325.13
325.15
325.17
325.19
325.21
325.23
325.249
325.268
325.286
325.304
325.323
325.34
325.358
325.376
325.393
325.41
325.427
325.443
325.46
325.476
325.493
325.509
325.525
325.541
325.558
325.574
325.592
325.611
325.633
325.661
325.706
325.812
326.082
320.488
320.866
321.252
321.587
321.875
322.126
322.346
322.541
322.714
322.869
323.009
323.136
323.251
323.357
323.455
323.545
323.628
323.705
323.777
323.844
323.907
323.966
324.023
324.076
324.128
324.176
324.223
324.269
324.312
324.353
324.392
324.43
324.466
324.501
324.535
324.568
324.6
324.632
324.662
324.692
324.72
324.749
324.776
324.803
324.829
324.855
324.88
324.905
324.929
324.954
324.978
325.001
325.025
325.047
325.069
325.091
325.113
325.134
325.154
325.174
325.194
325.214
325.233
325.253
325.271
325.29
325.308
325.327
325.345
325.362
325.38
325.397
325.414
325.431
325.448
325.464
325.481
325.498
325.514
325.531
325.547
325.563
325.58
325.598
325.617
325.639
325.666
325.711
325.816
326.086
320.487
320.866
321.252
321.587
321.875
322.126
322.346
322.541
322.714
322.869
323.009
323.136
323.251
323.357
323.455
323.545
323.628
323.705
323.777
323.845
323.908
323.968
324.024
324.078
324.13
324.179
324.225
324.27
324.313
324.355
324.394
324.431
324.468
324.503
324.537
324.57
324.602
324.634
324.664
324.694
324.723
324.751
324.779
324.806
324.832
324.858
324.883
324.908
324.933
324.957
324.982
325.005
325.028
325.051
325.073
325.095
325.117
325.138
325.159
325.179
325.199
325.219
325.238
325.257
325.276
325.295
325.313
325.332
325.35
325.368
325.385
325.403
325.42
325.437
325.453
325.47
325.487
325.504
325.52
325.537
325.554
325.57
325.587
325.605
325.624
325.646
325.673
325.717
325.821
326.09
320.487
320.865
321.252
321.586
321.875
322.126
322.346
322.541
322.714
322.869
323.009
323.136
323.252
323.358
323.455
323.545
323.629
323.706
323.778
323.846
323.91
323.97
324.027
324.081
324.132
324.182
324.229
324.273
324.316
324.357
324.397
324.434
324.471
324.506
324.541
324.574
324.606
324.638
324.669
324.698
324.728
324.756
324.784
324.811
324.838
324.864
324.889
324.915
324.939
324.964
324.988
325.012
325.035
325.058
325.08
325.102
325.124
325.145
325.166
325.187
325.207
325.227
325.246
325.265
325.284
325.303
325.322
325.34
325.358
325.376
325.394
325.411
325.428
325.445
325.462
325.478
325.495
325.512
325.528
325.545
325.562
325.578
325.595
325.613
325.632
325.653
325.68
325.723
325.825
326.092
320.487
320.865
321.252
321.587
321.876
322.127
322.347
322.542
322.715
322.871
323.011
323.138
323.254
323.36
323.458
323.548
323.632
323.71
323.783
323.851
323.915
323.976
324.033
324.088
324.139
324.189
324.236
324.281
324.324
324.365
324.405
324.443
324.48
324.516
324.55
324.584
324.617
324.649
324.68
324.71
324.739
324.768
324.796
324.824
324.851
324.877
324.903
324.929
324.954
324.979
325.003
325.027
325.05
325.073
325.096
325.118
325.14
325.162
325.183
325.204
325.224
325.244
325.264
325.283
325.302
325.321
325.34
325.358
325.376
325.394
325.412
325.429
325.447
325.463
325.48
325.497
325.513
325.53
325.547
325.563
325.58
325.596
325.613
325.631
325.65
325.671
325.696
325.737
325.835
326.097
320.488
320.867
321.255
321.591
321.881
322.134
322.355
322.551
322.726
322.882
323.024
323.152
323.27
323.377
323.476
323.568
323.653
323.732
323.806
323.875
323.941
324.003
324.061
324.117
324.169
324.22
324.268
324.314
324.358
324.4
324.441
324.48
324.518
324.555
324.591
324.625
324.659
324.692
324.724
324.755
324.786
324.816
324.845
324.873
324.901
324.929
324.956
324.982
325.008
325.034
325.059
325.083
325.107
325.131
325.155
325.178
325.201
325.223
325.245
325.266
325.288
325.308
325.329
325.349
325.369
325.388
325.408
325.427
325.446
325.464
325.483
325.501
325.518
325.536
325.553
325.57
325.587
325.604
325.621
325.638
325.654
325.671
325.689
325.707
325.726
325.747
325.772
325.811
325.902
326.152
320.494
320.879
321.273
321.615
321.911
322.169
322.396
322.597
322.777
322.938
323.084
323.217
323.339
323.451
323.554
323.65
323.739
323.822
323.9
323.973
324.042
324.108
324.17
324.229
324.285
324.338
324.39
324.439
324.486
324.531
324.575
324.618
324.659
324.699
324.738
324.775
324.812
324.848
324.883
324.917
324.95
324.983
325.015
325.046
325.077
325.107
325.137
325.166
325.194
325.222
325.25
325.277
325.304
325.33
325.356
325.381
325.406
325.431
325.455
325.479
325.502
325.526
325.548
325.571
325.593
325.614
325.636
325.657
325.678
325.699
325.719
325.739
325.758
325.778
325.797
325.816
325.835
325.853
325.872
325.89
325.909
325.927
325.946
325.965
325.985
326.007
326.033
326.07
326.152
326.37
)
;
        refGradient     uniform 0;
        valueFraction   nonuniform List<scalar> 
990
(
0.495766
0.495766
0.495766
0.495766
0.495766
0.495766
0.495766
0.495766
0.495766
0.495766
0.495766
0.495766
0.495766
0.495766
0.495766
0.495766
0.495766
0.495766
0.495766
0.495766
0.495766
0.495766
0.495766
0.495766
0.495766
0.495766
0.495766
0.495766
0.495766
0.495766
0.495766
0.495766
0.495766
0.495766
0.495766
0.495766
0.495766
0.495766
0.495766
0.495766
0.495766
0.495766
0.495766
0.495766
0.495766
0.495766
0.495766
0.495766
0.495766
0.495766
0.495766
0.495766
0.495766
0.495766
0.495766
0.495766
0.495766
0.495766
0.495766
0.495766
0.495766
0.495766
0.495766
0.495766
0.495766
0.495766
0.495766
0.495766
0.495766
0.495766
0.495766
0.495766
0.495766
0.495766
0.495766
0.495766
0.495766
0.495766
0.495766
0.495766
0.495766
0.495766
0.495766
0.495766
0.495766
0.495766
0.495766
0.495766
0.495766
0.495766
0.495766
0.495766
0.495766
0.495766
0.495766
0.495766
0.495766
0.495766
0.495766
0.495766
0.495766
0.495766
0.495766
0.495766
0.495766
0.495766
0.495766
0.495766
0.495766
0.495766
0.495766
0.495766
0.495766
0.495766
0.495766
0.495766
0.495766
0.495766
0.495766
0.495766
0.495766
0.495766
0.495766
0.495766
0.495766
0.495766
0.495766
0.495766
0.495766
0.495766
0.495766
0.495766
0.495766
0.495766
0.495766
0.495766
0.495766
0.495766
0.495766
0.495766
0.495766
0.495766
0.495766
0.495766
0.495766
0.495766
0.495766
0.495766
0.495766
0.495766
0.495766
0.495766
0.495766
0.495766
0.495766
0.495766
0.495766
0.495766
0.495766
0.495766
0.495766
0.495766
0.495766
0.495766
0.495766
0.495766
0.495766
0.495766
0.495766
0.495766
0.495766
0.495766
0.495766
0.495766
0.495766
0.495766
0.495766
0.495766
0.495766
0.495766
0.495766
0.495766
0.495766
0.495766
0.495766
0.495766
0.495766
0.495766
0.495766
0.495766
0.495766
0.495766
0.495766
0.495766
0.495766
0.495766
0.495766
0.495766
0.495766
0.495766
0.495766
0.495766
0.495766
0.495766
0.495766
0.495766
0.495766
0.495766
0.495766
0.495766
0.495766
0.495766
0.495766
0.495766
0.495766
0.495766
0.495766
0.495766
0.495766
0.495766
0.495766
0.495766
0.495766
0.495766
0.495766
0.495766
0.495766
0.495766
0.495766
0.495766
0.495766
0.495766
0.495766
0.495766
0.495766
0.495766
0.495766
0.495766
0.495766
0.495766
0.495766
0.495766
0.495766
0.495766
0.495766
0.495766
0.495766
0.495766
0.495766
0.495766
0.495766
0.495766
0.495766
0.495766
0.495766
0.495766
0.495766
0.495766
0.495766
0.495766
0.495766
0.495766
0.495766
0.495766
0.495766
0.495766
0.495766
0.495766
0.495766
0.495766
0.495766
0.495766
0.495766
0.495766
0.495766
0.495766
0.495766
0.495766
0.495766
0.495766
0.495766
0.495766
0.495766
0.495766
0.495766
0.495766
0.495766
0.495766
0.495766
0.495766
0.495766
0.495766
0.495766
0.495766
0.495766
0.495766
0.495766
0.495766
0.495766
0.495766
0.495766
0.495766
0.495766
0.495766
0.495766
0.495766
0.495766
0.495766
0.495766
0.495766
0.495766
0.495766
0.495766
0.495766
0.495766
0.495766
0.495766
0.495766
0.495766
0.495766
0.495766
0.495766
0.495766
0.495766
0.495766
0.495766
0.495766
0.495766
0.495766
0.495766
0.495766
0.495766
0.495766
0.495766
0.495766
0.495766
0.495766
0.495766
0.495766
0.495766
0.495766
0.495766
0.495766
0.495766
0.495766
0.495766
0.495766
0.495766
0.495766
0.495766
0.495766
0.495766
0.495766
0.495766
0.495766
0.495766
0.495766
0.495766
0.495766
0.495766
0.495766
0.495766
0.495766
0.495766
0.495766
0.495766
0.495766
0.495766
0.495766
0.495766
0.495766
0.495766
0.495766
0.495766
0.495766
0.495766
0.495766
0.495766
0.495766
0.495766
0.495766
0.495766
0.495766
0.495766
0.495766
0.495766
0.495766
0.495766
0.495766
0.495766
0.495766
0.495766
0.495766
0.495766
0.495766
0.495766
0.495766
0.495766
0.495766
0.495766
0.495766
0.495766
0.495766
0.495766
0.495766
0.495766
0.495766
0.495766
0.495766
0.495766
0.495766
0.495766
0.495766
0.495766
0.495766
0.495766
0.495766
0.495766
0.495766
0.495766
0.495766
0.495766
0.495766
0.495766
0.495766
0.495766
0.495766
0.495766
0.495766
0.495766
0.495766
0.495766
0.495766
0.495766
0.495766
0.495766
0.495766
0.495766
0.495766
0.495766
0.495766
0.495766
0.495766
0.495766
0.495766
0.495766
0.495766
0.495766
0.495766
0.495766
0.495766
0.495766
0.495766
0.495766
0.495766
0.495766
0.495766
0.495766
0.495766
0.495766
0.495766
0.495766
0.495766
0.495766
0.495766
0.495766
0.495766
0.495766
0.495766
0.495766
0.495766
0.495766
0.495766
0.495766
0.495766
0.495766
0.495766
0.495766
0.495766
0.495766
0.495766
0.495766
0.495766
0.495766
0.495766
0.495766
0.495766
0.495766
0.495766
0.495766
0.495766
0.495766
0.495766
0.495766
0.495766
0.495766
0.495766
0.495766
0.495766
0.495766
0.495766
0.495766
0.495766
0.495766
0.495766
0.495766
0.495766
0.495766
0.495766
0.495766
0.495766
0.495766
0.495766
0.495766
0.495766
0.495766
0.495766
0.495766
0.495766
0.495766
0.495766
0.495766
0.495766
0.495766
0.495766
0.495766
0.495766
0.495766
0.495766
0.495766
0.495766
0.495766
0.495766
0.495766
0.495766
0.495766
0.495766
0.495766
0.495766
0.495766
0.495766
0.495766
0.495766
0.495766
0.495766
0.495766
0.495766
0.495766
0.495766
0.495766
0.495766
0.495766
0.495766
0.495766
0.495766
0.495766
0.495766
0.495766
0.495766
0.495766
0.495766
0.495766
0.495766
0.495766
0.495766
0.495766
0.495766
0.495766
0.495766
0.495766
0.495766
0.495766
0.495766
0.495766
0.495766
0.495766
0.495766
0.495766
0.495766
0.495766
0.495766