/*--------------------------------*- C++ -*----------------------------------*\
| =========                 |                                                 |
| \\      /  F ield         | OpenFOAM: The Open Source CFD Toolbox           |
|  \\    /   O peration     | Version:  v2012                                 |
|   \\  /    A nd           | Website:  www.openfoam.com                      |
|    \\/     M anipulation  |                                                 |
\*---------------------------------------------------------------------------*/
FoamFile
{
    version     2.0;
    format      ascii;
    class       volScalarField;
    location    "50/soil2";
    object      T;
}
// * * * * * * * * * * * * * * * * * * * * * * * * * * * * * * * * * * * * * //

dimensions      [0 0 0 1 0 0 0];


internalField   nonuniform List<scalar> 
10496
(
322.322
322.231
321.889
321.669
321.652
321.748
321.877
322.007
322.125
322.228
322.312
322.376
322.421
322.452
322.471
322.483
322.49
322.493
322.494
322.494
322.493
322.493
322.494
322.496
322.499
322.501
322.501
322.497
322.487
322.47
322.448
322.42
322.39
322.357
322.325
322.296
322.271
322.248
322.23
322.216
322.205
322.197
322.19
322.184
322.179
322.175
322.17
322.167
322.164
322.162
322.163
322.166
322.172
322.179
322.187
322.196
322.204
322.212
322.221
322.229
322.24
322.254
322.272
322.296
322.326
322.361
322.401
322.446
322.494
322.543
322.593
322.642
322.69
322.736
322.781
322.825
322.868
322.905
322.937
322.96
322.976
322.989
323.008
323.044
323.124
323.309
323.706
324.366
325.173
326.057
322.048
321.938
321.576
321.338
321.305
321.387
321.505
321.624
321.733
321.828
321.905
321.962
322.002
322.027
322.041
322.049
322.051
322.05
322.048
322.044
322.041
322.039
322.037
322.038
322.039
322.04
322.038
322.032
322.021
322.003
321.979
321.952
321.922
321.891
321.86
321.83
321.806
321.789
321.775
321.76
321.747
321.734
321.725
321.72
321.715
321.71
321.705
321.701
321.698
321.697
321.699
321.704
321.711
321.719
321.728
321.737
321.747
321.756
321.764
321.774
321.786
321.8
321.82
321.844
321.874
321.91
321.951
321.996
322.045
322.095
322.145
322.195
322.243
322.289
322.335
322.38
322.423
322.461
322.493
322.516
322.533
322.548
322.568
322.607
322.689
322.878
323.278
323.942
324.754
325.648
321.733
321.608
321.228
320.972
320.922
320.99
321.095
321.204
321.306
321.394
321.465
321.518
321.553
321.575
321.586
321.59
321.59
321.587
321.582
321.577
321.572
321.568
321.565
321.564
321.564
321.563
321.561
321.554
321.54
321.521
321.496
321.468
321.437
321.406
321.374
321.345
321.322
321.31
321.299
321.284
321.269
321.25
321.236
321.232
321.227
321.221
321.215
321.209
321.207
321.207
321.21
321.216
321.224
321.232
321.242
321.252
321.261
321.271
321.28
321.29
321.302
321.318
321.337
321.362
321.393
321.429
321.471
321.517
321.566
321.617
321.668
321.717
321.766
321.813
321.859
321.905
321.948
321.986
322.019
322.043
322.061
322.077
322.1
322.142
322.23
322.425
322.831
323.502
324.319
325.214
321.371
321.229
320.83
320.555
320.489
320.541
320.632
320.73
320.821
320.901
320.965
321.011
321.042
321.059
321.066
321.067
321.063
321.057
321.05
321.043
321.036
321.031
321.026
321.023
321.021
321.02
321.016
321.008
320.993
320.972
320.944
320.913
320.881
320.849
320.817
320.787
320.765
320.759
320.753
320.737
320.719
320.693
320.673
320.668
320.662
320.654
320.647
320.642
320.639
320.641
320.645
320.652
320.66
320.669
320.679
320.689
320.698
320.708
320.718
320.729
320.741
320.757
320.777
320.803
320.834
320.871
320.913
320.959
321.009
321.06
321.111
321.161
321.21
321.258
321.305
321.35
321.394
321.434
321.467
321.494
321.514
321.533
321.561
321.608
321.701
321.903
322.317
322.994
323.816
324.707
320.975
320.815
320.398
320.105
320.021
320.058
320.136
320.221
320.3
320.369
320.423
320.461
320.485
320.497
320.499
320.496
320.488
320.479
320.469
320.459
320.45
320.442
320.436
320.431
320.427
320.423
320.418
320.41
320.396
320.373
320.344
320.309
320.273
320.239
320.206
320.175
320.156
320.156
320.156
320.138
320.117
320.084
320.056
320.051
320.043
320.034
320.026
320.022
320.021
320.023
320.028
320.035
320.043
320.052
320.062
320.072
320.082
320.092
320.102
320.113
320.126
320.143
320.163
320.189
320.221
320.258
320.301
320.347
320.397
320.449
320.501
320.551
320.601
320.649
320.697
320.744
320.789
320.831
320.868
320.898
320.923
320.948
320.98
321.033
321.132
321.34
321.76
322.443
323.268
324.155
320.574
320.397
319.962
319.652
319.552
319.575
319.641
319.714
319.782
319.839
319.882
319.911
319.927
319.933
319.93
319.922
319.911
319.898
319.884
319.87
319.858
319.847
319.838
319.831
319.824
319.818
319.813
319.806
319.794
319.774
319.743
319.705
319.664
319.625
319.589
319.558
319.541
319.547
319.553
319.534
319.511
319.471
319.434
319.428
319.419
319.41
319.403
319.401
319.402
319.404
319.408
319.413
319.42
319.429
319.439
319.45
319.461
319.471
319.482
319.493
319.506
319.523
319.544
319.57
319.602
319.64
319.683
319.73
319.78
319.832
319.885
319.936
319.987
320.037
320.086
320.134
320.182
320.228
320.269
320.305
320.337
320.367
320.405
320.463
320.567
320.78
321.205
321.892
322.72
323.602
320.189
319.996
319.546
319.22
319.106
319.116
319.171
319.235
319.293
319.339
319.373
319.393
319.402
319.402
319.395
319.383
319.367
319.35
319.332
319.315
319.299
319.285
319.273
319.262
319.252
319.243
319.237
319.232
319.225
319.21
319.182
319.14
319.092
319.046
319.005
318.971
318.956
318.967
318.979
318.96
318.935
318.888
318.844
318.836
318.827
318.82
318.819
318.819
318.82
318.82
318.82
318.822
318.828
318.837
318.848
318.859
318.87
318.881
318.892
318.903
318.917
318.934
318.955
318.981
319.014
319.052
319.095
319.143
319.194
319.248
319.301
319.354
319.406
319.458
319.509
319.56
319.611
319.66
319.707
319.749
319.787
319.823
319.864
319.926
320.034
320.251
320.68
321.37
322.2
323.078
319.829
319.62
319.156
318.817
318.691
318.69
318.735
318.789
318.84
318.879
318.906
318.919
318.922
318.917
318.906
318.891
318.872
318.852
318.831
318.811
318.792
318.774
318.758
318.744
318.729
318.716
318.707
318.705
318.704
318.698
318.676
318.635
318.58
318.522
318.471
318.433
318.418
318.433
318.448
318.428
318.402
318.352
318.301
318.291
318.285
318.286
318.291
318.295
318.293
318.286
318.279
318.276
318.28
318.29
318.302
318.314
318.326
318.336
318.347
318.359
318.373
318.39
318.412
318.439
318.472
318.511
318.556
318.605
318.658
318.713
318.768
318.823
318.877
318.93
318.983
319.036
319.09
319.143
319.194
319.241
319.283
319.322
319.366
319.43
319.542
319.763
320.195
320.887
321.718
322.594
319.491
319.268
318.791
318.441
318.305
318.294
318.33
318.376
318.42
318.455
318.476
318.484
318.482
318.472
318.458
318.439
318.419
318.397
318.375
318.354
318.334
318.314
318.296
318.279
318.26
318.242
318.229
318.227
318.233
318.238
318.227
318.19
318.13
318.059
317.993
317.945
317.925
317.939
317.956
317.936
317.909
317.857
317.803
317.794
317.796
317.809
317.823
317.827
317.817
317.798
317.78
317.772
317.775
317.786
317.8
317.813
317.825
317.836
317.847
317.859
317.874
317.891
317.914
317.942
317.977
318.017
318.063
318.114
318.169
318.226
318.283
318.34
318.395
318.449
318.504
318.559
318.614
318.67
318.724
318.773
318.817
318.858
318.905
318.971
319.086
319.31
319.745
320.438
321.27
322.145
319.171
318.935
318.446
318.087
317.941
317.922
317.949
317.988
318.026
318.055
318.004
317.973
317.948
317.928
317.913
317.9
317.888
317.878
317.867
317.857
317.846
317.833
317.819
317.802
317.78
317.756
317.736
317.729
317.733
317.744
317.743
317.712
317.647
317.56
317.473
317.407
317.376
317.382
317.397
317.378
317.352
317.301
317.25
317.248
317.264
317.294
317.317
317.318
317.296
317.262
317.234
317.222
317.226
317.238
317.253
317.266
317.277
317.287
317.297
317.309
317.322
317.339
317.361
317.389
317.423
317.463
317.51
317.56
317.615
317.672
317.729
317.785
317.84
317.894
317.949
318.005
318.062
318.12
318.177
318.233
318.302
318.362
318.423
318.502
318.625
318.857
319.298
319.995
320.83
321.704
318.863
318.615
318.116
317.747
317.594
317.568
317.588
317.62
317.653
317.635
316.361
316.112
316.111
316.183
316.272
316.358
316.435
316.498
316.548
316.583
316.604
316.61
316.604
316.583
316.548
316.503
316.456
316.419
316.398
316.391
316.382
316.349
316.281
316.183
316.076
315.988
315.936
315.92
315.919
315.894
315.862
315.811
315.765
315.764
315.785
315.819
315.836
315.823
315.783
315.734
315.696
315.679
315.679
315.688
315.699
315.708
315.716
315.725
315.734
315.744
315.756
315.771
315.791
315.815
315.845
315.879
315.917
315.96
316.005
316.051
316.097
316.143
316.189
316.234
316.28
316.325
316.37
316.411
316.442
316.469
316.933
317.258
317.492
317.685
317.886
318.171
318.647
319.368
320.223
321.109
318.564
318.304
317.796
317.419
317.259
317.226
317.24
317.266
317.293
317.276
316.005
315.76
315.761
315.832
315.92
316.006
316.083
316.146
316.196
316.232
316.254
316.261
316.255
316.235
316.202
316.156
316.105
316.061
316.034
316.028
316.029
316.011
315.954
315.854
315.734
315.627
315.555
315.522
315.514
315.489
315.455
315.408
315.373
315.385
315.421
315.466
315.479
315.45
315.389
315.324
315.279
315.261
315.264
315.274
315.285
315.294
315.303
315.312
315.321
315.333
315.346
315.362
315.383
315.409
315.44
315.475
315.514
315.557
315.603
315.649
315.696
315.742
315.788
315.833
315.878
315.923
315.967
316.008
316.038
316.064
316.524
316.844
317.074
317.263
317.462
317.745
318.218
318.937
319.789
320.669
318.27
317.999
317.482
317.097
316.93
316.891
316.9
316.92
316.942
316.926
315.699
315.464
315.461
315.525
315.606
315.686
315.755
315.813
315.857
315.889
315.908
315.914
315.907
315.887
315.855
315.812
315.76
315.71
315.676
315.667
315.674
315.674
315.634
315.543
315.417
315.295
315.202
315.15
315.131
315.106
315.07
315.028
315.009
315.036
315.085
315.133
315.135
315.085
315.005
314.93
314.883
314.868
314.874
314.886
314.897
314.907
314.916
314.927
314.938
314.95
314.965
314.983
315.005
315.032
315.063
315.099
315.14
315.183
315.229
315.276
315.324
315.37
315.416
315.461
315.507
315.552
315.597
315.637
315.668
315.694
316.141
316.453
316.677
316.864
317.061
317.343
317.816
318.534
319.386
320.261
317.977
317.695
317.168
316.775
316.602
316.557
316.56
316.575
316.592
316.577
315.392
315.165
315.158
315.215
315.288
315.361
315.424
315.475
315.513
315.54
315.554
315.557
315.547
315.527
315.497
315.458
315.409
315.354
315.311
315.291
315.296
315.307
315.286
315.211
315.091
314.961
314.851
314.775
314.742
314.713
314.676
314.641
314.64
314.681
314.735
314.776
314.759
314.688
314.594
314.515
314.472
314.463
314.472
314.485
314.496
314.507
314.518
314.529
314.542
314.555
314.571
314.59
314.613
314.641
314.673
314.71
314.751
314.795
314.842
314.889
314.937
314.984
315.03
315.076
315.122
315.168
315.213
315.256
315.289
315.317
315.753
316.058
316.277
316.461
316.657
316.938
317.411
318.129
318.98
319.852
317.679
317.386
316.849
316.448
316.268
316.217
316.215
316.224
316.237
316.222
315.081
314.863
314.851
314.9
314.965
315.03
315.087
315.133
315.165
315.185
315.194
315.191
315.178
315.156
315.129
315.097
315.055
314.999
314.948
314.912
314.904
314.916
314.907
314.852
314.748
314.623
314.501
314.402
314.351
314.314
314.277
314.254
314.273
314.322
314.371
314.395
314.355
314.267
314.168
314.094
314.059
314.055
314.064
314.076
314.087
314.099
314.111
314.124
314.138
314.152
314.169
314.189
314.212
314.241
314.273
314.311
314.352
314.397
314.444
314.492
314.54
314.587
314.634
314.68
314.726
314.773
314.82
314.865
314.901
314.931
315.357
315.652
315.867
316.047
316.242
316.522
316.994
317.712
318.562
319.431
317.373
317.068
316.521
316.111
315.924
315.867
315.859
315.863
315.871
315.858
314.765
314.555
314.539
314.578
314.635
314.693
314.745
314.786
314.813
314.826
314.827
314.817
314.798
314.773
314.748
314.726
314.696
314.647
314.593
314.542
314.513
314.512
314.504
314.464
314.384
314.274
314.151
314.032
313.958
313.91
313.875
313.87
313.908
313.96
313.993
313.995
313.937
313.843
313.75
313.688
313.66
313.656
313.659
313.666
313.676
313.689
313.703
313.717
313.731
313.746
313.764
313.784
313.809
313.837
313.871
313.908
313.95
313.995
314.043
314.091
314.139
314.187
314.234
314.281
314.328
314.377
314.426
314.474
314.514
314.546
314.958
315.245
315.452
315.629
315.821
316.1
316.571
317.289
318.138
319.005
317.058
316.74
316.182
315.764
315.569
315.505
315.49
315.489
315.492
315.48
314.44
314.241
314.22
314.25
314.297
314.349
314.397
314.435
314.459
314.466
314.457
314.437
314.409
314.378
314.354
314.342
314.329
314.297
314.252
314.194
314.143
314.119
314.097
314.062
314.002
313.914
313.799
313.667
313.566
313.503
313.476
313.493
313.549
313.597
313.611
313.594
313.53
313.445
313.369
313.319
313.292
313.277
313.269
313.267
313.274
313.288
313.303
313.318
313.333
313.348
313.366
313.387
313.412
313.441
313.475
313.513
313.555
313.601
313.649
313.697
313.746
313.794
313.842
313.889
313.938
313.989
314.041
314.092
314.135
314.17
314.568
314.844
315.045
315.217
315.407
315.683
316.153
316.87
317.719
318.583
316.737
316.406
315.837
315.409
315.206
315.135
315.114
315.106
315.105
315.094
314.112
313.924
313.897
313.918
313.955
313.999
314.045
314.083
314.107
314.11
314.092
314.058
314.016
313.976
313.948
313.945
313.953
313.946
313.924
313.875
313.812
313.764
313.72
313.675
313.622
313.553
313.451
313.312
313.186
313.106
313.089
313.132
313.201
313.239
313.237
313.217
313.165
313.102
313.047
313.002
312.963
312.927
312.898
312.885
312.889
312.904
312.921
312.936
312.951
312.966
312.984
313.005
313.031
313.061
313.095
313.133
313.176
313.222
313.27
313.319
313.368
313.417
313.465
313.514
313.565
313.618
313.673
313.727
313.774
313.81
314.195
314.46
314.654
314.822
315.009
315.284
315.753
316.468
317.316
318.178
316.418
316.073
315.493
315.055
314.844
314.765
314.737
314.723
314.716
314.705
313.78
313.6
313.569
313.579
313.606
313.642
313.685
313.726
313.753
313.755
313.729
313.68
313.62
313.562
313.525
313.526
313.552
313.575
313.589
313.566
313.511
313.453
313.39
313.327
313.267
313.202
313.111
312.971
312.828
312.732
312.727
312.791
312.864
312.894
312.888
312.88
312.855
312.821
312.779
312.727
312.662
312.595
312.544
312.52
312.522
312.538
312.556
312.571
312.585
312.6
312.617
312.639
312.665
312.695
312.729
312.769
312.812
312.858
312.906
312.956
313.006
313.055
313.105
313.156
313.209
313.265
313.323
313.381
313.431
313.471
313.845
314.103
314.293
314.459
314.643
314.917
315.385
316.1
316.947
317.808
316.108
315.749
315.158
314.71
314.49
314.404
314.369
314.348
314.335
314.314
313.45
313.273
313.232
313.229
313.241
313.265
313.299
313.338
313.366
313.367
313.332
313.264
313.18
313.099
313.049
313.05
313.092
313.146
313.201
313.218
313.194
313.153
313.091
313.018
312.943
312.867
312.778
312.643
312.502
312.404
312.414
312.494
312.563
312.589
312.588
312.603
312.604
312.587
312.542
312.463
312.36
312.259
312.186
312.153
312.155
312.172
312.19
312.206
312.219
312.234
312.251
312.274
312.3
312.33
312.366
312.406
312.45
312.498
312.548
312.599
312.65
312.702
312.754
312.808
312.865
312.924
312.986
313.048
313.103
313.15
313.516
313.773
313.965
314.132
314.319
314.594
315.064
315.78
316.628
317.494
315.809
315.436
314.834
314.377
314.148
314.054
314.012
313.984
313.959
313.936
313.892
313.842
313.779
313.709
313.644
313.598
313.579
313.584
313.596
313.587
313.539
313.451
313.341
313.241
313.187
313.207
313.292
313.403
313.526
313.614
313.653
313.667
313.639
313.574
313.48
313.374
313.263
313.109
312.966
312.858
312.874
312.956
312.998
313.013
313.01
313.039
313.052
313.03
312.957
312.831
312.677
312.537
312.448
312.418
312.432
312.463
312.493
312.518
312.54
312.562
312.588
312.618
312.653
312.694
312.742
312.794
312.851
312.912
312.976
313.04
313.106
313.172
313.238
313.306
313.377
313.453
313.534
313.618
313.701
313.778
313.853
313.919
313.989
314.077
314.211
314.452
314.899
315.602
316.441
317.305
315.513
315.126
314.513
314.045
313.808
313.706
313.657
313.622
313.588
313.55
313.506
313.448
313.375
313.296
313.219
313.161
313.136
313.145
313.17
313.18
313.146
313.057
312.933
312.808
312.728
312.731
312.808
312.92
313.053
313.166
313.25
313.323
313.349
313.315
313.224
313.1
312.973
312.817
312.721
312.635
312.658
312.725
312.732
312.758
312.762
312.805
312.823
312.792
312.697
312.541
312.363
312.212
312.124
312.101
312.119
312.151
312.18
312.204
312.224
312.243
312.265
312.291
312.323
312.363
312.408
312.459
312.514
312.573
312.635
312.699
312.765
312.831
312.899
312.969
313.043
313.122
313.205
313.291
313.375
313.452
313.522
313.587
313.656
313.744
313.877
314.117
314.564
315.266
316.104
316.973
315.198
314.796
314.171
313.694
313.448
313.339
313.282
313.241
313.2
313.154
313.099
313.032
312.953
312.866
312.78
312.71
312.675
312.683
312.72
312.75
312.736
312.66
312.531
312.388
312.283
312.261
312.32
312.414
312.533
312.649
312.767
312.897
312.987
313.003
312.941
312.833
312.719
312.575
312.555
312.505
312.519
312.538
312.465
312.465
312.427
312.437
312.427
312.369
312.248
312.077
311.898
311.758
311.685
311.673
311.697
311.73
311.759
311.784
311.807
311.828
311.851
311.877
311.909
311.949
311.994
312.043
312.096
312.153
312.213
312.276
312.343
312.411
312.481
312.553
312.629
312.71
312.796
312.883
312.968
313.048
313.119
313.187
313.258
313.348
313.482
313.723
314.17
314.871
315.709
316.579
314.837
314.419
313.782
313.295
313.04
312.924
312.862
312.815
312.77
312.719
312.658
312.585
312.501
312.408
312.312
312.228
312.178
312.174
312.21
312.254
312.262
312.204
312.083
311.932
311.808
311.765
311.803
311.874
311.967
312.074
312.212
312.39
312.534
312.598
312.581
312.528
312.482
312.381
312.468
312.472
312.47
312.42
312.234
312.17
312.04
311.986
311.933
311.843
311.702
311.53
311.364
311.245
311.188
311.185
311.21
311.242
311.273
311.303
311.332
311.356
311.381
311.406
311.436
311.474
311.515
311.558
311.604
311.655
311.711
311.773
311.84
311.91
311.981
312.055
312.134
312.217
312.304
312.392
312.479
312.559
312.632
312.701
312.774
312.865
313
313.241
313.688
314.389
315.225
316.095
314.412
313.974
313.323
312.824
312.561
312.438
312.372
312.322
312.274
312.221
312.158
312.084
311.997
311.9
311.797
311.7
311.63
311.605
311.628
311.672
311.694
311.658
311.554
311.408
311.273
311.213
311.235
311.287
311.36
311.458
311.607
311.813
311.987
312.078
312.105
312.141
312.233
312.222
312.461
312.569
312.54
312.373
312.038
311.864
311.59
311.454
311.36
311.25
311.102
310.939
310.792
310.688
310.638
310.632
310.652
310.68
310.71
310.744
310.777
310.802
310.825
310.843
310.865
310.894
310.924
310.957
310.995
311.04
311.095
311.158
311.227
311.3
311.375
311.454
311.536
311.622
311.713
311.804
311.893
311.976
312.051
312.122
312.197
312.29
312.427
312.668
313.114
313.813
314.647
315.515
313.92
313.46
312.793
312.28
312.007
311.876
311.804
311.752
311.703
311.65
311.587
311.513
311.428
311.332
311.229
311.127
311.042
310.993
310.991
311.021
311.046
311.027
310.945
310.814
310.68
310.61
310.619
310.662
310.731
310.831
310.985
311.191
311.36
311.447
311.503
311.652
311.957
312.115
312.738
313.06
312.98
312.571
311.883
311.54
311.081
310.865
310.749
310.637
310.498
310.347
310.207
310.099
310.031
310.003
310.002
310.018
310.045
310.081
310.118
310.146
310.169
310.185
310.2
310.225
310.251
310.28
310.317
310.364
310.423
310.49
310.564
310.641
310.72
310.802
310.887
310.975
311.067
311.16
311.25
311.333
311.41
311.482
311.558
311.651
311.788
312.028
312.472
313.167
313.998
314.863
313.381
312.896
312.211
311.683
311.397
311.256
311.176
311.118
311.065
311.01
310.946
310.871
310.787
310.697
310.602
310.507
310.42
310.356
310.33
310.336
310.351
310.338
310.277
310.169
310.049
309.978
309.978
310.018
310.103
310.224
310.38
310.564
310.695
310.748
310.813
311.072
311.645
312.06
313.164
313.781
313.58
312.749
311.649
311.119
310.486
310.222
310.105
310.012
309.897
309.767
309.635
309.519
309.434
309.385
309.369
309.377
309.405
309.446
309.486
309.513
309.532
309.541
309.547
309.563
309.582
309.609
309.647
309.697
309.758
309.826
309.899
309.974
310.052
310.133
310.216
310.304
310.394
310.486
310.575
310.658
310.734
310.806
310.882
310.974
311.111
311.35
311.791
312.483
313.31
314.17
312.835
312.325
311.622
311.077
310.776
310.621
310.529
310.461
310.399
310.336
310.265
310.185
310.099
310.012
309.93
309.853
309.781
309.72
309.679
309.661
309.655
309.636
309.586
309.501
309.404
309.343
309.338
309.376
309.481
309.629
309.783
309.93
310.01
310.021
310.073
310.394
311.196
311.935
314.618
315.295
314.856
313.62
311.198
310.579
309.924
309.686
309.591
309.519
309.429
309.317
309.191
309.065
308.957
308.88
308.837
308.825
308.84
308.872
308.904
308.919
308.925
308.92
308.912
308.921
308.938
308.967
309.011
309.065
309.126
309.19
309.258
309.328
309.402
309.479
309.56
309.645
309.733
309.823
309.91
309.992
310.067
310.138
310.213
310.304
310.439
310.677
311.116
311.804
312.628
313.485
312.327
311.795
311.074
310.513
310.196
310.027
309.921
309.838
309.764
309.688
309.605
309.514
309.419
309.331
309.259
309.204
309.162
309.123
309.085
309.051
309.021
308.984
308.93
308.859
308.785
308.739
308.729
308.751
308.861
309.022
309.164
309.289
309.362
309.398
309.502
309.902
310.879
311.792
313.377
313.873
313.497
312.383
310.793
310.226
309.589
309.351
309.224
309.124
309.021
308.907
308.782
308.654
308.534
308.434
308.363
308.327
308.323
308.343
308.363
308.366
308.36
308.342
308.325
308.332
308.355
308.396
308.449
308.508
308.566
308.622
308.681
308.744
308.813
308.887
308.965
309.047
309.133
309.22
309.305
309.385
309.459
309.528
309.602
309.693
309.827
310.063
310.499
311.186
312.007
312.859
311.898
311.347
310.612
310.037
309.708
309.526
309.406
309.31
309.222
309.133
309.036
308.931
308.823
308.726
308.655
308.618
308.607
308.602
308.585
308.551
308.505
308.448
308.382
308.31
308.251
308.222
308.215
308.218
308.325
308.49
308.626
308.756
308.856
308.95
309.117
309.548
310.561
311.444
309.84
310.467
310.279
309.405
310.433
309.921
309.299
309.059
308.9
308.776
308.658
308.54
308.418
308.294
308.169
308.051
307.956
307.896
307.875
307.884
307.898
307.893
307.88
307.856
307.837
307.85
307.887
307.944
308.008
308.066
308.114
308.157
308.204
308.259
308.323
308.394
308.47
308.551
308.635
308.72
308.804
308.882
308.954
309.023
309.095
309.185
309.317
309.552
309.987
310.672
311.491
312.34
311.572
311.007
310.262
309.679
309.341
309.152
309.024
308.919
308.821
308.722
308.615
308.497
308.376
308.265
308.185
308.151
308.16
308.185
308.196
308.176
308.128
308.063
307.987
307.909
307.857
307.848
307.878
307.895
308.016
308.192
308.32
308.467
308.594
308.731
308.938
309.328
310.218
310.931
306.621
307.316
307.335
306.769
310.012
309.626
309.074
308.847
308.661
308.523
308.402
308.285
308.169
308.046
307.91
307.771
307.65
307.568
307.534
307.538
307.552
307.547
307.532
307.506
307.49
307.515
307.57
307.641
307.709
307.759
307.79
307.815
307.847
307.895
307.957
308.027
308.101
308.18
308.263
308.347
308.43
308.507
308.578
308.645
308.717
308.805
308.937
309.171
309.605
310.288
311.107
311.953
311.356
310.781
310.031
309.445
309.104
308.913
308.784
308.677
308.577
308.476
308.366
308.245
308.116
307.992
307.897
307.851
307.858
307.897
307.931
307.931
307.894
307.833
307.763
307.692
307.655
307.677
307.791
307.865
308.02
308.192
308.273
308.409
308.532
308.705
308.967
309.296
309.938
310.282
304.139
304.7
304.903
304.759
309.57
309.406
308.971
308.748
308.508
308.344
308.227
308.13
308.034
307.918
307.772
307.613
307.469
307.369
307.325
307.327
307.344
307.343
307.327
307.3
307.29
307.33
307.402
307.482
307.546
307.578
307.587
307.592
307.612
307.656
307.716
307.786
307.86
307.939
308.021
308.104
308.186
308.263
308.333
308.4
308.471
308.559
308.689
308.923
309.356
310.04
310.858
311.702
311.241
310.661
309.909
309.322
308.983
308.794
308.668
308.565
308.468
308.37
308.265
308.147
308.019
307.89
307.779
307.711
307.7
307.735
307.783
307.805
307.789
307.75
307.71
307.68
307.69
307.761
307.993
308.152
308.335
308.46
308.429
308.508
307.244
307.243
307.227
307.201
307.201
307.258
307.345
307.43
307.482
307.493
307.478
307.467
307.481
307.524
307.586
307.657
307.731
307.81
307.891
307.975
308.057
308.133
308.203
308.269
308.34
308.427
308.558
308.791
309.225
309.909
310.727
311.57
311.217
310.634
309.881
309.294
308.955
308.768
308.644
308.544
308.451
308.357
308.256
308.144
308.019
307.888
307.765
307.672
307.632
307.65
307.701
307.748
307.765
307.762
307.774
307.828
307.94
308.077
308.442
308.688
308.867
308.896
308.695
308.675
307.187
307.187
307.173
307.156
307.173
307.252
307.353
307.435
307.472
307.462
307.431
307.413
307.428
307.475
307.541
307.613
307.688
307.767
307.849
307.933
308.015
308.091
308.161
308.227
308.297
308.385
308.515
308.749
309.183
309.868
310.687
311.53
311.266
310.685
309.931
309.342
309.002
308.812
308.686
308.584
308.49
308.395
308.294
308.183
308.061
307.93
307.798
307.684
307.615
307.606
307.651
307.716
307.768
307.808
307.888
308.061
308.332
308.558
309.059
309.395
309.53
309.406
309.003
308.835
307.15
307.151
307.146
307.146
307.186
307.284
307.391
307.464
307.483
307.456
307.418
307.403
307.427
307.483
307.552
307.626
307.701
307.78
307.863
307.948
308.03
308.106
308.176
308.243
308.313
308.4
308.531
308.766
309.202
309.888
310.709
311.552
311.357
310.784
310.032
309.443
309.099
308.904
308.771
308.662
308.562
308.462
308.356
308.244
308.122
307.991
307.856
307.732
307.64
307.605
307.629
307.694
307.764
307.84
307.989
308.302
308.791
309.156
309.98
310.462
310.498
310.113
309.336
308.985
307.141
307.14
307.146
307.167
307.227
307.336
307.438
307.495
307.497
307.462
307.427
307.424
307.46
307.522
307.592
307.665
307.74
307.82
307.904
307.99
308.073
308.15
308.221
308.287
308.358
308.446
308.577
308.813
309.25
309.94
310.762
311.606
311.442
310.88
310.133
309.548
309.204
309.007
308.87
308.755
308.648
308.542
308.432
308.315
308.193
308.064
307.933
307.811
307.713
307.659
307.658
307.699
307.761
307.848
308.044
308.486
309.226
309.807
311.061
311.764
311.653
310.869
309.699
309.204
307.17
307.158
307.173
307.213
307.287
307.395
307.482
307.521
307.513
307.479
307.457
307.468
307.512
307.574
307.64
307.71
307.784
307.866
307.952
308.04
308.124
308.202
308.272
308.339
308.411
308.499
308.632
308.869
309.308
310
310.825
311.671
311.485
310.93
310.189
309.61
309.271
309.077
308.942
308.827
308.719
308.611
308.499
308.382
308.26
308.136
308.014
307.9
307.806
307.742
307.712
307.714
307.737
307.799
307.992
308.494
309.433
310.326
313.236
314.103
313.814
312.636
310.064
309.491
307.224
307.196
307.215
307.271
307.35
307.446
307.516
307.544
307.535
307.514
307.508
307.53
307.573
307.626
307.683
307.747
307.822
307.906
307.995
308.084
308.169
308.248
308.32
308.388
308.46
308.55
308.684
308.922
309.364
310.059
310.886
311.732
311.482
310.927
310.188
309.613
309.281
309.094
308.965
308.856
308.753
308.649
308.54
308.425
308.305
308.186
308.069
307.959
307.863
307.785
307.731
307.705
307.713
307.778
307.99
308.534
309.607
310.701
312.836
313.547
313.237
312.083
310.214
309.654
307.285
307.242
307.264
307.33
307.401
307.481
307.538
307.564
307.566
307.563
307.572
307.597
307.629
307.666
307.712
307.772
307.848
307.935
308.027
308.118
308.205
308.285
308.359
308.428
308.502
308.593
308.728
308.968
309.413
310.11
310.938
311.786
311.456
310.892
310.151
309.576
309.247
309.065
308.943
308.843
308.748
308.651
308.548
308.437
308.321
308.204
308.091
307.986
307.894
307.819
307.767
307.747
307.766
307.836
308.028
308.512
309.517
310.567
309.484
310.251
310.075
309.1
310.032
309.53
307.355
307.303
307.326
307.391
307.442
307.506
307.556
307.587
307.603
307.616
307.635
307.655
307.672
307.693
307.73
307.789
307.867
307.957
308.05
308.143
308.231
308.313
308.387
308.458
308.533
308.626
308.763
309.005
309.452
310.152
310.982
311.83
311.435
310.859
310.111
309.531
309.199
309.017
308.898
308.801
308.711
308.62
308.52
308.412
308.3
308.191
308.094
308.014
307.955
307.915
307.896
307.898
307.924
307.978
308.1
308.412
309.127
309.895
305.836
306.619
306.643
305.982
309.498
309.176
307.495
307.446
307.469
307.52
307.536
307.584
307.625
307.657
307.681
307.704
307.723
307.733
307.736
307.745
307.777
307.835
307.913
308.001
308.093
308.184
308.271
308.351
308.425
308.496
308.571
308.664
308.802
309.045
309.494
310.195
311.026
311.876
311.439
310.855
310.101
309.515
309.176
308.988
308.863
308.763
308.67
308.574
308.471
308.361
308.254
308.162
308.097
308.063
308.055
308.06
308.064
308.064
308.066
308.088
308.155
308.301
308.598
308.779
302.361
302.963
303.21
303.089
308.709
308.746
307.7
307.669
307.69
307.716
307.678
307.709
307.73
307.754
307.777
307.802
307.82
307.822
307.816
307.823
307.854
307.911
307.985
308.068
308.154
308.241
308.325
308.403
308.475
308.544
308.619
308.711
308.849
309.093
309.542
310.244
311.074
311.922
311.458
310.873
310.118
309.529
309.187
308.994
308.864
308.757
308.655
308.549
308.437
308.324
308.224
308.155
308.128
308.141
308.174
308.2
308.198
308.164
308.119
308.101
308.139
308.213
308.247
307.821
299.057
299.069
299.448
300.008
307.982
308.411
307.968
307.961
307.975
307.964
307.845
307.843
307.82
307.818
307.833
307.857
307.87
307.869
307.866
307.879
307.916
307.974
308.045
308.124
308.207
308.292
308.377
308.456
308.53
308.6
308.675
308.767
308.904
309.146
309.593
310.291
311.119
311.963
311.472
310.887
310.133
309.545
309.204
309.011
308.88
308.77
308.663
308.552
308.434
308.32
308.231
308.185
308.188
308.228
308.273
308.29
308.257
308.186
308.112
308.08
308.105
308.166
308.217
307.843
299.042
298.729
298.826
299.293
307.817
308.269
308.359
308.385
308.38
308.309
308.084
308.018
307.914
307.871
307.871
307.885
307.89
307.887
307.892
307.919
307.967
308.03
308.102
308.181
308.267
308.358
308.449
308.535
308.613
308.686
308.759
308.848
308.979
309.213
309.65
310.338
311.154
311.99
311.483
310.898
310.144
309.557
309.217
309.025
308.895
308.785
308.678
308.565
308.448
308.339
308.259
308.224
308.234
308.27
308.297
308.282
308.212
308.108
308.018
307.984
308.009
308.055
308.072
307.667
298.78
298.28
298.249
298.712
307.588
308.106
308.912
309.009
308.967
308.793
308.433
308.266
308.04
307.942
307.924
307.928
307.925
307.924
307.942
307.985
308.047