/*--------------------------------*- C++ -*----------------------------------*\
| =========                 |                                                 |
| \\      /  F ield         | OpenFOAM: The Open Source CFD Toolbox           |
|  \\    /   O peration     | Version:  v2012                                 |
|   \\  /    A nd           | Website:  www.openfoam.com                      |
|    \\/     M anipulation  |                                                 |
\*---------------------------------------------------------------------------*/
FoamFile
{
    version     2.0;
    format      ascii;
    class       volScalarField;
    location    "450/concrete";
    object      T;
}
// * * * * * * * * * * * * * * * * * * * * * * * * * * * * * * * * * * * * * //

dimensions      [0 0 0 1 0 0 0];


internalField   nonuniform List<scalar> 
1924
(
326.064
326.135
326.2
326.159
326.029
324.797
312.054
310.762
310.654
311.605
322.879
323.725
323.638
323.527
323.412
323.362
323.362
323.396
323.46
323.55
323.659
323.777
323.899
324.017
324.133
324.255
325.99
325.997
325.978
325.837
325.726
324.54
312.083
310.827
310.78
311.912
324.158
325.255
325.17
325.006
324.791
324.624
324.49
324.385
324.312
324.274
324.269
324.288
324.324
324.371
324.43
324.51
325.777
325.643
325.451
325.234
325.288
324.167
311.572
310.285
310.262
311.511
324.343
325.597
325.433
325.31
325.148
325.037
324.944
324.864
324.797
324.748
324.715
324.697
324.692
324.701
324.725
324.776
325.31
325.014
324.62
324.281
323.823
322.7
311.988
310.834
310.82
312.028
323.78
325.465
326.059
326.043
325.726
325.403
325.147
324.968
324.861
324.803
324.782
324.785
324.805
324.839
324.885
324.956
324.545
324.241
323.765
322.267
303.435
300.43
298.589
298.085
298.093
298.642
300.667
304.039
325.017
326.17
325.824
325.47
325.205
325.023
324.942
324.903
324.91
324.949
325.012
325.097
325.195
325.313
323.715
323.689
323.581
322.044
300.65
297.178
296.191
295.904
295.912
296.228
297.308
301.111
324.51
326.25
326.085
325.779
325.512
325.318
325.201
325.155
325.155
325.194
325.265
325.373
325.477
325.583
323.141
323.412
323.595
322.198
300.112
296.487
295.597
295.36
295.367
295.626
296.591
300.514
324.372
326.236
326.142
325.859
325.592
325.384
325.246
325.175
325.152
325.165
325.207
325.285
325.363
325.441
322.939
323.32
323.629
322.341
299.997
296.319
295.438
295.212
295.218
295.465
296.415
300.373
324.343
326.235
326.151
325.838
325.543
325.312
325.149
325.052
325.006
324.995
325.023
325.069
325.116
325.172
322.811
323.203
323.514
322.251
299.963
296.292
295.417
295.195
295.201
295.444
296.392
300.363
324.404
326.342
326.243
325.95
325.644
325.389
325.197
325.075
325.008
324.979
324.981
324.998
325.022
325.061
322.822
323.123
323.311
321.966
299.973
296.36
295.504
295.287
295.292
295.53
296.469
300.439
324.59
326.633
326.519
326.24
325.899
325.605
325.379
325.232
325.149
325.102
325.082
325.08
325.091
325.122
323.254
323.266
323.159
321.652
300.173
296.696
295.883
295.676
295.677
295.899
296.8
300.702
324.896
327.109
327.1
326.528
326.099
325.777
325.556
325.411
325.32
325.269
325.247
325.246
325.26
325.296
324
323.714
323.198
321.524
301.337
298.243
297.533
297.34
297.321
297.491
298.26
301.787
325.081
326.842
326.616
326.23
325.9
325.669
325.521
325.432
325.386
325.371
325.38
325.406
325.444
325.498
324.71
324.341
323.661
322.165
309.75
308.161
307.687
307.447
307.299
307.267
307.574
309.342
323.687
325.174
325.333
325.304
325.269
325.26
325.275
325.308
325.353
325.408
325.47
325.537
325.606
325.679
325.191
324.921
324.312
322.744
310.631
309.263
308.91
308.757
308.679
308.687
308.931
310.296
322.95
324.391
324.732
324.884
324.997
325.104
325.209
325.31
325.408
325.504
325.598
325.687
325.769
325.842
325.438
325.284
324.831
323.294
310.714
309.359
309.046
308.92
308.859
308.867
309.08
310.37
323.088
324.508
324.861
325.028
325.149
325.259
325.364
325.466
325.564
325.66
325.753
325.84
325.912
325.931
325.563
325.474
325.148
323.726
310.843
309.485
309.191
309.08
309.028
309.039
309.241
310.503
323.288
324.661
324.988
325.144
325.261
325.368
325.471
325.573
325.672
325.771
325.866
325.95
326.007
325.979
325.641
325.577
325.332
324.098
312.145
310.893
310.629
310.533
310.491
310.505
310.687
311.842
323.681
324.924
325.211
325.348
325.451
325.545
325.636
325.726
325.816
325.907
325.994
326.065
326.07
325.725
325.695
325.645
325.47
324.539
315.339
314.365
314.16
314.087
314.059
314.073
314.22
315.122
324.264
325.23
325.455
325.566
325.653
325.732
325.809
325.886
325.965
326.045
326.121
326.171
326.099
325.295
325.723
325.689
325.586
325.033
319.709
319.124
318.999
318.959
318.948
318.965
319.066
319.622
324.94
325.538
325.692
325.775
325.845
325.91
325.973
326.037
326.103
326.171
326.234
326.261
326.119
324.923
325.728
325.711
325.671
325.456
323.619
323.39
323.342
323.334
323.339
323.36
323.42
323.66
325.524
325.785
325.874
325.933
325.986
326.039
326.091
326.143
326.198
326.254
326.305
326.316
326.132
324.756
325.719
325.715
325.718
325.712
325.904
325.896
325.9
325.913
325.931
325.953
325.986
326.031
325.883
325.935
325.981
326.023
326.066
326.11
326.154
326.198
326.244
326.291
326.33
326.329
326.13
324.774
325.706
325.71
325.732
325.802
326.558
326.631
326.658
326.682
326.706
326.729
326.75
326.726
326.02
325.998
326.025
326.059
326.095
326.134
326.174
326.214
326.254
326.293
326.324
326.313
326.109
324.765
325.695
325.702
325.729
325.796
326.326
326.395
326.427
326.453
326.479
326.503
326.522
326.504
326.025
326.009
326.033
326.063
326.097
326.133
326.171
326.208
326.245
326.279
326.303
326.286
326.083
324.764
325.687
325.696
325.721
325.763
325.942
325.985
326.014
326.04
326.065
326.09
326.112
326.12
325.994
326.005
326.031
326.061
326.093
326.127
326.163
326.199
326.233
326.264
326.286
326.269
326.082
324.867
325.682
325.691
325.716
325.743
325.737
325.762
325.789
325.814
325.839
325.865
325.89
325.915
325.975
326.004
326.031
326.06
326.091
326.124
326.158
326.192
326.225
326.255
326.276
326.265
326.116
325.138
325.678
325.689
325.714
325.739
325.706
325.727
325.753
325.778
325.804
325.83
325.858
325.888
325.976
326.009
326.036
326.064
326.094
326.124
326.156
326.189
326.221
326.25
326.272
326.272
326.178
325.542
325.675
325.687
325.714
325.742
325.741
325.764
325.79
325.816
325.842
325.869
325.897
325.926
325.985
326.016
326.042
326.069
326.097
326.126
326.157
326.187
326.218
326.247
326.271
326.281
326.244
325.951
325.673
325.686
325.716
325.747
325.77
325.796
325.823
325.848
325.875
325.903
325.931
325.959
325.994
326.023
326.049
326.074
326.101
326.128
326.157
326.186
326.216
326.244
326.269
326.289
326.294
326.244
325.672
325.687
325.717
325.75
325.781
325.807
325.834
325.861
325.888
325.915
325.944
325.972
326.001
326.029
326.054
326.079
326.104
326.13
326.158
326.186
326.214
326.241
326.267
326.292
326.319
326.384
325.671
325.688
325.719
325.753
325.782
325.808
325.835
325.862
325.89
325.918
325.946
325.974
326.006
326.035
326.06
326.083
326.107
326.133
326.159
326.185
326.212
326.239
326.265
326.292
326.326
326.413
325.672
325.689
325.722
325.755
325.782
325.808
325.836
325.863
325.891
325.919
325.947
325.976
326.01
326.04
326.065
326.088
326.111
326.135
326.16
326.186
326.212
326.237
326.264
326.291
326.324
326.394
325.673
325.692
325.724
325.758
325.783
325.81
325.838
325.867
325.895
325.923
325.951
325.979
326.014
326.045
326.07
326.094
326.116
326.139
326.163
326.187
326.212
326.237
326.263
326.29
326.32
326.372
325.676
325.694
325.727
325.76
325.786
325.814
325.843
325.871
325.9
325.928
325.956
325.984
326.018
326.049
326.075
326.099
326.121
326.144
326.166
326.19
326.214
326.238
326.264
326.29
326.319
326.363
325.678
325.697
325.729
325.762
325.79
325.818
325.847
325.877
325.906
325.934
325.962
325.99
326.022
326.053
326.079
326.104
326.127
326.149
326.171
326.194
326.217
326.241
326.266
326.291
326.32
326.363
325.681
325.7
325.732
325.764
325.793
325.823
325.853
325.883
325.912
325.94
325.968
325.996
326.027
326.057
326.084
326.109
326.133
326.155
326.177
326.199
326.222
326.246
326.27
326.295
326.323
326.367
325.687
325.706
325.737
325.77
325.8
325.83
325.861
325.891
325.92
325.949
325.978
326.005
326.035
326.064
326.091
326.117
326.141
326.164
326.186
326.208
326.231
326.254
326.278
326.303
326.33
326.373
325.705
325.726
325.759
325.792
325.823
325.854
325.885
325.916
325.945
325.974
326.003
326.031
326.059
326.087
326.114
326.14
326.165
326.189
326.212
326.234
326.257
326.28
326.304
326.327
326.353
326.393
327.629
327.717
327.799
327.771
327.732
326.872
312.189
311.246
311.145
311.776
324.8
325.274
325.076
324.93
324.792
324.734
324.733
324.771
324.842
324.941
325.06
325.191
325.323
325.453
325.577
325.703
327.567
327.59
327.584
327.446
327.435
326.621
312.291
311.377
311.333
312.129
326.258
326.994
326.792
326.591
326.343
326.157
326.007
325.887
325.804
325.759
325.75
325.768
325.805
325.854
325.915
325.991
327.351
327.222
327.028
326.825
327.075
326.345
311.754
310.786
310.761
311.679
326.532
327.403
327.024
326.851
326.671
326.563
326.474
326.394
326.326
326.272
326.235
326.214
326.206
326.212
326.233
326.277
326.862
326.554
326.15
325.939
326.19
325.513
312.961
312.042
312.02
312.969
326.764
328.063
327.898
327.708
327.317
326.956
326.676
326.483
326.366
326.303
326.278
326.281
326.303
326.34
326.389
326.456
326.037
325.726
325.298
324.304
302.093
299.439
297.816
297.386
297.393
297.861
299.647
302.627
327.399
327.924
327.413
327.013
326.727
326.535
326.458
326.418
326.428
326.47
326.537
326.629
326.737
326.86
325.135
325.141
325.174
324.318
299.618
296.555
295.711
295.467
295.473
295.742
296.666
300.021
327.028
328.058
327.722
327.368
327.081
326.876
326.753
326.706
326.705
326.744
326.814
326.931
327.042
327.143
324.522
324.857
325.223
324.576
299.16
295.964
295.203
295.002
295.008
295.228
296.053
299.51
326.945
328.061
327.788
327.455
327.168
326.945
326.799
326.721
326.695
326.704
326.743
326.823
326.903
326.975
324.328
324.773
325.276
324.768
299.063
295.821
295.069
294.877
294.881
295.091
295.903
299.391
326.933
328.064
327.798
327.426
327.104
326.857
326.684
326.58
326.529
326.515
326.542
326.589
326.636
326.686
324.196
324.647
325.15
324.672
299.033
295.798
295.051
294.862
294.867
295.073
295.883
299.382
327.001
328.179
327.889
327.544
327.212
326.939
326.735
326.607
326.535
326.503
326.505
326.521
326.543
326.576
324.199
324.553
324.921
324.337
299.04
295.856
295.124
294.94
294.944
295.147
295.949
299.448
327.195
328.492
328.176
327.858
327.489
327.174
326.932
326.776
326.69
326.639
326.617
326.613
326.622
326.646
324.668
324.699
324.736
323.943
299.21
296.143
295.448
295.273
295.273
295.462
296.232
299.674
327.514
329.037
328.861
328.175
327.71
327.361
327.124
326.969
326.871
326.815
326.791
326.788
326.801
326.831
325.486
325.185
324.74
323.68
300.242
297.51
296.903
296.739
296.722
296.865
297.521
300.637
327.704
328.75
328.314
327.858
327.492
327.24
327.079
326.983
326.933
326.917
326.926
326.953
326.991
327.041
326.255
325.864
325.209
324.109
310.14
308.962
308.568
308.332
308.163
308.087
308.271
309.578
325.785
326.812
326.868
326.817
326.781
326.776
326.796
326.834
326.884
326.945
327.013
327.085
327.159
327.231
326.765
326.488
325.915
324.673
310.812
309.808
309.531
309.392
309.31
309.295
309.451
310.423
324.879
325.95
326.221
326.367
326.489
326.608
326.724
326.835
326.942
327.046
327.147
327.244
327.333
327.407
327.013
326.868
326.473
325.269
310.806
309.813
309.574
309.461
309.396
309.384
309.515
310.429
325.048
326.111
326.395
326.551
326.676
326.791
326.903
327.01
327.114
327.216
327.316
327.41
327.49
327.517
327.132
327.059
326.804
325.731
310.863
309.861
309.639
309.541
309.486
309.478
309.602
310.497
325.249
326.268
326.526
326.672
326.791
326.903
327.013
327.12
327.226
327.331
327.433
327.527
327.597
327.581
327.204
327.159
326.982
326.076
312.247
311.318
311.119
311.034
310.99
310.986
311.099
311.922
325.619
326.54
326.764
326.891
326.996
327.093
327.189
327.284
327.38
327.476
327.571
327.655
327.689
327.41
327.253
327.222
327.102
326.428
315.796
315.073
314.918
314.855
314.824
314.826
314.918
315.563
326.128
326.844
327.019
327.123
327.21
327.293
327.374
327.456
327.539
327.624
327.708
327.774
327.755
327.133
327.278
327.26
327.193
326.798
320.694
320.263
320.171
320.137
320.125
320.134
320.202
320.6
326.698
327.143
327.265
327.345
327.416
327.484
327.551
327.618
327.688
327.761
327.831
327.878
327.807
326.899
327.28
327.276
327.254
327.106
325.062
324.898
324.866
324.862
324.869
324.886
324.931
325.107
327.181
327.379
327.454
327.511
327.566
327.621
327.676
327.731
327.789
327.85
327.909
327.941
327.839
326.808
327.269
327.275
327.283
327.288
327.578
327.58
327.588
327.604
327.623
327.646
327.677
327.716
327.473
327.518
327.562
327.605
327.65
327.696
327.742
327.789
327.838
327.888
327.935
327.956
327.842
326.866
327.254
327.266
327.29
327.348
328.256
328.318
328.345
328.37
328.396
328.422
328.446
328.437
327.582
327.575
327.605
327.64
327.679
327.72
327.762
327.804
327.847
327.889
327.927
327.938
327.818
326.86
327.242
327.257
327.285
327.341
327.958
328.016
328.047
328.075
328.102
328.128
328.152
328.148
327.586
327.583
327.611
327.643
327.679
327.717
327.757
327.797
327.836
327.873
327.904
327.908
327.785
326.846
327.234
327.251
327.278
327.317
327.514
327.553
327.582
327.609
327.636
327.663
327.688
327.702
327.562
327.58
327.608
327.64
327.674
327.71
327.748
327.786
327.823
327.857
327.885
327.887
327.773
326.906
327.228
327.246
327.274
327.302
327.286
327.313
327.34
327.367
327.394
327.421
327.448
327.475
327.549
327.579
327.609
327.64
327.672
327.707
327.743
327.779
327.814
327.847
327.873
327.877
327.788
327.092
327.224
327.243
327.272
327.3
327.257
327.281
327.309
327.335
327.362
327.391
327.419
327.449
327.551
327.585
327.614
327.644
327.675
327.707
327.741
327.776
327.81
327.841
327.867
327.878
327.825
327.377
327.221
327.242
327.272
327.303
327.299
327.325
327.353
327.38
327.407
327.436
327.466
327.496
327.56
327.593
327.62
327.649
327.679
327.71
327.742
327.774
327.807
327.838
327.865
327.882
327.867
327.665
327.218
327.241
327.273
327.307
327.333
327.361
327.389
327.416
327.444
327.474
327.504
327.533
327.569
327.6
327.627
327.654
327.682
327.712
327.742
327.773
327.804
327.835
327.862
327.886
327.898
327.872
327.217
327.241
327.275
327.311
327.344
327.372
327.401
327.429
327.457
327.487
327.517
327.546
327.576
327.607
327.633
327.659
327.686
327.714
327.743
327.772
327.802
327.831
327.859
327.886
327.913
327.969
327.217
327.242
327.277
327.313
327.344
327.372
327.401
327.43
327.459
327.489
327.519
327.548
327.581
327.613
327.639
327.664
327.689
327.716
327.744
327.772
327.801
327.829
327.857
327.885
327.917
327.987
327.217
327.244
327.28
327.316
327.344
327.372
327.402
327.431
327.46
327.49
327.52
327.55
327.586
327.618
327.644
327.669
327.694
327.719
327.746
327.773
327.8
327.827
327.855
327.883
327.915
327.972
327.219
327.246
327.283
327.318
327.346
327.374
327.404
327.434
327.464
327.494
327.524
327.553
327.59
327.623
327.65
327.675
327.699
327.723
327.748
327.774
327.801
327.827
327.854
327.882
327.912
327.956
327.221
327.249
327.285
327.321
327.349
327.378
327.409
327.44
327.47
327.5
327.529
327.559
327.595
327.627
327.655
327.68
327.704
327.728
327.752
327.777
327.803
327.829
327.855
327.882
327.912
327.95
327.224
327.252
327.288
327.323
327.352
327.383
327.414
327.445
327.476
327.506
327.536
327.565
327.599
327.631
327.66
327.686
327.71
327.734
327.757
327.781
327.806
327.832
327.858
327.884
327.913
327.951
327.227
327.255
327.29
327.326
327.356
327.387
327.419
327.451
327.482
327.512
327.542
327.572
327.604
327.636
327.664
327.691
327.716
327.74
327.763
327.787
327.811
327.836
327.862
327.888
327.916
327.954
327.232
327.26
327.295
327.33
327.362
327.394
327.427
327.459
327.49
327.52
327.55
327.58
327.611
327.642
327.67
327.698
327.724
327.748
327.771
327.795
327.819
327.844
327.869
327.895
327.922
327.96
327.245
327.274
327.309
327.345
327.378
327.411
327.444
327.476
327.508
327.538
327.569
327.598
327.628
327.658
327.687
327.714
327.741
327.766
327.79
327.814
327.838
327.863
327.888
327.913
327.939
327.974
)
;

boundaryField
{
    concrete_to_air
    {
        type            compressible::turbulentTemperatureRadCoupledMixed;
        refValue        nonuniform List<scalar> 
898
(
313.312
313.358
313.386
313.395
313.419
313.44
313.207
312.907
312.581
312.302
312.262
312.237
312.221
312.214
312.213
312.217
312.227
312.239
312.255
312.274
312.294
312.314
312.336
312.358
312.38
312.402
313.26
313.262
313.227
313.168
313.17
313.197
313.044
312.904
312.764
312.634
312.702
312.762
312.803
312.824
312.826
312.812
312.785
312.753
312.72
312.691
312.667
312.649
312.638
312.632
312.632
312.636
313.12
313.054
312.948
312.851
312.875
312.924
312.752
312.6
312.472
312.37
312.508
312.638
312.745
312.834
312.904
312.955
312.985
312.996
312.992
312.978
312.96
312.942
312.926
312.913
312.903
312.898
312.852
312.738
312.612
312.57
312.679
312.814
312.605
312.417
312.275
312.192
312.545
312.861
313.106
313.253
313.328
313.356
313.355
313.338
313.313
313.285
313.259
313.236
313.217
313.204
313.196
313.194
312.486
312.404
312.352
312.439
313.88
313.601
313.4
313.293
313.241
313.218
313.212
313.231
313.245
313.258
313.27
313.282
313.295
313.311
312.136
312.148
312.22
312.452
313.517
313.183
312.985
312.867
312.79
312.741
312.713
312.697
312.689
312.686
312.687
312.701
312.725
312.749
311.873
311.974
312.146
312.518
313.348
312.966
312.756
312.621
312.522
312.448
312.397
312.365
312.346
312.337
312.338
312.356
312.381
312.405
311.66
311.807
312.041
312.519
313.256
312.861
312.644
312.49
312.381
312.299
312.239
312.199
312.175
312.163
312.166
312.179
312.196
312.214
311.463
311.628
311.88
312.393
313.264
312.836
312.61
312.487
312.383
312.293
312.221
312.174
312.147
312.134
312.134
312.141
312.154
312.169
311.437
311.586
311.807
312.251
313.361
312.942
312.689
312.609
312.492
312.383
312.297
312.242
312.215
312.202
312.198
312.204
312.215
312.232
311.595
311.664
311.793
312.112
313.595
313.306
313.112
312.775
312.603
312.478
312.397
312.349
312.324
312.314
312.317
312.329
312.349
312.374
311.872
311.856
311.87
312.057
313.688
313.194
312.855
312.644
312.506
312.429
312.393
312.384
312.391
312.41
312.438
312.474
312.515
312.561
312.164
312.113
312.053
312.094
311.913
311.702
311.489
311.286
311.102
310.943
310.819
310.772
311.267
311.571
311.779
311.935
312.06
312.165
312.256
312.338
312.414
312.487
312.559
312.632
312.706
312.779
312.41
312.383
312.32
312.274
312.086
311.919
311.77
311.639
311.525
311.426
311.344
311.284
311.489
311.676
311.84
311.988
312.122
312.246
312.361
312.469
312.572
312.671
312.769
312.864
312.958
313.04
312.61
312.622
312.595
312.544
312.344
312.174
312.026
311.898
311.785
311.687
311.603
311.539
311.708
311.874
312.031
312.18
312.321
312.454
312.58
312.7
312.815
312.927
313.034
313.138
313.23
313.284
312.807
312.839
312.847
312.829
312.633
312.459
312.307
312.175
312.059
311.957
311.869
311.801
311.949
312.102
312.251
312.397
312.538
312.675
312.808
312.936
313.059
313.178
313.291
313.392
313.465
313.438
313.006
313.044
313.072
313.082
312.915
312.761
312.624
312.503
312.396
312.303
312.223
312.163
312.297
312.437
312.577
312.715
312.85
312.982
313.109
313.232
313.35
313.462
313.565
313.644
313.669
313.486
313.171
313.214
313.253
313.282
313.17
313.062
312.965
312.88
312.806
312.744
312.693
312.659
312.774
312.896
313.017
313.137
313.255
313.37
313.481
313.588
313.69
313.786
313.871
313.928
313.92
313.67
313.267
313.318
313.367
313.411
313.37
313.328
313.29
313.259
313.235
313.22
313.214
313.219
313.31
313.405
313.5
313.595
313.687
313.777
313.863
313.946
314.025
314.1
314.166
314.204
314.172
313.884
313.297
313.355
313.412
313.466
313.489
313.508
313.528
313.55
313.575
313.604
313.638
313.678
313.747
313.818
313.889
313.958
314.027
314.094
314.158
314.22
314.28
314.336
314.389
314.417
314.379
314.091
313.289
313.351
313.412
313.472
313.532
313.59
313.646
313.701
313.757
313.814
313.871
313.931
313.987
314.042
314.097
314.151
314.204
314.256
314.307
314.356
314.404
314.45
314.494
314.536
314.55
314.468
313.272
313.335
313.397
313.458
313.53
313.599
313.668
313.735
313.801
313.866
313.93
313.994
314.045
314.095
314.144
314.192
314.239
314.286
314.331
314.376
314.419
314.462
314.504
314.545
314.578
314.575
313.26
313.322
313.383
313.444
313.511
313.579
313.645
313.71
313.773
313.836
313.897
313.957
314.008
314.058
314.107
314.155
314.202
314.248
314.293
314.337
314.381
314.424
314.466
314.507
314.545
314.571
313.253
313.314
313.374
313.434
313.495
313.556
313.616
313.676
313.734
313.792
313.849
313.904
313.956
314.007
314.057
314.106
314.154
314.201
314.248
314.293
314.338
314.382
314.424
314.466
314.506
314.537
313.249
313.309
313.369
313.427
313.485
313.542
313.598
313.654
313.709
313.764
313.818
313.87
313.923
313.974
314.025
314.075
314.123
314.171
314.218
314.264
314.309
314.354
314.397
314.44
314.48
314.514
313.246
313.305
313.364
313.422
313.479
313.535
313.59
313.645
313.699
313.752
313.805
313.857
313.909
313.96
314.011
314.06
314.109
314.157
314.204
314.25
314.295
314.34
314.384
314.426
314.468
314.504
313.242
313.302
313.36
313.418
313.474
313.53
313.586
313.64
313.694
313.747
313.8
313.852
313.903
313.954
314.004
314.053
314.102
314.149
314.196
314.242
314.287
314.332
314.376
314.419
314.461
314.5
313.239
313.298
313.356
313.414
313.471
313.526
313.582
313.636
313.69
313.743
313.796
313.847
313.899
313.949
313.999
314.048
314.096
314.143
314.19
314.236
314.281
314.326
314.369
314.412
314.455
314.496
313.237
313.295
313.353
313.411
313.467
313.523
313.578
313.632
313.686
313.739
313.791
313.843
313.893
313.944
313.993
314.042
314.09
314.137
314.184
314.229
314.274
314.319
314.363
314.406
314.448
314.491
313.235
313.293
313.351
313.408
313.464
313.519
313.574
313.628
313.682
313.734
313.786
313.838
313.888
313.938
313.988
314.036
314.084
314.131
314.178
314.223
314.268
314.313
314.357
314.4
314.442
314.485
313.233
313.291
313.348
313.405
313.461
313.517
313.571
313.625
313.678
313.73
313.782
313.833
313.884
313.934
313.983
314.031
314.079
314.126
314.172
314.218
314.263
314.307
314.351
314.394
314.437
314.479
313.231
313.289
313.347
313.403
313.459
313.514
313.568
313.622
313.675
313.727
313.779
313.83
313.88
313.93
313.979
314.027
314.075
314.122
314.168
314.214
314.259
314.303
314.347
314.39
314.433
314.475
313.23
313.288
313.345
313.401
313.457
313.512
313.566
313.62
313.673
313.725
313.776
313.827
313.877
313.927
313.976
314.024
314.072
314.119
314.165
314.21
314.255
314.299
314.343
314.386
314.429
314.471
313.228
313.286
313.344
313.4
313.456
313.51
313.564
313.618
313.671
313.723
313.774
313.825
313.875
313.924
313.973
314.021
314.069
314.116
314.162
314.207
314.252
314.296
314.34
314.383
314.426
314.468
313.227
313.285
313.342
313.399
313.454
313.509
313.563
313.616
313.669
313.721
313.772
313.823
313.873
313.922
313.971
314.019
314.066
314.113
314.159
314.205
314.25
314.294
314.337
314.381
314.423
314.465
313.226
313.284
313.341
313.398
313.453
313.508
313.562
313.615
313.668
313.719
313.771
313.821
313.871
313.921
313.969
314.017
314.065
314.111
314.158
314.203
314.248
314.292
314.336
314.379
314.421
314.463
313.226
313.284
313.341
313.397
313.453
313.507
313.561
313.615
313.667
313.719
313.77
313.821
313.871
313.92
313.969
314.017
314.064
314.111
314.157
314.202
314.247
314.292
314.335
314.378
314.421
314.463
)
;
        refGradient     nonuniform List<scalar> 
898
(
58.4228
58.8291
59.5907
60.5483
62.2283
65.8511
-3.30664
-0.0874789
0.387585
-1.56287
76.1316
74.573
73.9337
73.7385
73.1106
72.5589
71.9965
71.3925
70.7729
70.1749
69.6135
69.0727
68.5347
67.9932
67.4504
66.8943
58.6171
59.4089
60.9844
63.0061
65.502
69.1708
-1.6102
1.24799
1.58761
-0.663455
71.2756
68.2856
66.6056
66.0789
65.6308
65.6566
65.861
66.0911
66.2925
66.4466
66.5305
66.5217
66.4108
66.2059
65.9227
65.5577
59.2922
60.6172
63.2298
66.3719
70.784
74.2064
-3.25969
-0.933124
-0.540808
-2.30666
74.3974
70.6025
66.2512
64.8502
63.9517
63.7083
63.7061
63.8234
64.007
64.2117
64.3872
64.4962
64.5214
64.4605
64.3186
64.0856
61.321
63.1882
66.322
69.6471
82.4965
85.1901
13.4283
14.6513
14.9056
13.8326
80.8536
75.8949
61.4204
59.8315
60.3815
61.596
62.6028
63.3401
63.8072
64.0519
64.1166
64.0598
63.9316
63.766
63.5491
63.2193
64.7459
66.2222
68.1713
71.8267
58.429
56.5486
59.0403
60.9219
62.128
62.9566
63.3769
63.5759
63.51
63.2744
62.916
62.4657
62.0004
61.5206
69.2285
69.2728
69.0954
71.581
60.2631
56.4054
57.7739
59.2726
60.5181
61.4152
61.9681
62.2013
62.1837
61.9785
61.565
61.0409
60.5241
60.0262
71.9874
70.4373
68.6529
70.0672
60.3736
56.3331
57.4177
58.7944
60.0411
61.0246
61.6726
62.0148
62.1255
62.0664
61.8668
61.4604
61.0582
60.7169
72.6654
70.6307
68.2111
68.9328
60.2172
56.2434
57.3186
58.8931
60.2946
61.3958
62.1787
62.6412
62.8573
62.9111
62.7704
62.5422
62.3232
62.0995
73.1283
71.0777
68.6479
69.213
59.7503
55.5649
56.7771
58.2025
59.6514
60.8869
61.8266
62.4109
62.7243
62.8572
62.841
62.7741
62.6784
62.5487
73.0454
71.4356
69.6223
70.6882
58.728
53.8709
55.2416
56.5193
58.1748
59.6358
60.7731
61.503
61.8803
62.0974
62.205
62.2367
62.2111
62.1309
70.8337
70.7385
70.4785
72.5484
57.052
50.7918
51.4022
54.7542
56.9719
58.6265
59.7521
60.4762
60.9173
61.1712
61.2969
61.3281
61.2855
61.1809
66.9433
68.4582
70.571
74.0557
55.6965
52.0017
54.1395
56.2724
57.9848
59.1635
59.9161
60.3549
60.5744
60.6478
60.6227
60.5237
60.3635
60.1563
63.3372
65.2457
68.2321
71.9162
-3.10693
-0.28953
0.59389
1.19435
1.69848
2.04252
1.84129
-1.32533
63.9023
61.1663
61.152
61.3712
61.4795
61.4507
61.3125
61.0958
60.8288
60.5361
60.2337
59.9239
59.602
59.2831
60.9131
62.2346
64.7798
69.3328
-4.2094
-1.60567
-0.997606
-0.691214
-0.459416
-0.308618
-0.491545
-2.97289
68.3156
65.0928
64.1112
63.4506
62.8376
62.244
61.6667
61.1075
60.5731
60.0739
59.6175
59.2019
58.8174
58.495
59.7556
60.4241
62.0979
66.561
-5.96109
-3.23802
-2.6304
-2.35486
-2.14962
-2.01543
-2.21599
-4.71393
67.4615
64.0764
63.0379
62.3874
61.8133
61.273
60.7507
60.2387
59.7392
59.263
58.8237
58.4329
58.1029
57.9887
59.2463
59.5424
60.5434
64.4094
-7.37345
-4.57749
-3.97165
-3.72397
-3.54628
-3.43624
-3.66668
-6.18963
66.5911
63.3016
62.3582
61.7911
61.2757
60.7657
60.2564
59.7481
59.2446
58.7545
58.2948
57.8947
57.6053
57.711
58.9856
59.1274
59.7594
62.9369
-2.67202
-0.0305421
0.553473
0.788089
0.948061
1.03417
0.790237
-1.59699
65.0353
62.0293
61.2057
60.7376
60.3152
59.8842
59.4411
58.9905
58.536
58.083
57.6502
57.294
57.1764
58.3997
58.8326
58.9002
59.2964
61.6212
12.0393
14.1774
14.6807
14.892
15.0235
15.0719
14.8354
12.8769
63.0396
60.6766
60.0184
59.6425
59.3024
58.9464
58.5696
58.1787
57.7788
57.3734
56.9811
56.681
56.7561
59.2004
58.7773
58.7902
58.9912
60.3398
32.7928
34.1338
34.4684
34.6085
34.6784
34.6715
34.4631
33.174
60.874
59.3751
58.8979
58.5977
58.3215
58.0308
57.719
57.3913
57.0532
56.7085
56.3731
56.1426
56.3947
59.8231
58.8023
58.7692
58.8103
59.3027
50.9081
51.4368
51.5685
51.6069
51.5972
51.5328
51.3618
50.7481
59.0479
58.3511
58.0446
57.8135
57.5919
57.3575
57.1032
56.8313
56.5477
56.2581
55.9785
55.8075
56.1576
59.9635
58.8669
58.8009
58.7371
58.7018
60.7889
60.7747
60.7516
60.7056
60.6338
60.5307
60.3916
60.2224
57.9394
57.7439
57.5498
57.3641
57.1771
56.9799
56.7665
56.5367
56.2961
56.0544
55.8325
55.7114
56.0763
59.4621
58.9315
58.8459
58.7317
58.5048
62.9134
62.6927
62.593
62.5007
62.3965
62.2767
62.1543
62.1429
57.5077
57.4912
57.3478
57.1865
57.0199
56.8467
56.6622
56.4637
56.2541
56.0432
55.8553
55.7725
56.1542
59.4447
58.9792
58.8838
58.7549
58.5355
61.2034
60.9881
60.8704
60.7632
60.6504
60.5296
60.4125
60.3829
57.4807
57.4504
57.316
57.1632
57.0052
56.844
56.6768
56.4999
56.3141
56.1281
55.9667
55.9093
56.2967
59.514
59.0109
58.9104
58.7811
58.6216
59.1924
59.0386
58.9239
58.8131
58.6993
58.5813
58.4631
58.3701
57.5589
57.4644
57.3242
57.1742
57.021
56.8669
56.7112
56.5506
56.3839
56.2174
56.0728
56.022
56.3764
59.3452
59.033
58.929
58.8006
58.679
58.2702
58.1535
58.0402
57.9255
57.8099
57.6933
57.5734
57.4407
57.6024
57.4675
57.3226
57.175
57.0262
56.8777
56.73
56.5815
56.4304
56.28
56.147
56.0898
56.3612
58.7465
59.0491
58.9421
58.8126
58.6984
58.2143
58.101
57.9825
57.861
57.7409
57.6228
57.5016
57.3592
57.59
57.4463
57.3006
57.1555
57.011
56.8673
56.7256
56.5857
56.4463
56.3081
56.1818
56.1083
56.2582
57.7929
59.061
58.9515
58.8199
58.6994
58.4172
58.2919
58.1655
58.0369
57.9115
57.7906
57.6687
57.5307
57.5554
57.4181
57.2737
57.1308
56.99
56.8507
56.7138
56.5801
56.449
56.3199
56.198
56.1062
56.1322
56.8142
59.0693
58.9584
58.8249
58.6975
58.5481
58.4106
58.2772
58.1431
58.0133
57.8891
57.7662
57.6334
57.5224
57.3926
57.2497
57.1078
56.9693
56.8334
56.7004
56.5711
56.4453
56.3221
56.203
56.0969
56.0308
56.1089
59.0752
58.9638
58.829
58.6974
58.5711
58.4255
58.2872
58.1498
58.0168
57.8896
57.7652
57.6345
57.4981
57.3733
57.2319
57.0906
56.9532
56.8196
56.6897
56.5636
56.4412
56.3217
56.205
56.0922
55.9789
55.7769
59.08
58.9687
58.8326
58.6979
58.5504
58.3998
58.2587
58.1196
57.9844
57.8544
57.728
57.5972
57.4794
57.3579
57.2185
57.0777
56.9406
56.8081
56.6801
56.556
56.4355
56.3182
56.2039
56.0906
55.9655
55.716
59.0849
58.9738
58.8358
58.6977
58.5315
58.3777
58.2349
58.0949
57.9584
57.8262
57.6975
57.5657
57.4636
57.3446
57.2081
57.0688
56.9319
56.7995
56.6721
56.549
56.4297
56.3141
56.2021
56.0918
55.9717
55.7683
59.0908
58.9795
58.8387
58.6963
58.5241
58.3682
58.2243
58.0841
57.9467
57.8127
57.682
57.5493
57.4498
57.3325
57.1995
57.0628
56.9268
56.794
56.6662
56.5432
56.4246
56.3103
56.2004
56.0932
55.9806
55.8241
59.0978
58.9853
58.8411
58.6941
58.523
58.3662
58.2216
58.0811
57.9431
57.808
57.6758
57.5425
57.4384
57.3217
57.1922
57.059
56.9248
56.792
56.6634
56.5401
56.422
56.3088
56.2003
56.0949
55.9865
55.85
59.1052
58.9903
58.8423
58.6909
58.5229
58.3663
58.2212
58.0803
57.9419
57.8061
57.6729
57.5393
57.429
57.3116
57.1851
57.0555
56.9241
56.7923
56.6634
56.5396
56.4218
56.3095
56.2017
56.0967
55.9889
55.8534
59.1109
58.9925
58.8405
58.6855
58.5206
58.3649
58.2193
58.0778
57.9391
57.8029
57.6692
57.5357
57.4195