/*--------------------------------*- C++ -*----------------------------------*\
| =========                 |                                                 |
| \\      /  F ield         | OpenFOAM: The Open Source CFD Toolbox           |
|  \\    /   O peration     | Version:  v2012                                 |
|   \\  /    A nd           | Website:  www.openfoam.com                      |
|    \\/     M anipulation  |                                                 |
\*---------------------------------------------------------------------------*/
FoamFile
{
    version     2.0;
    format      ascii;
    class       volScalarField;
    location    "300/soil1";
    object      T;
}
// * * * * * * * * * * * * * * * * * * * * * * * * * * * * * * * * * * * * * //

dimensions      [0 0 0 1 0 0 0];


internalField   nonuniform List<scalar> 
57600
(
303.066
303.111
303.167
303.219
303.263
303.299
303.329
303.355
303.379
303.399
303.419
303.436
303.454
303.471
303.487
303.502
303.516
303.528
303.54
303.552
303.562
303.572
303.582
303.591
303.599
303.607
303.615
303.622
303.63
303.636
303.643
303.649
303.656
303.662
303.667
303.673
303.679
303.684
303.689
303.694
303.699
303.704
303.709
303.714
303.719
303.723
303.728
303.732
303.737
303.741
303.745
303.75
303.754
303.758
303.763
303.767
303.771
303.776
303.78
303.784
303.788
303.793
303.797
303.801
303.805
303.809
303.813
303.817
303.821
303.825
303.829
303.832
303.836
303.84
303.845
303.85
303.857
303.866
303.876
303.887
303.899
303.912
303.925
303.936
303.946
303.954
303.964
303.978
304.001
304.029
303.046
303.09
303.145
303.197
303.239
303.274
303.304
303.329
303.352
303.372
303.391
303.408
303.425
303.441
303.457
303.471
303.485
303.497
303.509
303.52
303.53
303.539
303.549
303.557
303.565
303.573
303.581
303.588
303.595
303.601
303.607
303.614
303.619
303.625
303.631
303.636
303.641
303.646
303.651
303.656
303.661
303.666
303.67
303.675
303.679
303.683
303.688
303.692
303.696
303.7
303.704
303.708
303.712
303.716
303.721
303.725
303.729
303.733
303.737
303.741
303.745
303.749
303.753
303.756
303.76
303.764
303.768
303.772
303.775
303.779
303.783
303.786
303.79
303.794
303.798
303.803
303.81
303.818
303.828
303.839
303.851
303.864
303.876
303.888
303.897
303.905
303.914
303.928
303.952
303.982
303.018
303.062
303.116
303.167
303.209
303.243
303.272
303.297
303.319
303.338
303.356
303.373
303.39
303.405
303.421
303.435
303.448
303.46
303.471
303.482
303.492
303.501
303.51
303.518
303.526
303.534
303.541
303.548
303.554
303.561
303.567
303.573
303.578
303.584
303.589
303.594
303.599
303.604
303.609
303.613
303.618
303.622
303.626
303.631
303.635
303.639
303.643
303.647
303.651
303.655
303.659
303.663
303.667
303.67
303.674
303.678
303.682
303.686
303.689
303.693
303.697
303.701
303.704
303.708
303.712
303.715
303.719
303.722
303.726
303.729
303.733
303.736
303.739
303.743
303.747
303.752
303.759
303.767
303.776
303.787
303.799
303.811
303.824
303.835
303.844
303.852
303.861
303.875
303.899
303.929
302.989
303.032
303.086
303.135
303.177
303.21
303.238
303.263
303.284
303.304
303.321
303.338
303.354
303.369
303.384
303.398
303.411
303.423
303.434
303.445
303.454
303.463
303.472
303.48
303.488
303.495
303.502
303.509
303.515
303.521
303.527
303.533
303.539
303.544
303.549
303.554
303.559
303.563
303.568
303.572
303.577
303.581
303.585
303.589
303.593
303.597
303.601
303.605
303.609
303.613
303.616
303.62
303.624
303.627
303.631
303.635
303.638
303.642
303.645
303.649
303.653
303.656
303.66
303.663
303.667
303.67
303.674
303.677
303.68
303.684
303.687
303.69
303.693
303.697
303.701
303.706
303.712
303.72
303.729
303.74
303.752
303.764
303.776
303.787
303.796
303.804
303.813
303.827
303.851
303.88
302.96
303.002
303.055
303.104
303.145
303.178
303.205
303.229
303.25
303.269
303.286
303.303
303.319
303.334
303.349
303.362
303.375
303.387
303.398
303.408
303.417
303.426
303.435
303.443
303.45
303.458
303.465
303.471
303.477
303.483
303.489
303.495
303.5
303.505
303.51
303.515
303.52
303.524
303.529
303.533
303.537
303.541
303.545
303.549
303.553
303.557
303.561
303.565
303.568
303.572
303.575
303.579
303.582
303.586
303.589
303.593
303.596
303.6
303.603
303.607
303.61
303.614
303.617
303.62
303.624
303.627
303.63
303.634
303.637
303.64
303.643
303.646
303.649
303.653
303.656
303.661
303.667
303.675
303.684
303.695
303.707
303.719
303.731
303.742
303.751
303.758
303.767
303.781
303.804
303.833
302.931
302.972
303.025
303.073
303.113
303.145
303.173
303.196
303.217
303.235
303.252
303.268
303.283
303.298
303.313
303.327
303.339
303.351
303.361
303.371
303.381
303.39
303.398
303.406
303.414
303.421
303.428
303.434
303.44
303.446
303.452
303.457
303.462
303.468
303.472
303.477
303.482
303.486
303.49
303.494
303.498
303.502
303.506
303.51
303.514
303.517
303.521
303.525
303.528
303.531
303.535
303.538
303.542
303.545
303.548
303.551
303.555
303.558
303.561
303.564
303.568
303.571
303.574
303.577
303.58
303.583
303.587
303.59
303.593
303.596
303.599
303.601
303.604
303.607
303.611
303.615
303.621
303.629
303.638
303.648
303.66
303.672
303.683
303.694
303.703
303.71
303.718
303.731
303.754
303.781
302.902
302.943
302.995
303.042
303.081
303.114
303.14
303.163
303.183
303.201
303.217
303.232
303.247
303.262
303.276
303.29
303.302
303.314
303.325
303.335
303.344
303.353
303.361
303.369
303.377
303.384
303.391
303.397
303.403
303.409
303.414
303.42
303.425
303.43
303.434
303.439
303.443
303.447
303.451
303.455
303.459
303.463
303.467
303.47
303.474
303.477
303.48
303.483
303.487
303.49
303.493
303.496
303.499
303.502
303.505
303.508
303.511
303.514
303.516
303.519
303.522
303.525
303.528
303.531
303.533
303.536
303.539
303.542
303.544
303.547
303.549
303.552
303.554
303.557
303.56
303.564
303.569
303.576
303.585
303.595
303.606
303.618
303.629
303.64
303.648
303.655
303.662
303.674
303.695
303.72
302.874
302.914
302.965
303.012
303.051
303.082
303.108
303.131
303.15
303.165
303.178
303.191
303.204
303.219
303.233
303.247
303.26
303.272
303.283
303.294
303.304
303.313
303.322
303.33
303.337
303.345
303.351
303.358
303.364
303.37
303.375
303.38
303.385
303.39
303.394
303.399
303.403
303.406
303.41
303.414
303.417
303.421
303.424
303.427
303.43
303.433
303.436
303.439
303.441
303.444
303.447
303.449
303.452
303.454
303.457
303.459
303.462
303.464
303.466
303.469
303.471
303.473
303.475
303.478
303.48
303.482
303.484
303.486
303.488
303.49
303.492
303.494
303.495
303.497
303.5
303.503
303.508
303.514
303.522
303.532
303.544
303.556
303.568
303.578
303.586
303.593
303.6
303.611
303.63
303.652
302.846
302.886
302.936
302.982
303.02
303.051
303.077
303.098
303.114
303.124
303.125
303.13
303.14
303.154
303.169
303.185
303.199
303.214
303.227
303.239
303.25
303.261
303.271
303.28
303.288
303.296
303.303
303.309
303.315
303.321
303.326
303.331
303.336
303.34
303.344
303.348
303.352
303.355
303.359
303.362
303.365
303.368
303.371
303.374
303.376
303.379
303.381
303.384
303.386
303.389
303.391
303.393
303.395
303.397
303.399
303.401
303.403
303.405
303.407
303.408
303.41
303.412
303.413
303.415
303.417
303.418
303.42
303.421
303.422
303.424
303.425
303.426
303.427
303.428
303.43
303.433
303.437
303.443
303.451
303.462
303.477
303.493
303.508
303.52
303.529
303.537
303.544
303.555
303.573
303.593
302.818
302.857
302.907
302.952
302.99
303.02
303.045
303.065
303.075
303.067
303.03
303.012
303.014
303.028
303.048
303.069
303.089
303.109
303.127
303.144
303.16
303.174
303.186
303.197
303.207
303.216
303.224
303.23
303.236
303.242
303.247
303.252
303.256
303.26
303.264
303.268
303.271
303.274
303.276
303.279
303.282
303.286
303.289
303.291
303.293
303.296
303.298
303.301
303.303
303.305
303.308
303.31
303.312
303.314
303.315
303.317
303.319
303.32
303.322
303.324
303.325
303.326
303.328
303.329
303.33
303.331
303.332
303.333
303.333
303.334
303.335
303.335
303.335
303.336
303.337
303.339
303.342
303.347
303.355
303.371
303.399
303.428
303.453
303.473
303.487
303.498
303.507
303.52
303.539
303.559
302.791
302.83
302.878
302.923
302.96
302.99
303.014
303.031
303.031
302.988
302.869
302.808
302.799
302.818
302.848
302.88
302.911
302.941
302.968
302.992
303.014
303.033
303.049
303.063
303.074
303.084
303.092
303.098
303.103
303.108
303.112
303.115
303.118
303.121
303.124
303.127
303.13
303.132
303.134
303.137
303.14
303.143
303.147
303.149
303.152
303.155
303.158
303.161
303.163
303.166
303.169
303.172
303.174
303.177
303.179
303.182
303.184
303.186
303.188
303.19
303.192
303.193
303.195
303.196
303.197
303.198
303.199
303.2
303.201
303.201
303.201
303.201
303.201
303.201
303.201
303.202
303.204
303.208
303.217
303.242
303.298
303.356
303.403
303.438
303.462
303.479
303.493
303.509
303.532
303.556
302.764
302.802
302.85
302.894
302.931
302.96
302.983
302.998
302.993
302.934
302.782
302.702
302.689
302.709
302.742
302.779
302.816
302.85
302.881
302.909
302.933
302.954
302.972
302.987
302.999
303.009
303.017
303.023
303.028
303.031
303.034
303.037
303.039
303.041
303.044
303.046
303.049
303.051
303.053
303.056
303.059
303.063
303.067
303.071
303.074
303.078
303.082
303.086
303.09
303.095
303.099
303.104
303.108
303.112
303.116
303.121
303.125
303.129
303.133
303.137
303.14
303.144
303.148
303.151
303.155
303.158
303.161
303.164
303.166
303.169
303.171
303.173
303.174
303.176
303.177
303.18
303.183
303.188
303.2
303.228
303.29
303.353
303.404
303.442
303.468
303.487
303.502
303.521
303.547
303.575
302.738
302.775
302.823
302.866
302.902
302.931
302.953
302.967
302.96
302.897
302.737
302.652
302.637
302.657
302.691
302.729
302.767
302.802
302.834
302.863
302.888
302.909
302.927
302.943
302.955
302.965
302.972
302.978
302.982
302.985
302.988
302.989
302.991
302.992
302.994
302.997
302.999
303.001
303.002
303.004
303.008
303.012
303.016
303.019
303.022
303.026
303.03
303.035
303.039
303.044
303.049
303.053
303.058
303.063
303.068
303.072
303.077
303.082
303.086
303.091
303.096
303.101
303.106
303.111
303.115
303.12
303.125
303.13
303.135
303.14
303.145
303.15
303.154
303.159
303.164
303.169
303.176
303.185
303.2
303.23
303.292
303.354
303.404
303.44
303.466
303.484
303.5
303.52
303.55
303.582
302.712
302.749
302.795
302.838
302.874
302.902
302.924
302.937
302.93
302.866
302.706
302.62
302.605
302.624
302.659
302.697
302.734
302.769
302.801
302.83
302.855
302.876
302.894
302.909
302.921
302.931
302.938
302.944
302.948
302.951
302.952
302.954
302.955
302.956
302.958
302.96
302.962
302.963
302.964
302.966
302.969
302.973
302.978
302.98
302.983
302.987
302.991
302.995
303
303.004
303.009
303.013
303.018
303.022
303.026
303.03
303.035
303.039
303.043
303.047
303.052
303.056
303.06
303.064
303.069
303.073
303.077
303.082
303.086
303.091
303.095
303.1
303.104
303.108
303.113
303.118
303.125
303.134
303.149
303.18
303.24
303.3
303.347
303.381
303.406
303.424
303.441
303.463
303.494
303.528
302.686
302.722
302.768
302.811
302.845
302.873
302.895
302.908
302.9
302.837
302.679
302.594
302.578
302.598
302.632
302.669
302.706
302.741
302.773
302.801
302.825
302.847
302.864
302.879
302.891
302.901
302.908
302.913
302.917
302.92
302.922
302.923
302.923
302.924
302.926
302.928
302.93
302.931
302.931
302.933
302.936
302.94
302.945
302.947
302.95
302.954
302.958
302.962
302.967
302.971
302.976
302.98
302.984
302.989
302.993
302.997
303.001
303.005
303.009
303.013
303.017
303.021
303.024
303.028
303.032
303.036
303.039
303.043
303.047
303.05
303.054
303.057
303.06
303.063
303.067
303.071
303.076
303.084
303.097
303.125
303.183
303.24
303.285
303.317
303.34
303.357
303.373
303.394
303.424
303.455
302.661
302.696
302.742
302.783
302.818
302.845
302.866
302.879
302.872
302.809
302.653
302.569
302.554
302.573
302.607
302.644
302.68
302.714
302.745
302.773
302.797
302.818
302.836
302.85
302.862
302.871
302.878
302.884
302.888
302.891
302.892
302.893
302.893
302.894
302.895
302.898
302.9
302.9
302.9
302.902
302.905
302.91
302.914
302.917
302.919
302.923
302.928
302.933
302.938
302.943
302.947
302.952
302.956
302.96
302.964
302.969
302.973
302.977
302.981
302.985
302.989
302.993
302.997
303.001
303.004
303.008
303.012
303.016
303.019
303.023
303.026
303.03
303.033
303.036
303.039
303.043
303.049
303.056
303.069
303.096
303.153
303.208
303.251
303.283
303.305
303.322
303.337
303.357
303.385
303.416
302.636
302.671
302.716
302.757
302.79
302.817
302.838
302.851
302.843
302.782
302.629
302.547
302.531
302.551
302.583
302.62
302.656
302.689
302.72
302.747
302.771
302.791
302.808
302.822
302.833
302.842
302.849
302.855
302.859
302.862
302.863
302.864
302.864
302.864
302.865
302.867
302.869
302.869
302.869
302.871
302.874
302.879
302.884
302.887
302.89
302.894
302.899
302.905
302.91
302.916
302.92
302.925
302.929
302.933
302.938
302.943
302.947
302.951
302.956
302.96
302.964
302.969
302.973
302.977
302.981
302.985
302.99
302.994
302.998
303.002
303.006
303.009
303.013
303.017
303.021
303.026
303.032
303.041
303.055
303.084
303.14
303.196
303.24
303.271
303.294
303.311
303.326
303.346
303.374
303.406
302.611
302.646
302.69
302.73
302.763
302.79
302.81
302.823
302.816
302.757
302.608
302.528
302.514
302.533
302.565
302.601
302.635
302.668
302.697
302.724
302.746
302.766
302.782
302.795
302.805
302.814
302.82
302.825
302.829
302.832
302.834
302.834
302.834
302.834
302.834
302.836
302.838
302.837
302.836
302.838
302.841
302.846
302.852
302.855
302.859
302.864
302.87
302.877
302.883
302.888
302.893
302.898
302.902
302.907
302.912
302.916
302.921
302.925
302.93
302.934
302.938
302.943
302.947
302.951
302.956
302.96
302.964
302.969
302.973
302.978
302.982
302.986
302.99
302.994
302.999
303.004
303.011
303.02
303.034
303.063
303.121
303.177
303.222
303.255
303.278
303.295
303.311
303.331
303.359
303.39
302.587
302.621
302.664
302.704
302.737
302.763
302.783
302.796
302.791
302.737
302.599
302.526
302.514
302.532
302.563
302.596
302.629
302.659
302.686
302.71
302.731
302.748
302.762
302.773
302.782
302.789
302.795
302.799
302.803
302.805
302.807
302.807
302.807
302.806
302.806
302.807
302.808
302.808
302.807
302.808
302.811
302.816
302.822
302.826
302.83
302.836
302.844
302.851
302.858
302.864
302.869
302.874
302.879
302.884
302.889
302.893
302.898
302.902
302.906
302.909
302.913
302.917
302.92
302.924
302.928
302.931
302.935
302.938
302.942
302.946
302.949
302.952
302.955
302.958
302.962
302.966
302.972
302.979
302.992
303.02
303.076
303.132
303.177
303.21
303.233
303.25
303.265
303.283
303.309
303.337
302.563
302.596
302.639
302.679
302.711
302.736
302.756
302.771
302.77
302.732
302.626
302.572
302.565
302.582
302.608
302.636
302.663
302.688
302.71
302.729
302.745
302.759
302.769
302.778
302.785
302.79
302.794
302.798
302.802
302.805
302.808
302.809
302.809
302.808
302.808
302.809
302.812
302.812
302.812
302.813
302.815
302.82
302.825
302.828
302.832
302.839
302.847
302.855
302.861
302.867
302.872
302.877
302.882
302.887
302.892
302.896
302.9
302.903
302.906
302.909
302.911
302.913
302.916
302.918
302.92
302.922
302.925
302.927
302.929
302.931
302.933
302.934
302.936
302.938
302.94
302.942
302.946
302.952
302.963
302.986
303.035
303.085
303.124
303.154
303.175
303.19
303.203
303.219
303.242
303.266
302.539
302.572
302.615
302.653
302.685
302.71
302.73
302.746
302.754
302.746
302.715
302.7
302.704
302.717
302.734
302.752
302.769
302.785
302.799
302.812
302.823
302.833
302.842
302.849
302.855
302.86
302.865
302.87
302.876
302.881
302.886
302.889
302.891
302.892
302.894
302.897
302.902
302.906
302.908
302.91
302.912
302.913
302.915
302.915
302.916
302.921
302.926
302.932
302.936
302.938
302.941
302.944
302.947
302.951
302.954
302.958
302.961
302.963
302.966
302.968
302.97
302.972
302.974
302.976
302.977
302.979
302.981
302.983
302.984
302.986
302.987
302.989
302.99
302.991
302.993
302.996
303
303.006
303.015
303.03
303.055
303.081
303.103
303.121
303.134
303.143
303.152
303.165
303.184
303.205
302.516
302.548
302.59
302.628
302.659
302.684
302.704
302.721
302.734
302.741
302.742
302.746
302.755
302.767
302.78
302.793
302.806
302.817
302.828
302.837
302.846
302.854
302.862
302.868
302.874
302.88
302.885
302.89
302.896
302.903
302.909
302.914
302.917
302.92
302.923
302.929
302.937
302.945
302.95
302.954
302.954
302.952
302.949
302.946
302.943
302.946
302.95
302.953
302.955
302.956
302.957
302.959
302.962
302.965
302.968
302.971
302.974
302.976
302.979
302.981
302.983
302.985
302.987
302.989
302.991
302.992
302.994
302.996
302.997
302.999
303
303.002
303.003
303.004
303.006
303.009
303.014
303.019
303.028
303.038
303.053
303.068
303.081
303.093
303.102
303.109
303.116
303.127
303.144
303.163
302.493
302.525
302.566
302.603
302.634
302.658
302.678
302.695
302.71
302.722
302.731
302.741
302.752
302.764
302.776
302.788
302.799
302.809
302.818
302.827
302.835
302.842
302.849
302.855
302.862
302.867
302.872
302.878
302.884
302.89
302.897
302.903
302.907
302.91
302.915
302.924
302.937
302.949
302.958
302.963
302.961
302.955
302.946
302.938
302.932
302.932
302.935
302.937
302.938
302.938
302.939
302.941
302.944
302.948
302.951
302.954
302.956
302.959
302.962
302.964
302.966
302.969
302.971
302.973
302.975
302.977
302.979
302.981
302.983
302.985
302.987
302.988
302.99
302.991
302.994
302.997
303.001
303.008
303.015
303.025
303.036
303.048
303.059
303.069
303.077
303.083
303.089
303.099
303.117
303.137
302.47
302.501
302.542
302.578
302.609
302.633
302.652
302.669
302.684
302.697
302.709
302.72
302.732
302.744
302.755
302.766
302.777
302.786
302.795
302.803
302.811
302.818
302.825
302.831
302.838
302.843
302.849
302.854
302.86
302.866
302.873
302.879
302.884
302.888
302.895
302.907
302.924
302.939
302.952
302.957
302.952
302.94
302.925
302.912
302.902
302.899
302.9
302.9
302.9
302.9
302.901
302.904
302.907
302.91
302.913
302.915
302.918
302.921
302.923
302.926
302.928
302.931
302.933
302.936
302.938
302.941
302.943
302.945
302.948
302.95
302.952
302.954
302.956
302.958
302.961
302.965
302.97
302.976
302.984
302.994
303.004
303.015
303.026
303.036
303.043
303.049
303.055
303.065
303.083
303.103
302.447
302.478
302.518
302.554
302.583
302.607
302.626
302.643
302.658
302.671
302.683
302.694
302.706
302.718
302.729
302.74
302.75
302.76
302.768
302.776
302.784
302.791
302.798
302.804
302.811
302.817
302.822
302.828
302.834
302.84
302.846
302.852
302.858
302.863
302.871
302.885
302.904
302.922
302.937
302.94
302.929
302.909
302.885
302.866
302.851
302.845
302.844
302.843
302.842
302.841
302.842
302.843
302.846
302.848
302.85
302.853
302.855
302.858
302.861
302.863
302.866
302.869
302.872
302.875
302.878
302.881
302.884
302.887
302.89
302.893
302.896
302.898
302.901
302.904
302.907
302.911
302.917
302.924
302.932
302.942
302.952
302.963
302.974
302.984
302.991
302.996
303.002
303.012
303.028
303.048
302.424
302.455
302.494
302.53
302.559
302.582
302.601
302.617
302.632
302.644
302.656
302.668
302.68
302.691
302.702
302.713
302.723
302.732
302.741
302.749
302.757
302.764
302.77
302.777
302.783
302.789
302.795
302.801
302.807
302.814
302.82
302.826
302.832
302.837
302.845
302.86
302.88
302.897
302.91
302.906
302.883
302.849
302.813
302.787
302.768
302.759
302.755
302.753
302.751
302.751
302.751
302.753
302.755
302.757
302.76
302.763
302.766
302.77
302.774
302.778
302.782
302.786
302.79
302.794
302.799
302.803
302.807
302.811
302.816
302.82
302.823
302.827
302.83
302.834
302.838
302.843
302.848
302.856
302.864
302.874
302.884
302.895
302.906
302.915
302.922
302.927
302.932
302.94
302.955
302.973
302.403
302.433
302.471
302.506
302.535
302.558
302.576
302.592
302.606
302.619
302.631
302.642
302.654
302.665
302.676
302.687
302.697
302.706
302.714
302.722
302.73
302.737
302.744
302.75
302.756
302.762
302.768
302.775
302.781
302.788
302.795
302.802
302.807
302.813
302.821
302.835
302.852
302.861
302.856
302.83
302.787
302.737
302.693
302.663
302.644
302.636
302.634
302.634
302.636
302.639
302.642
302.647
302.651
302.657
302.662
302.668
302.674
302.681
302.687
302.693
302.699
302.704
302.71
302.716
302.721
302.726
302.731
302.736
302.741
302.745
302.75
302.754
302.757
302.761
302.765
302.77
302.775
302.782
302.791
302.8
302.81
302.821
302.831
302.839
302.846
302.85
302.855
302.863
302.876
302.892
302.382
302.412
302.45
302.484
302.512
302.535
302.553
302.569
302.583
302.595
302.607
302.618
302.629
302.64
302.651
302.662
302.672
302.681
302.689
302.697
302.705
302.712
302.719
302.725
302.73
302.736
302.742
302.749
302.756
302.763
302.771
302.778
302.785
302.792
302.8
302.812
302.822
302.811
302.769
302.702
302.634
302.577
302.536
302.516
302.507
302.509
302.516
302.524
302.534
302.543
302.552
302.562
302.571
302.58
302.589
302.598
302.606
302.614
302.621
302.628
302.634
302.641
302.647
302.652
302.657
302.662
302.667
302.672
302.676
302.68
302.684
302.687
302.69
302.693
302.697
302.701
302.706
302.713
302.72
302.729
302.739
302.749
302.759
302.768
302.774
302.779
302.783
302.79
302.803
302.817
302.364
302.393
302.43
302.465
302.492
302.514
302.532
302.548
302.561
302.574
302.585
302.596
302.607
302.618
302.629
302.64
302.65
302.659
302.667
302.675
302.683
302.69
302.696
302.702
302.708
302.714
302.72
302.726
302.733
302.741
302.749
302.758
302.766
302.775
302.785
302.793
302.784
302.709
302.53
302.394
302.317
302.302
302.358
302.39
302.405
302.42
302.436
302.453
302.469
302.484
302.498
302.511
302.523
302.534
302.545
302.555
302.564
302.572
302.579
302.585
302.591
302.597
302.601
302.606
302.61
302.614
302.617
302.62
302.623
302.626
302.629
302.631
302.634
302.636
302.639
302.642
302.647
302.653
302.661
302.67
302.679
302.689
302.699
302.708
302.714
302.719
302.724
302.731
302.743
302.757
302.349
302.377
302.414
302.448
302.476
302.497
302.515
302.53
302.544
302.556
302.567
302.578
302.589
302.6
302.611
302.621
302.631
302.64
302.649
302.657
302.664
302.672
302.678
302.685
302.691
302.697
302.704
302.711
302.717
302.725
302.732
302.74
302.751
302.764
302.776
302.78
302.743
302.573
302.183
301.97
301.902
301.968
302.201
302.313
302.354
302.377
302.395
302.414
302.433
302.45
302.467
302.482
302.496
302.509
302.52
302.531
302.539
302.547
302.554
302.56
302.565
302.57
302.574
302.577
302.58
302.582
302.585
302.586
302.588
302.59
302.591
302.592
302.593
302.595
302.597
302.6
302.604
302.61
302.617
302.625
302.635
302.645
302.654
302.663
302.67
302.675
302.679
302.687
302.699
302.712
302.337
302.366
302.402
302.436
302.463
302.485
302.502
302.517
302.531
302.543
302.554
302.565
302.576
302.587
302.598
302.608
302.618
302.627
302.635
302.643
302.651
302.658
302.666
302.673
302.682
302.69
302.699
302.706
302.712
302.717
302.722
302.729
302.74
302.757
302.772
302.771
302.709
302.454
301.879
301.604
301.55
301.696
302.098
302.284
302.344
302.368
302.383
302.398
302.415
302.432
302.449
302.464
302.479
302.493
302.506
302.517
302.527
302.536
302.544
302.551
302.557
302.562
302.565
302.568
302.57
302.571
302.572
302.573
302.573
302.573
302.573
302.573
302.573
302.573
302.574
302.576
302.579
302.584
302.59
302.598
302.607
302.617
302.626
302.635
302.641
302.646
302.651
302.658
302.67
302.682
302.33
302.358
302.394
302.428
302.455
302.476
302.494
302.509
302.522
302.534
302.545
302.556
302.567
302.578
302.589
302.6
302.609
302.619
302.627
302.635
302.643
302.651
302.659
302.669
302.681
302.693
302.705
302.713
302.718
302.72
302.72
302.724
302.732
302.749
302.766
302.761
302.684
302.381
301.707
301.4
301.361
301.565
302.08
302.314
302.381
302.398
302.402
302.408
302.418
302.431
302.445
302.459
302.474
302.488
302.501
302.513
302.524
302.536
302.548
302.557
302.564
302.57
302.574
302.577
302.579
302.58
302.581
302.58
302.579
302.578
302.577
302.575
302.573
302.571
302.571
302.571
302.573
302.577
302.582
302.589
302.597
302.605
302.614
302.622
302.628
302.633
302.637
302.644
302.656
302.668
302.326
302.354
302.39
302.424
302.451
302.472
302.489
302.504
302.518
302.53
302.541
302.552
302.563
302.574
302.585
302.596
302.606
302.615
302.624
302.632
302.64
302.649
302.659
302.672
302.689
302.705
302.721
302.731
302.734
302.731
302.725
302.721
302.72
302.732
302.745
302.735
302.651
302.335
301.637
301.325
301.301
301.55
302.15
302.413
302.475
302.477
302.464
302.455
302.453
302.456
302.463
302.472
302.483
302.494
302.506
302.517
302.528
302.542
302.561
302.574
302.583
302.589
302.595
302.599
302.602
302.604
302.604
302.604
302.603
302.601
302.598
302.595
302.592
302.589
302.586
302.585
302.585
302.587
302.591
302.596
302.603
302.61
302.618
302.625
302.63
302.634
302.638
302.644
302.655
302.667
302.325
302.353
302.389
302.422
302.449
302.47
302.488
302.503
302.516
302.528
302.539
302.55
302.562
302.573
302.584
302.595
302.605
302.615
302.624
302.632
302.64
302.65
302.663
302.68
302.701
302.722
302.742
302.753
302.753
302.743
302.73
302.718
302.707
302.71
302.713
302.692
302.599
302.282
301.592
301.286
301.275
301.555
302.211
302.504
302.575
302.575
302.553
302.534
302.521
302.515
302.514
302.515
302.519
302.525
302.531
302.539
302.548
302.562
302.583
302.597
302.606
302.614
302.62
302.625
302.628
302.631
302.632
302.632
302.631
302.629
302.626
302.622
302.618
302.615
302.611
302.609
302.608
302.61
302.612
302.617
302.622
302.629
302.635
302.641
302.645
302.648
302.651
302.657
302.667
302.68
302.325
302.353
302.39
302.423
302.45
302.471
302.488
302.503
302.516
302.528
302.54
302.551
302.562
302.573
302.584
302.595
302.606
302.615
302.624
302.633
302.642
302.652
302.667
302.687
302.712
302.738
302.76
302.771
302.766
302.749
302.725
302.703
302.68
302.668
302.65
302.599
302.464
302.138
301.474
301.185
301.183
301.47
302.142
302.472
302.596
302.623
302.608
302.587
302.571
302.56
302.554
302.551
302.551
302.552
302.556
302.561
302.569
302.582
302.604
302.619
302.629
302.636
302.641
302.645
302.647
302.648
302.648
302.648
302.647
302.645
302.642
302.639
302.636
302.633
302.631
302.629
302.629
302.63
302.633
302.638
302.644
302.65
302.656
302.662
302.666
302.668
302.671
302.676
302.687
302.699
302.327
302.355
302.391
302.424
302.451
302.472
302.49
302.505
302.518
302.53
302.541
302.552
302.563
302.574
302.585
302.596
302.606
302.616
302.625
302.634
302.643
302.654
302.67
302.692
302.719
302.745
302.769
302.776
302.763
302.734
302.697
302.665
302.63
302.6
302.543
302.392
302.063
301.69
301.136
300.901
300.904
301.152
301.745
302.152
302.499
302.63
302.643
302.622
302.601
302.587
302.578
302.573
302.571
302.574
302.579
302.587
302.595
302.606
302.624
302.634
302.64
302.644
302.647
302.649
302.65
302.651
302.651
302.651
302.651
302.65
302.648
302.647
302.645
302.643
302.641
302.641
302.641
302.643
302.647
302.652
302.658
302.665
302.672
302.678
302.682
302.684
302.686
302.692
302.703
302.715
302.328
302.356
302.392
302.425
302.452
302.474
302.491
302.506
302.519
302.531
302.542
302.553
302.564
302.576
302.587
302.598
302.608
302.618
302.627
302.636
302.645
302.656
302.671
302.692
302.717
302.739
302.752
302.746
302.718
302.677
302.632
302.595
302.558
302.516
302.4
302.027
301.153
300.63
300.288
300.151
300.154
300.302
300.672
301.242
302.188
302.568
302.647
302.639
302.62
302.606
302.599
302.596
302.595
302.597
302.598
302.601
302.604
302.611
302.625
302.633
302.637
302.639
302.641
302.642
302.643
302.644
302.645
302.645
302.646
302.646
302.646
302.645
302.644
302.644
302.643
302.643
302.645
302.648
302.653
302.658
302.665
302.672
302.679
302.685
302.689
302.692
302.694
302.7
302.71
302.723
302.328
302.356
302.392
302.426
302.453
302.474
302.491
302.506
302.52
302.532
302.543
302.554
302.565
302.576
302.588
302.598
302.609
302.619
302.628
302.637
302.647
302.657
302.671
302.688
302.706
302.712
302.701
302.665
302.618
302.571
302.53
302.505
302.482
302.449
302.316
301.834
300.703
300.092
299.828
299.738
299.74
299.838
300.121
300.779
301.999
302.517
302.641
302.647
302.631
302.617
302.608
302.603
302.599
302.596
302.595
302.594
302.595
302.601
302.615
302.621
302.624
302.626
302.628
302.63
302.631
302.633
302.634
302.635
302.636
302.637
302.638
302.638
302.638
302.638
302.638
302.64
302.642
302.646
302.651
302.657
302.665
302.672
302.68
302.686
302.691
302.693
302.696
302.701
302.712
302.723
302.328
302.356
302.392
302.426
302.452
302.474
302.491
302.506
302.519
302.531
302.543
302.554
302.565
302.576
302.588
302.598
302.609
302.619
302.628
302.638
302.647
302.657
302.668
302.678
302.673
302.618
302.478
302.375
302.319
302.315
302.376
302.41
302.419
302.406
302.28
301.766
300.55
299.903
299.656
299.58
299.581
299.663
299.926
300.618
301.926
302.493
302.637
302.649
302.633
302.617
302.604
302.595
302.589
302.584
302.582
302.581
302.583
302.59
302.604
302.612
302.615
302.617
302.619
302.621
302.624
302.625
302.627
302.629
302.63
302.632
302.633
302.633
302.633
302.634
302.634
302.636
302.638
302.642
302.648
302.654
302.662
302.67
302.678
302.685
302.689
302.692
302.695
302.7
302.71
302.722
302.327
302.355
302.392
302.425
302.452
302.473
302.49
302.505
302.519
302.531
302.542
302.553
302.564
302.576
302.587
302.598
302.608
302.618
302.628
302.637
302.647
302.656
302.664
302.662
302.623
302.466
302.108
301.921
301.87
301.953
302.208
302.334
302.377
302.38
302.261
301.743
300.504
299.846
299.603
299.53
299.531
299.608
299.868
300.571
301.904
302.486
302.636
302.649
302.632
302.613
302.598
302.587
302.58
302.576
302.576
302.577
302.581
302.589
302.606
302.614
302.618
302.62
302.621
302.623
302.625
302.627
302.629
302.63
302.632
302.633
302.634
302.634
302.635
302.635
302.635
302.636
302.639
302.643
302.648
302.655
302.662
302.67
302.678
302.685
302.69
302.692
302.695
302.701
302.71
302.721
302.327
302.355
302.391
302.424
302.451
302.473
302.49
302.505
302.518
302.53
302.541
302.552
302.563
302.575
302.586
302.597
302.607
302.617
302.627
302.637
302.646
302.654
302.659
302.647
302.574
302.318
301.754
301.492
301.453
301.624
302.069
302.282
302.352
302.361
302.243
301.727
300.49
299.834
299.593
299.521
299.522
299.598
299.857
300.563
301.902
302.488
302.64
302.654
302.637
302.617
302.601
302.59
302.583
302.581
302.581
302.585
302.592
302.603
302.622
302.632
302.636
302.636
302.635
302.635
302.636
302.637
302.639
302.64
302.642
302.643
302.643
302.644
302.644
302.644
302.644
302.645
302.647
302.65
302.655
302.661
302.668
302.676
302.683
302.69
302.694
302.697
302.699
302.705
302.714
302.725
302.326
302.355
302.391