/*--------------------------------*- C++ -*----------------------------------*\
| =========                 |                                                 |
| \\      /  F ield         | OpenFOAM: The Open Source CFD Toolbox           |
|  \\    /   O peration     | Version:  v2012                                 |
|   \\  /    A nd           | Website:  www.openfoam.com                      |
|    \\/     M anipulation  |                                                 |
\*---------------------------------------------------------------------------*/
FoamFile
{
    version     2.0;
    format      ascii;
    class       volScalarField;
    location    "350/concrete";
    object      T;
}
// * * * * * * * * * * * * * * * * * * * * * * * * * * * * * * * * * * * * * //

dimensions      [0 0 0 1 0 0 0];


internalField   nonuniform List<scalar> 
1924
(
325.987
326.07
326.15
326.113
325.98
324.752
312.003
310.711
310.602
311.547
322.812
323.64
323.543
323.417
323.288
323.227
323.219
323.249
323.315
323.409
323.527
323.655
323.785
323.911
324.033
324.161
325.912
325.929
325.921
325.785
325.67
324.486
312.028
310.772
310.723
311.851
324.091
325.172
325.075
324.891
324.658
324.473
324.32
324.199
324.121
324.087
324.091
324.122
324.169
324.228
324.298
324.392
325.696
325.57
325.388
325.178
325.23
324.112
311.518
310.233
310.208
311.452
324.276
325.515
325.339
325.196
325.027
324.911
324.809
324.719
324.647
324.596
324.562
324.542
324.535
324.545
324.577
324.639
325.224
324.935
324.552
324.225
323.767
322.653
311.945
310.794
310.777
311.98
323.732
325.408
326.027
326.029
325.737
325.422
325.18
325.002
324.902
324.852
324.822
324.786
324.745
324.723
324.759
324.872
324.449
324.151
323.689
322.207
303.371
300.391
298.565
298.066
298.073
298.613
300.613
303.951
325.115
326.269
325.897
325.471
325.182
324.987
324.924
324.918
324.944
324.991
325.049
325.109
325.175
325.301
323.615
323.592
323.501
321.986
300.587
297.145
296.176
295.896
295.901
296.206
297.257
301.008
324.455
326.156
325.983
325.678
325.433
325.288
325.243
325.287
325.384
325.493
325.573
325.64
325.698
325.764
323.037
323.309
323.508
322.139
300.049
296.457
295.586
295.356
295.361
295.608
296.542
300.407
324.234
326.029
325.929
325.666
325.439
325.285
325.207
325.196
325.225
325.269
325.309
325.334
325.344
325.361
322.831
323.21
323.535
322.282
299.931
296.288
295.427
295.209
295.213
295.447
296.366
300.265
324.166
325.965
325.854
325.543
325.263
325.059
324.931
324.869
324.851
324.856
324.883
324.91
324.93
324.957
322.697
323.085
323.41
322.184
299.89
296.255
295.402
295.187
295.19
295.421
296.338
300.248
324.199
326.01
325.873
325.552
325.234
324.987
324.814
324.711
324.666
324.661
324.682
324.71
324.742
324.786
322.703
323
323.199
321.886
299.886
296.309
295.473
295.263
295.265
295.49
296.399
300.31
324.395
326.311
326.151
325.814
325.439
325.152
324.944
324.807
324.745
324.722
324.727
324.752
324.79
324.843
323.133
323.141
323.041
321.557
300.058
296.611
295.814
295.612
295.609
295.818
296.692
300.543
324.728
326.865
326.752
326.212
325.73
325.408
325.194
325.055
324.973
324.935
324.932
324.958
325.003
325.064
323.881
323.591
323.077
321.413
301.176
298.095
297.392
297.198
297.172
297.331
298.08
301.573
324.908
326.647
326.413
326.018
325.684
325.452
325.3
325.205
325.154
325.14
325.158
325.203
325.266
325.342
324.599
324.224
323.538
322.039
309.591
307.989
307.504
307.254
307.096
307.057
307.362
309.139
323.544
325.023
325.182
325.157
325.127
325.121
325.134
325.161
325.2
325.253
325.321
325.404
325.495
325.587
325.078
324.801
324.182
322.604
310.453
309.068
308.7
308.536
308.451
308.457
308.706
310.085
322.796
324.244
324.591
324.748
324.868
324.982
325.091
325.193
325.29
325.387
325.487
325.59
325.692
325.783
325.323
325.163
324.703
323.157
310.543
309.176
308.851
308.715
308.649
308.659
308.879
310.178
322.938
324.366
324.722
324.893
325.023
325.142
325.255
325.36
325.461
325.56
325.659
325.756
325.845
325.883
325.451
325.357
325.026
323.598
310.683
309.316
309.011
308.89
308.836
308.851
309.059
310.327
323.145
324.524
324.854
325.014
325.139
325.254
325.364
325.469
325.572
325.673
325.773
325.866
325.937
325.931
325.538
325.469
325.221
323.981
311.996
310.736
310.463
310.359
310.316
310.333
310.521
311.68
323.55
324.8
325.088
325.23
325.34
325.441
325.536
325.629
325.722
325.815
325.907
325.983
325.999
325.672
325.605
325.55
325.372
324.435
315.205
314.225
314.015
313.939
313.909
313.925
314.074
314.979
324.148
325.121
325.348
325.462
325.553
325.637
325.717
325.797
325.877
325.959
326.039
326.093
326.028
325.236
325.644
325.607
325.501
324.943
319.597
319.007
318.881
318.841
318.829
318.845
318.946
319.502
324.841
325.444
325.599
325.684
325.756
325.823
325.888
325.953
326.02
326.09
326.156
326.188
326.049
324.858
325.658
325.639
325.597
325.379
323.528
323.296
323.248
323.241
323.247
323.265
323.322
323.562
325.439
325.704
325.793
325.852
325.906
325.958
326.01
326.063
326.118
326.177
326.23
326.245
326.064
324.688
325.655
325.65
325.651
325.644
325.827
325.818
325.823
325.837
325.855
325.875
325.904
325.948
325.806
325.861
325.907
325.949
325.991
326.035
326.078
326.123
326.169
326.217
326.259
326.259
326.062
324.704
325.647
325.65
325.67
325.74
326.49
326.562
326.59
326.616
326.639
326.66
326.678
326.652
325.949
325.93
325.957
325.99
326.026
326.065
326.104
326.144
326.184
326.224
326.256
326.247
326.043
324.696
325.641
325.647
325.673
325.739
326.263
326.332
326.365
326.394
326.419
326.441
326.457
326.436
325.96
325.947
325.971
326.001
326.034
326.07
326.108
326.146
326.182
326.217
326.242
326.227
326.024
324.701
325.64
325.647
325.672
325.714
325.886
325.928
325.959
325.987
326.013
326.035
326.054
326.059
325.937
325.951
325.976
326.006
326.038
326.072
326.108
326.145
326.179
326.211
326.233
326.217
326.031
324.812
325.641
325.65
325.675
325.702
325.69
325.714
325.742
325.769
325.794
325.819
325.841
325.863
325.928
325.959
325.986
326.014
326.044
326.077
326.112
326.147
326.18
326.21
326.231
326.221
326.074
325.093
325.644
325.655
325.681
325.706
325.668
325.688
325.715
325.74
325.766
325.792
325.817
325.845
325.938
325.973
325.999
326.026
326.055
326.086
326.118
326.152
326.184
326.213
326.236
326.237
326.144
325.508
325.648
325.66
325.688
325.717
325.71
325.732
325.758
325.784
325.81
325.837
325.864
325.892
325.955
325.988
326.013
326.038
326.065
326.094
326.125
326.156
326.188
326.217
326.241
326.253
326.218
325.925
325.65
325.664
325.695
325.728
325.746
325.77
325.796
325.822
325.848
325.875
325.904
325.931
325.971
326.003
326.026
326.049
326.075
326.102
326.131
326.16
326.19
326.219
326.246
326.267
326.273
326.225
325.653
325.669
325.702
325.737
325.762
325.786
325.812
325.838
325.864
325.892
325.921
325.948
325.984
326.015
326.038
326.059
326.083
326.108
326.135
326.163
326.192
326.22
326.248
326.274
326.303
326.37
325.657
325.674
325.708
325.744
325.767
325.79
325.817
325.843
325.87
325.898
325.927
325.955
325.994
326.026
326.049
326.069
326.091
326.114
326.14
326.167
326.194
326.221
326.249
326.278
326.314
326.403
325.661
325.68
325.715
325.75
325.771
325.794
325.821
325.848
325.875
325.903
325.931
325.96
326.002
326.035
326.059
326.079
326.099
326.121
326.145
326.17
326.196
326.223
326.25
326.279
326.314
326.387
325.665
325.685
325.72
325.754
325.775
325.798
325.826
325.854
325.882
325.909
325.938
325.967
326.008
326.042
326.067
326.088
326.107
326.128
326.15
326.174
326.199
326.225
326.251
326.28
326.313
326.367
325.668
325.689
325.723
325.757
325.779
325.804
325.832
325.86
325.889
325.917
325.945
325.973
326.013
326.047
326.073
326.095
326.115
326.135
326.156
326.178
326.202
326.227
326.253
326.28
326.312
326.358
325.671
325.691
325.725
325.758
325.782
325.808
325.837
325.866
325.895
325.923
325.952
325.98
326.017
326.05
326.077
326.1
326.121
326.141
326.161
326.182
326.205
326.23
326.255
326.282
326.312
326.357
325.674
325.694
325.726
325.759
325.786
325.813
325.842
325.872
325.901
325.93
325.958
325.986
326.021
326.053
326.08
326.105
326.127
326.147
326.167
326.188
326.21
326.234
326.259
326.285
326.314
326.36
325.678
325.698
325.731
325.763
325.792
325.821
325.851
325.881
325.91
325.939
325.968
325.996
326.028
326.058
326.086
326.111
326.135
326.156
326.177
326.198
326.22
326.243
326.267
326.292
326.32
326.365
325.697
325.719
325.752
325.784
325.815
325.845
325.876
325.906
325.936
325.965
325.994
326.022
326.052
326.081
326.109
326.135
326.159
326.182
326.204
326.225
326.247
326.27
326.294
326.318
326.345
326.386
327.596
327.689
327.782
327.755
327.697
326.835
312.147
311.204
311.102
311.731
324.754
325.214
325.011
324.857
324.709
324.639
324.628
324.661
324.731
324.834
324.961
325.1
325.24
325.376
325.505
325.636
327.532
327.555
327.556
327.417
327.389
326.573
312.242
311.328
311.282
312.077
326.211
326.939
326.733
326.52
326.26
326.052
325.878
325.74
325.646
325.601
325.599
325.627
325.674
325.733
325.803
325.891
327.312
327.18
326.993
326.791
327.027
326.297
311.707
310.739
310.711
311.626
326.48
327.346
326.964
326.779
326.596
326.481
326.38
326.286
326.21
326.153
326.114
326.089
326.076
326.08
326.107
326.158
326.815
326.504
326.109
325.905
326.147
325.475
312.924
312.005
311.981
312.927
326.73
328.035
327.912
327.757
327.398
327.038
326.775
326.577
326.461
326.405
326.381
326.352
326.307
326.262
326.268
326.363
325.976
325.664
325.247
324.268
302.039
299.406
297.796
297.37
297.376
297.836
299.601
302.554
327.586
328.112
327.558
327.07
326.746
326.513
326.44
326.431
326.46
326.516
326.591
326.665
326.727
326.823
325.068
325.071
325.117
324.284
299.565
296.527
295.698
295.46
295.465
295.724
296.623
299.934
327.035
328.025
327.666
327.298
327.018
326.858
326.805
326.858
326.978
327.112
327.212
327.3
327.365
327.433
324.451
324.78
325.16
324.541
299.106
295.938
295.194
294.999
295.003
295.213
296.011
299.42
326.851
327.896
327.606
327.283
327.028
326.863
326.78
326.773
326.814
326.874
326.929
326.965
326.975
326.986
324.254
324.691
325.206
324.734
299.007
295.795
295.06
294.874
294.877
295.076
295.861
299.298
326.791
327.827
327.521
327.139
326.826
326.605
326.471
326.408
326.395
326.406
326.444
326.479
326.5
326.522
324.117
324.56
325.072
324.63
298.971
295.767
295.038
294.855
294.858
295.054
295.837
299.284
326.828
327.87
327.535
327.15
326.798
326.53
326.344
326.234
326.189
326.185
326.211
326.243
326.277
326.315
324.119
324.466
324.838
324.284
298.966
295.812
295.098
294.92
294.921
295.113
295.89
299.338
327.045
328.208
327.844
327.453
327.038
326.724
326.497
326.346
326.279
326.253
326.256
326.281
326.32
326.367
324.589
324.615
324.653
323.88
299.112
296.071
295.39
295.218
295.215
295.393
296.14
299.539
327.408
328.856
328.57
327.925
327.378
327.022
326.786
326.632
326.539
326.492
326.484
326.506
326.55
326.605
325.411
325.105
324.661
323.606
300.105
297.384
296.783
296.618
296.595
296.729
297.368
300.456
327.606
328.63
328.186
327.716
327.338
327.079
326.909
326.802
326.743
326.722
326.734
326.774
326.835
326.905
326.192
325.793
325.131
324.028
310.024
308.833
308.429
308.184
308.006
307.925
308.109
309.428
325.71
326.73
326.783
326.735
326.702
326.698
326.715
326.745
326.788
326.842
326.909
326.988
327.078
327.166
326.702
326.417
325.832
324.58
310.679
309.659
309.368
309.22
309.133
309.117
309.278
310.264
324.781
325.859
326.136
326.287
326.417
326.543
326.663
326.775
326.882
326.985
327.086
327.186
327.287
327.376
326.948
326.797
326.394
325.181
310.683
309.679
309.428
309.307
309.238
309.228
309.365
310.287
324.951
326.021
326.307
326.469
326.602
326.728
326.848
326.961
327.069
327.173
327.272
327.365
327.454
327.495
327.069
326.992
326.731
325.652
310.75
309.741
309.509
309.401
309.344
309.34
309.47
310.37
325.158
326.182
326.442
326.592
326.719
326.841
326.957
327.07
327.18
327.288
327.391
327.483
327.558
327.557
327.148
327.099
326.918
326.007
312.144
311.208
311.001
310.908
310.862
310.863
310.981
311.807
325.538
326.464
326.69
326.822
326.934
327.039
327.141
327.239
327.338
327.438
327.535
327.616
327.651
327.381
327.209
327.173
327.05
326.371
315.708
314.979
314.82
314.753
314.722
314.725
314.819
315.465
326.061
326.782
326.959
327.066
327.159
327.247
327.332
327.415
327.501
327.589
327.676
327.743
327.722
327.1
327.243
327.222
327.152
326.754
320.626
320.191
320.098
320.064
320.052
320.061
320.127
320.526
326.645
327.095
327.219
327.3
327.373
327.444
327.512
327.581
327.653
327.728
327.803
327.853
327.781
326.867
327.251
327.245
327.222
327.072
325.013
324.847
324.816
324.813
324.82
324.835
324.878
325.053
327.139
327.341
327.417
327.474
327.53
327.585
327.64
327.695
327.754
327.817
327.88
327.916
327.817
326.782
327.243
327.249
327.256
327.259
327.541
327.541
327.552
327.569
327.589
327.609
327.636
327.674
327.437
327.486
327.53
327.572
327.617
327.662
327.709
327.756
327.805
327.857
327.906
327.929
327.817
326.84
327.23
327.243
327.265
327.323
328.225
328.286
328.315
328.342
328.368
328.391
328.411
328.4
327.549
327.545
327.575
327.61
327.649
327.69
327.732
327.774
327.817
327.86
327.9
327.912
327.793
326.831
327.221
327.236
327.262
327.318
327.929
327.987
328.02
328.05
328.078
328.101
328.121
328.114
327.556
327.557
327.584
327.616
327.652
327.691
327.731
327.771
327.81
327.848
327.88
327.885
327.764
326.821
327.216
327.232
327.259
327.298
327.488
327.527
327.559
327.588
327.615
327.64
327.662
327.673
327.537
327.558
327.586
327.617
327.651
327.688
327.727
327.766
327.803
327.837
327.865
327.868
327.756
326.886
327.214
327.232
327.259
327.289
327.266
327.292
327.322
327.35
327.377
327.403
327.428
327.451
327.53
327.563
327.591
327.622
327.654
327.689
327.726
327.763
327.799
327.832
327.858
327.864
327.776
327.078
327.213
327.233
327.262
327.291
327.243
327.266
327.295
327.322
327.349
327.377
327.404
327.432
327.539
327.574
327.602
327.63
327.661
327.694
327.729
327.764
327.799
327.831
327.858
327.869
327.818
327.369
327.213
327.234
327.266
327.299
327.289
327.314
327.342
327.369
327.397
327.426
327.455
327.483
327.553
327.587
327.613
327.64
327.669
327.7
327.732
327.766
327.799
327.83
327.858
327.877
327.863
327.662
327.213
327.236
327.27
327.307
327.326
327.352
327.38
327.407
327.435
327.465
327.495
327.523
327.566
327.599
327.623
327.648
327.675
327.704
327.735
327.766
327.798
327.829
327.858
327.883
327.897
327.872
327.213
327.238
327.275
327.313
327.34
327.366
327.394
327.421
327.449
327.479
327.51
327.538
327.576
327.609
327.633
327.655
327.68
327.708
327.737
327.767
327.797
327.827
327.856
327.884
327.914
327.971
327.214
327.241
327.279
327.318
327.342
327.367
327.396
327.424
327.452
327.482
327.512
327.542
327.583
327.618
327.641
327.663
327.686
327.712
327.739
327.767
327.796
327.825
327.854
327.884
327.919
327.991
327.216
327.245
327.283
327.322
327.343
327.368
327.397
327.426
327.455
327.484
327.515
327.545
327.589
327.625
327.649
327.671
327.693
327.716
327.742
327.768
327.796
327.824
327.853
327.883
327.917
327.976
327.218
327.248
327.287
327.324
327.346
327.371
327.4
327.43
327.46
327.489
327.519
327.549
327.594
327.63
327.656
327.678
327.699
327.721
327.745
327.77
327.796
327.824
327.852
327.881
327.914
327.96
327.22
327.25
327.288
327.325
327.348
327.374
327.404
327.435
327.465
327.495
327.525
327.554
327.597
327.633
327.66
327.683
327.705
327.726
327.748
327.772
327.797
327.824
327.851
327.88
327.911
327.952
327.221
327.251
327.288
327.324
327.35
327.377
327.408
327.439
327.47
327.5
327.529
327.559
327.599
327.634
327.662
327.687
327.709
327.73
327.752
327.774
327.799
327.824
327.851
327.879
327.909
327.949
327.222
327.252
327.288
327.323
327.351
327.38
327.412
327.443
327.474
327.504
327.534
327.564
327.6
327.634
327.663
327.689
327.713
327.735
327.756
327.778
327.802
327.827
327.853
327.88
327.909
327.949
327.225
327.254
327.289
327.325
327.355
327.385
327.418
327.449
327.481
327.511
327.541
327.571
327.605
327.637
327.666
327.693
327.718
327.741
327.763
327.785
327.809
327.833
327.858
327.884
327.913
327.952
327.237
327.267
327.302
327.338
327.37
327.402
327.435
327.467
327.498
327.529
327.559
327.589
327.621
327.652
327.681
327.709
327.735
327.759
327.782
327.805
327.828
327.852
327.877
327.902
327.929
327.966
)
;

boundaryField
{
    concrete_to_air
    {
        type            compressible::turbulentTemperatureRadCoupledMixed;
        refValue        nonuniform List<scalar> 
898
(
313.299
313.345
313.373
313.38
313.403
313.423
313.191
312.89
312.564
312.285
312.243
312.217
312.2
312.19
312.186
312.186
312.19
312.197
312.208
312.22
312.235
312.252
312.271
312.291
312.312
312.335
313.247
313.249
313.213
313.152
313.153
313.179
313.024
312.883
312.743
312.612
312.679
312.738
312.778
312.797
312.794
312.772
312.734
312.689
312.645
312.607
312.576
312.553
312.54
312.534
312.535
312.543
313.107
313.041
312.933
312.834
312.857
312.905
312.731
312.578
312.449
312.345
312.483
312.612
312.718
312.806
312.875
312.922
312.941
312.936
312.914
312.882
312.848
312.816
312.79
312.772
312.764
312.766
312.839
312.724
312.597
312.553
312.66
312.795
312.584
312.394
312.25
312.166
312.521
312.842
313.093
313.256
313.339
313.357
313.336
313.293
313.239
313.182
313.128
313.08
313.04
313.012
312.999
313.004
312.473
312.389
312.335
312.42
313.87
313.603
313.411
313.311
313.283
313.322
313.324
313.305
313.282
313.265
313.26
313.271
313.303
313.351
312.122
312.132
312.201
312.432
313.508
313.201
313.041
312.978
312.976
313.013
313.077
313.138
313.181
313.21
313.193
313.122
313.018
312.922
311.857
311.956
312.125
312.495
313.309
312.935
312.743
312.631
312.567
312.532
312.514
312.506
312.5
312.488
312.466
312.439
312.418
312.399
311.643
311.787
312.019
312.495
313.198
312.785
312.568
312.418
312.317
312.249
312.204
312.176
312.159
312.146
312.139
312.138
312.138
312.138
311.444
311.606
311.855
312.366
313.152
312.721
312.491
312.351
312.238
312.152
312.09
312.049
312.028
312.018
312.019
312.026
312.035
312.048
311.418
311.565
311.782
312.224
313.255
312.818
312.574
312.445
312.303
312.198
312.122
312.069
312.048
312.039
312.041
312.05
312.065
312.086
311.578
311.645
311.77
312.087
313.495
313.177
312.904
312.64
312.435
312.313
312.237
312.192
312.169
312.16
312.164
312.179
312.201
312.231
311.857
311.839
311.85
312.032
313.518
313.043
312.729
312.532
312.404
312.333
312.298
312.286
312.289
312.304
312.328
312.361
312.402
312.449
312.149
312.097
312.035
312.071
311.889
311.674
311.457
311.25
311.061
310.897
310.768
310.721
311.216
311.519
311.727
311.884
312.009
312.112
312.201
312.279
312.351
312.419
312.487
312.557
312.629
312.703
312.394
312.367
312.302
312.253
312.063
311.893
311.741
311.607
311.49
311.388
311.303
311.241
311.448
311.636
311.801
311.949
312.083
312.205
312.318
312.424
312.524
312.621
312.716
312.811
312.904
312.988
312.595
312.606
312.577
312.525
312.322
312.149
311.999
311.868
311.753
311.653
311.566
311.501
311.669
311.835
311.992
312.14
312.279
312.412
312.538
312.657
312.772
312.882
312.99
313.094
313.188
313.244
312.792
312.823
312.83
312.81
312.613
312.436
312.282
312.147
312.029
311.925
311.835
311.765
311.913
312.065
312.213
312.357
312.497
312.632
312.763
312.89
313.012
313.13
313.245
313.349
313.426
313.402
312.992
313.029
313.056
313.065
312.896
312.74
312.6
312.477
312.368
312.273
312.192
312.129
312.262
312.402
312.541
312.677
312.811
312.941
313.067
313.189
313.306
313.419
313.524
313.606
313.634
313.454
313.158
313.201
313.239
313.267
313.153
313.043
312.944
312.857
312.781
312.717
312.665
312.629
312.743
312.864
312.984
313.103
313.22
313.334
313.444
313.55
313.651
313.747
313.835
313.895
313.889
313.642
313.256
313.307
313.355
313.398
313.355
313.311
313.272
313.24
313.215
313.198
313.19
313.194
313.284
313.379
313.473
313.566
313.658
313.747
313.833
313.915
313.994
314.068
314.137
314.176
314.146
313.86
313.288
313.345
313.401
313.455
313.476
313.495
313.514
313.534
313.558
313.586
313.619
313.658
313.726
313.797
313.867
313.936
314.004
314.07
314.134
314.196
314.255
314.311
314.363
314.393
314.357
314.071
313.281
313.342
313.402
313.462
313.521
313.578
313.634
313.688
313.743
313.799
313.856
313.914
313.97
314.025
314.079
314.133
314.186
314.237
314.287
314.336
314.383
314.429
314.473
314.515
314.53
314.449
313.265
313.327
313.388
313.449
313.52
313.589
313.657
313.723
313.789
313.853
313.917
313.98
314.03
314.08
314.128
314.176
314.223
314.269
314.314
314.358
314.401
314.444
314.485
314.526
314.559
314.556
313.253
313.314
313.375
313.435
313.503
313.569
313.635
313.7
313.763
313.825
313.886
313.945
313.996
314.045
314.093
314.141
314.187
314.233
314.278
314.322
314.365
314.407
314.449
314.489
314.527
314.553
313.247
313.308
313.368
313.427
313.488
313.548
313.608
313.667
313.725
313.783
313.839
313.894
313.945
313.996
314.045
314.094
314.142
314.189
314.235
314.28
314.324
314.367
314.409
314.451
314.49
314.52
313.244
313.304
313.363
313.422
313.479
313.535
313.592
313.647
313.702
313.756
313.809
313.862
313.914
313.965
314.015
314.065
314.113
314.161
314.207
314.253
314.298
314.342
314.385
314.427
314.467
314.5
313.242
313.301
313.36
313.418
313.474
313.53
313.585
313.639
313.693
313.746
313.798
313.85
313.902
313.953
314.003
314.052
314.101
314.148
314.195
314.241
314.286
314.33
314.374
314.416
314.457
314.493
313.239
313.298
313.357
313.414
313.471
313.527
313.582
313.636
313.69
313.743
313.795
313.846
313.898
313.949
313.998
314.047
314.096
314.143
314.19
314.235
314.281
314.325
314.368
314.411
314.453
314.492
313.237
313.296
313.354
313.411
313.468
313.524
313.579
313.633
313.687
313.74
313.792
313.844
313.895
313.945
313.995
314.043
314.091
314.139
314.185
314.231
314.276
314.32
314.364
314.407
314.449
314.49
313.235
313.293
313.351
313.409
313.465
313.521
313.575
313.63
313.683
313.736
313.788
313.84
313.89
313.941
313.99
314.039
314.087
314.134
314.18
314.226
314.271
314.315
314.359
314.402
314.444
314.486
313.233
313.291
313.349
313.406
313.462
313.518
313.572
313.626
313.68
313.732
313.784
313.835
313.886
313.936
313.985
314.034
314.082
314.129
314.175
314.221
314.266
314.31
314.354
314.397
314.439
314.482
313.231
313.29
313.347
313.404
313.46
313.515
313.57
313.623
313.676
313.729
313.781
313.832
313.882
313.932
313.981
314.03
314.078
314.125
314.171
314.216
314.261
314.306
314.349
314.392
314.435
314.477
313.23
313.288
313.346
313.402
313.458
313.513
313.567
313.621
313.674
313.726
313.778
313.829
313.879
313.929
313.978
314.026
314.074
314.121
314.167
314.213
314.258
314.302
314.346
314.389
314.431
314.473
313.229
313.287
313.344
313.401
313.456
313.511
313.565
313.619
313.672
313.724
313.775
313.826
313.876
313.926
313.975
314.024
314.071
314.118
314.164
314.21
314.255
314.299
314.342
314.386
314.428
314.47
313.227
313.285
313.343
313.399
313.455
313.51
313.564
313.617
313.67
313.722
313.773
313.824
313.874
313.924
313.973
314.021
314.069
314.115
314.162
314.207
314.252
314.296
314.34
314.383
314.425
314.468
313.226
313.284
313.342
313.398
313.453
313.508
313.562
313.615
313.668
313.72
313.771
313.822
313.872
313.922
313.97
314.019
314.066
314.113
314.159
314.205
314.249
314.294
314.337
314.38
314.423
314.465
313.226
313.283
313.341
313.397
313.452
313.507
313.561
313.614
313.667
313.719
313.77
313.82
313.87
313.92
313.969
314.017
314.064
314.111
314.157
314.203
314.248
314.292
314.336
314.379
314.421
314.464
313.225
313.283
313.34
313.396
313.452
313.506
313.56
313.614
313.666
313.718
313.769
313.82
313.87
313.919
313.968
314.016
314.064
314.111
314.157
314.202
314.247
314.292
314.335
314.379
314.421
314.464
)
;
        refGradient     nonuniform List<scalar> 
898
(
58.4224
58.7252
59.5123
60.5453
62.0909
65.6968
-3.33301
-0.10764
0.380129
-1.52946
76.2638
74.679
74.0075
73.9247
73.3482
72.7994
72.2431
71.6589
71.0582
70.4808
69.9308
69.3892
68.8382
68.2735
67.6998
67.1055
58.6275
59.2716
60.8721
62.9711
65.3636
69.0613
-1.64402
1.21697
1.55881
-0.648547
71.447
68.4995
66.7594
66.3657
65.9749
66.0148
66.2725
66.5829
66.8501
67.0417
67.1363
67.1135
66.9662
66.7051
66.3442
65.8821
59.3386
60.5035
63.1604
66.3804
70.7301
74.1869
-3.27743
-0.95599
-0.570244
-2.32333
74.4825
70.7918
66.3898
65.0924
64.2123
63.9063
63.9007
64.0606
64.3141
64.6055
64.8761
65.0648
65.1202
65.0276
64.8424
64.5518
61.3885
63.1097
66.2985
69.6927
82.5335
85.2188
13.4375
14.6561
14.9094
13.8381
80.8452
75.9566
61.2993
59.5731
59.8706
60.8535
61.8298
62.4428
62.7077
62.9833
63.4465
63.9982
64.3779
64.2649
63.657
63.012
64.7743
66.1219
68.1227
71.8932
57.5547
55.5118
57.9863
60.3328
61.6757
62.4949
62.6762
62.6698
62.6039
62.5569
62.6556
62.8241
62.5618
61.3409
69.2196
69.1393
68.9921
71.6058
60.3008
56.5311
57.8548
59.2419
60.3222
60.9974
61.1946
60.9468
60.4494
59.8479
59.3874
59.0085
58.5166
58.1279
71.9543
70.2778
68.502
70.0718
60.8701
57.0544
58.0394
59.2154
60.2392
60.9849
61.3611
61.4015
61.2577
61.0671
60.876
60.7418
60.6315
60.5586
72.6396
70.4825
68.0363
68.9025
60.9562
57.2842
58.3192
59.8169
61.1781
62.1976
62.8363
63.141
63.2251
63.2129
63.0979
62.9833
62.895
62.7975
73.1278
70.9811
68.4924
69.1743
60.6572
56.9353
58.1112
59.6789
61.2903
62.5691
63.4555
63.9494
64.1397
64.151
64.0611
63.9711
63.8747
63.7403
73.0732
71.4059
69.5245
70.6696
59.6052
55.1642
56.5106
58.1658
60.1251
61.6501
62.7406
63.4115
63.6625
63.755
63.7552
63.7178
63.6539
63.5423
70.8834
70.7642
70.457
72.5679
57.8155
51.6388
52.7533
55.7872
58.4255
60.1761
61.3164
62.0134
62.4004
62.583
62.629
62.609
62.5631
62.4849
67.0055
68.5182
70.631
74.1577
56.5278
52.5333
54.52
56.7253
58.5463
59.8249
60.6556
61.1489
61.4027
61.4768
61.4113
61.2779
61.148
61.0315
63.4363
65.3404
68.3397
72.0389
-3.00802
-0.215298
0.664044
1.28074
1.81276
2.19157
2.03015
-1.0961
64.0462
61.2829
61.2539
61.4789
61.6213
61.6452
61.5639
61.4045
61.1903
60.9152
60.5636
60.1825
59.8693
59.6474
61.0006
62.3162
64.864
69.433
-4.14206
-1.55749
-0.966173
-0.657851
-0.412327
-0.237432
-0.385452
-2.83609
68.3884
65.1103
64.1005
63.4348
62.8466
62.2938
61.7571
61.2371
60.7416
60.2486
59.7174
59.1778
58.7602
58.5059
59.8281
60.4956
62.1776
66.6633
-5.83472
-3.11052
-2.51808
-2.25051
-2.03742
-1.8798
-2.05317
-4.54535
67.5504
64.1227
63.0534
62.3892
61.8274
61.3111
60.8122
60.3242
59.8548
59.3848
58.8711
58.3342
57.9395
57.8585
59.3177
59.6109
60.6214
64.5165
-7.20387
-4.40016
-3.81224
-3.58438
-3.40296
-3.26478
-3.46887
-5.99597
66.6963
63.3762
62.4106
61.8389
61.3405
60.8565
60.3708
59.8843
59.406
58.9278
58.4137
57.8722
57.4775
57.5514
59.0767
59.213
59.8517
63.052
-2.49242
0.155351
0.726237
0.9439
1.10841
1.22012
0.996002
-1.39755
65.1604
62.1363
61.3
60.8343
60.4292
60.0192
59.5931
59.1561
58.7177
58.2785
57.8227
57.3657
57.1142
58.2253
58.952
59.0133
59.4128
61.7511
12.2199
14.3632
14.8666
15.0758
15.2143
15.2764
15.046
13.0798
63.184
60.8136
60.148
59.7753
59.4474
59.1043
58.737
58.3529
57.9613
57.5683
57.1795
56.8369
56.7958
59.0688
58.9194
58.9279
59.1301
60.4857
32.9693
34.3151
34.6592
34.808
34.8844
34.8793
34.6667
33.3693
61.0315
59.5324
59.0492
58.7484
58.4761
58.1891
57.8794
57.5536
57.2194
56.8826
56.5586
56.3293
56.5279
59.8148
58.9539
58.919
58.9608
59.4569
51.0644
51.5961
51.7391
51.7883
51.7823
51.7129
51.5333
50.9116
59.2044
58.5128
58.2015
57.9669
57.7436
57.5073
57.2508
56.9785
56.6976
56.4136
56.1416
55.9791
56.3261
60.093
59.0138
58.9475
58.8839
58.8507
60.9129
60.8992
60.8863
60.8499
60.7797
60.6688
60.5192
60.3415
58.0798
57.8933
57.6963
57.5071
57.3174
57.1176
56.9016
56.6704
56.4316
56.1953
55.9793
55.8629
56.2353
59.6442
59.062
58.9761
58.8612
58.6356
63.0068
62.7857
62.696
62.613
62.51
62.3817
62.2474
62.2252
57.6229
57.6172
57.4723
57.3089
57.141
56.9672
56.7821
56.5827
56.3733
56.1659
55.985
55.9102
56.2973
59.5987
59.0851
58.9884
58.858
58.6401
61.2722
61.0573
60.9506
60.8525
60.7413
60.6131
60.4837
60.4405
57.5678
57.5477
57.4121
57.2582
57.1004
56.9403
56.7745
56.5982
56.4123
56.2277
56.0714
56.0234
56.4234
59.6602
59.0864
58.9839
58.8526
58.6961
59.2386
59.0865
58.9826
58.8798
58.7676
58.6441
58.5152
58.4069
57.6167
57.5303
57.3878
57.2365
57.0838
56.9313
56.7779
56.6193
56.4534
56.2875
56.1459
56.1016
56.4667
59.4556
59.0739
58.9676
58.838
58.7218
58.2912
58.1765
58.0722
57.9627
57.848
57.7281
57.6004
57.4527
57.6294
57.5001
57.3506
57.2007
57.0518
56.9043
56.7588
56.6128
56.4633
56.3136
56.1822
56.1297
56.4103
58.8136
59.0538
58.9447
58.8155
58.7095
58.2064
58.0936
57.9812
57.8615
57.7409
57.6215
57.4959
57.3401
57.5849
57.445
57.2918
57.1424
56.9969
56.8534
56.7131
56.5755
56.438
56.3009
56.1757
56.1055
56.2627
57.8118
59.0309
58.9204
58.7912
58.6815
58.3795
58.252
58.1284
57.9987
57.8717
57.7504
57.6268
57.4779
57.5198
57.3857
57.2311
57.0812
56.9378
56.7978
56.6614
56.5293
56.4001
56.2725
56.1519
56.0629
56.0946
56.7871
59.0101
58.8997
58.7709
58.6559
58.4842
58.341
58.2077
58.0708
57.9384
57.8141
57.691
57.5498
57.4609
57.3351
57.1799
57.0282
56.885
56.7472
56.6138
56.4852
56.361
56.2395
56.1222
56.0188
55.9574
56.043
58.9948
58.8859
58.7577
58.639
58.4877
58.333
58.1931
58.0521
57.9161
57.7883
57.6642
57.527
57.4173
57.2984
57.1439
56.9902
56.8455
56.7084
56.577
56.4509
56.3293
56.2114
56.0967
55.9867
55.8777
55.6816
58.9867
58.8799
58.7514
58.6289
58.4547
58.2924
58.1485
58.0059
57.8676
57.7364
57.61
57.4738
57.3855
57.272
57.1202
56.9655
56.8186
56.6802
56.5493
56.4242
56.3038
56.1877
56.0753
55.9651
55.8441
55.6
58.9856
58.8804
58.7501
58.6224
58.4292
58.2621
58.1161
57.9731
57.8336
57.6993
57.5701
57.4335
57.3612
57.2521
57.105
56.9517
56.8031
56.6625
56.5302
56.4048
56.2847
56.1696
56.0593
55.9519
55.836
55.638
58.9912
58.8863
58.7523
58.6179
58.42
58.2504
58.1033
57.9605
57.8202
57.6838
57.5518
57.4144
57.3428
57.2365
57.0954
56.9459
56.7973
56.6543
56.5195
56.3927
56.2723
56.1577
56.0488
55.9442
55.8354
55.6843
59.003
58.8966
58.7576
58.616
58.4218
58.252
58.1044
57.9618
57.8212
57.6833
57.5493
57.4112
57.3311
57.2252
57.0903
56.9464
56.8003
56.6563
56.5189
56.39
56.2688
56.1545
56.0463
55.9427
55.8373
55.7058
59.0201
58.9104
58.7656
58.6172
58.4297
58.2618
58.1139
57.9711
57.8303
57.6918
57.5564
57.4182
57.3267
57.2186
57.0889
56.9515
56.8097
56.6668
56.5282
56.3974
56.2753
56.1608
56.0525
55.9482
55.8423
55.7109
59.0389
58.9242
58.7737
58.6196
58.4394
58.2746
58.1265
57.9834
57.8424
57.7037
57.5676