/*--------------------------------*- C++ -*----------------------------------*\
| =========                 |                                                 |
| \\      /  F ield         | OpenFOAM: The Open Source CFD Toolbox           |
|  \\    /   O peration     | Version:  v2012                                 |
|   \\  /    A nd           | Website:  www.openfoam.com                      |
|    \\/     M anipulation  |                                                 |
\*---------------------------------------------------------------------------*/
FoamFile
{
    version     2.0;
    format      ascii;
    class       volScalarField;
    location    "400/concrete";
    object      T;
}
// * * * * * * * * * * * * * * * * * * * * * * * * * * * * * * * * * * * * * //

dimensions      [0 0 0 1 0 0 0];


internalField   nonuniform List<scalar> 
1924
(
326.048
326.12
326.187
326.147
326.013
324.78
312.037
310.745
310.637
311.588
322.866
323.709
323.62
323.506
323.388
323.334
323.328
323.358
323.419
323.507
323.615
323.735
323.857
323.976
324.092
324.215
325.974
325.98
325.962
325.822
325.708
324.521
312.065
310.808
310.761
311.893
324.144
325.241
325.154
324.989
324.772
324.599
324.457
324.342
324.261
324.217
324.208
324.225
324.26
324.308
324.367
324.448
325.76
325.624
325.434
325.219
325.271
324.15
311.555
310.268
310.244
311.492
324.326
325.58
325.413
325.288
325.126
325.011
324.916
324.831
324.76
324.707
324.671
324.648
324.637
324.64
324.662
324.713
325.291
324.993
324.601
324.266
323.808
322.687
311.975
310.822
310.806
312.014
323.775
325.468
326.078
326.075
325.769
325.446
325.183
325.005
324.898
324.844
324.824
324.818
324.819
324.824
324.844
324.902
324.522
324.216
323.744
322.252
303.418
300.418
298.581
298.078
298.086
298.632
300.652
304.025
325.086
326.238
325.87
325.483
325.179
324.971
324.873
324.836
324.855
324.909
324.978
325.054
325.132
325.224
323.691
323.662
323.558
322.029
300.633
297.167
296.185
295.9
295.907
296.22
297.292
301.086
324.515
326.23
326.04
325.712
325.428
325.23
325.125
325.093
325.127
325.218
325.364
325.49
325.594
325.707
323.115
323.383
323.57
322.182
300.095
296.477
295.592
295.358
295.363
295.619
296.575
300.483
324.319
326.146
326.029
325.737
325.473
325.28
325.167
325.124
325.135
325.186
325.265
325.358
325.43
325.498
322.912
323.29
323.602
322.325
299.979
296.308
295.433
295.21
295.215
295.457
296.398
300.338
324.256
326.106
325.996
325.67
325.372
325.147
324.998
324.918
324.894
324.907
324.958
325.016
325.067
325.12
322.783
323.172
323.485
322.234
299.942
296.279
295.41
295.191
295.195
295.434
296.373
300.324
324.299
326.185
326.067
325.758
325.44
325.184
324.997
324.878
324.82
324.803
324.819
324.847
324.879
324.923
322.794
323.092
323.282
321.945
299.948
296.342
295.491
295.277
295.281
295.515
296.445
300.397
324.496
326.503
326.381
326.077
325.71
325.413
325.192
325.036
324.955
324.912
324.898
324.904
324.923
324.96
323.226
323.236
323.13
321.629
300.141
296.669
295.859
295.654
295.654
295.872
296.765
300.653
324.822
327.029
327.027
326.463
325.983
325.652
325.427
325.277
325.182
325.128
325.106
325.107
325.127
325.168
323.972
323.686
323.17
321.499
301.297
298.203
297.494
297.301
297.28
297.447
298.21
301.729
325.047
326.81
326.577
326.189
325.853
325.618
325.465
325.37
325.318
325.298
325.304
325.329
325.369
325.427
324.685
324.315
323.633
322.137
309.715
308.122
307.645
307.402
307.251
307.218
307.523
309.295
323.669
325.155
325.313
325.284
325.25
325.241
325.255
325.284
325.325
325.376
325.436
325.502
325.574
325.65
325.166
324.894
324.283
322.712
310.591
309.218
308.861
308.704
308.625
308.632
308.877
310.246
322.917
324.36
324.703
324.858
324.975
325.086
325.194
325.296
325.393
325.489
325.581
325.67
325.755
325.831
325.412
325.256
324.802
323.263
310.675
309.317
309
308.872
308.809
308.818
309.033
310.326
323.054
324.477
324.83
324.999
325.124
325.239
325.348
325.452
325.552
325.649
325.743
325.829
325.902
325.925
325.537
325.447
325.12
323.697
310.807
309.447
309.15
309.035
308.983
308.996
309.199
310.463
323.256
324.63
324.958
325.116
325.236
325.347
325.454
325.558
325.659
325.759
325.855
325.939
325.996
325.972
325.618
325.553
325.308
324.073
312.112
310.858
310.591
310.493
310.45
310.465
310.65
311.806
323.652
324.898
325.185
325.324
325.43
325.527
325.62
325.712
325.804
325.895
325.984
326.055
326.059
325.715
325.677
325.626
325.45
324.517
315.31
314.334
314.127
314.054
314.025
314.04
314.188
315.091
324.239
325.208
325.434
325.547
325.635
325.717
325.795
325.873
325.953
326.034
326.111
326.161
326.089
325.283
325.709
325.674
325.571
325.015
319.686
319.099
318.975
318.935
318.923
318.94
319.041
319.597
324.921
325.521
325.675
325.76
325.83
325.896
325.96
326.025
326.091
326.16
326.224
326.253
326.11
324.912
325.717
325.699
325.659
325.443
323.601
323.372
323.324
323.316
323.322
323.342
323.401
323.641
325.509
325.772
325.861
325.92
325.973
326.026
326.078
326.13
326.186
326.243
326.295
326.307
326.125
324.747
325.709
325.705
325.706
325.701
325.889
325.882
325.886
325.899
325.917
325.939
325.971
326.015
325.87
325.923
325.969
326.011
326.054
326.097
326.141
326.186
326.232
326.279
326.32
326.319
326.121
324.764
325.696
325.7
325.721
325.791
326.545
326.618
326.646
326.67
326.694
326.717
326.737
326.712
326.007
325.986
326.013
326.047
326.084
326.122
326.162
326.202
326.242
326.281
326.313
326.303
326.099
324.754
325.685
325.692
325.718
325.785
326.313
326.382
326.415
326.442
326.468
326.491
326.509
326.49
326.012
325.998
326.021
326.052
326.086
326.122
326.159
326.197
326.233
326.268
326.293
326.277
326.074
324.754
325.678
325.686
325.712
325.754
325.93
325.972
326.003
326.03
326.055
326.079
326.1
326.107
325.982
325.995
326.02
326.05
326.082
326.117
326.153
326.189
326.223
326.254
326.276
326.26
326.074
324.857
325.673
325.683
325.707
325.734
325.726
325.751
325.779
325.805
325.83
325.855
325.88
325.903
325.965
325.995
326.022
326.051
326.081
326.114
326.148
326.183
326.216
326.246
326.267
326.257
326.109
325.13
325.67
325.681
325.706
325.731
325.697
325.718
325.744
325.77
325.796
325.822
325.848
325.877
325.967
326.001
326.028
326.055
326.085
326.116
326.148
326.181
326.213
326.242
326.264
326.264
326.172
325.536
325.668
325.68
325.708
325.736
325.733
325.756
325.782
325.808
325.834
325.861
325.889
325.917
325.978
326.009
326.035
326.061
326.089
326.118
326.149
326.18
326.21
326.239
326.264
326.275
326.238
325.946
325.666
325.68
325.71
325.742
325.764
325.789
325.815
325.841
325.867
325.895
325.923
325.951
325.988
326.018
326.043
326.067
326.093
326.121
326.149
326.179
326.209
326.237
326.263
326.283
326.289
326.24
325.666
325.681
325.713
325.747
325.775
325.801
325.827
325.853
325.88
325.908
325.937
325.964
325.996
326.026
326.05
326.073
326.097
326.123
326.15
326.178
326.207
326.235
326.261
326.287
326.315
326.381
325.666
325.683
325.716
325.75
325.777
325.802
325.829
325.856
325.883
325.911
325.939
325.967
326.002
326.033
326.056
326.078
326.101
326.126
326.152
326.178
326.205
326.232
326.259
326.287
326.322
326.409
325.667
325.686
325.719
325.754
325.777
325.802
325.83
325.857
325.885
325.912
325.941
325.97
326.007
326.039
326.063
326.085
326.106
326.129
326.154
326.179
326.205
326.231
326.258
326.286
326.32
326.391
325.669
325.689
325.722
325.756
325.78
325.805
325.833
325.861
325.889
325.917
325.945
325.974
326.011
326.044
326.069
326.091
326.112
326.134
326.157
326.181
326.206
326.231
326.257
326.285
326.316
326.369
325.672
325.691
325.725
325.758
325.783
325.809
325.838
325.866
325.895
325.923
325.951
325.979
326.016
326.048
326.074
326.097
326.118
326.139
326.161
326.184
326.208
326.232
326.258
326.285
326.315
326.36
325.675
325.694
325.727
325.76
325.786
325.813
325.843
325.872
325.901
325.929
325.957
325.985
326.02
326.051
326.078
326.102
326.124
326.145
326.166
326.188
326.211
326.235
326.26
326.286
326.315
326.359
325.678
325.697
325.73
325.762
325.79
325.819
325.848
325.878
325.907
325.936
325.964
325.992
326.024
326.055
326.082
326.107
326.13
326.151
326.172
326.194
326.216
326.24
326.264
326.29
326.318
326.363
325.684
325.703
325.735
325.768
325.797
325.827
325.857
325.887
325.916
325.945
325.974
326.001
326.032
326.062
326.089
326.115
326.139
326.161
326.182
326.203
326.226
326.249
326.273
326.297
326.325
326.369
325.702
325.724
325.756
325.789
325.82
325.851
325.882
325.912
325.942
325.971
325.999
326.027
326.057
326.085
326.112
326.138
326.163
326.186
326.208
326.23
326.253
326.276
326.299
326.323
326.349
326.39
327.615
327.702
327.786
327.761
327.716
326.855
312.174
311.231
311.13
311.762
324.793
325.265
325.065
324.917
324.777
324.714
324.708
324.741
324.808
324.904
325.022
325.152
325.284
325.413
325.537
325.662
327.553
327.572
327.568
327.432
327.417
326.603
312.274
311.36
311.315
312.112
326.249
326.986
326.783
326.583
326.335
326.144
325.985
325.855
325.762
325.709
325.695
325.709
325.743
325.79
325.849
325.925
327.337
327.203
327.011
326.811
327.06
326.33
311.739
310.771
310.744
311.662
326.519
327.392
327.009
326.835
326.654
326.542
326.449
326.365
326.292
326.235
326.194
326.167
326.153
326.153
326.17
326.213
326.846
326.534
326.133
325.927
326.178
325.503
312.95
312.03
312.008
312.957
326.765
328.076
327.924
327.751
327.37
327.005
326.717
326.524
326.407
326.348
326.326
326.323
326.329
326.336
326.35
326.395
326.017
325.704
325.279
324.293
302.079
299.428
297.809
297.38
297.386
297.853
299.634
302.615
327.477
327.998
327.46
327.023
326.69
326.453
326.358
326.315
326.331
326.388
326.467
326.557
326.648
326.74
325.114
325.117
325.153
324.306
299.604
296.546
295.706
295.463
295.469
295.735
296.653
300
327.041
328.043
327.673
327.29
326.98
326.762
326.645
326.606
326.631
326.723
326.888
327.038
327.156
327.269
324.501
324.831
325.199
324.562
299.145
295.955
295.199
295
295.005
295.222
296.039
299.484
326.893
327.97
327.669
327.32
327.03
326.818
326.695
326.646
326.654
326.706
326.79
326.896
326.975
327.041
324.306
324.746
325.251
324.754
299.047
295.812
295.064
294.875
294.879
295.085
295.889
299.361
326.843
327.934
327.636
327.247
326.919
326.677
326.515
326.427
326.398
326.41
326.465
326.531
326.585
326.636
324.173
324.62
325.124
324.656
299.016
295.787
295.045
294.858
294.862
295.065
295.867
299.349
326.893
328.02
327.711
327.348
327.004
326.73
326.529
326.401
326.337
326.317
326.333
326.361
326.393
326.431
324.176
324.527
324.895
324.319
299.019
295.841
295.114
294.932
294.935
295.134
295.929
299.412
327.102
328.365
328.047
327.704
327.307
326.99
326.752
326.583
326.496
326.448
326.43
326.432
326.448
326.478
324.645
324.675
324.712
323.925
299.183
296.12
295.428
295.254
295.254
295.439
296.202
299.632
327.444
328.962
328.808
328.136
327.608
327.25
327.008
326.847
326.743
326.682
326.655
326.653
326.669
326.702
325.464
325.162
324.719
323.661
300.207
297.476
296.87
296.706
296.687
296.828
297.479
300.588
327.684
328.732
328.29
327.833
327.46
327.204
327.039
326.936
326.879
326.856
326.86
326.884
326.923
326.976
326.236
325.843
325.188
324.088
310.113
308.931
308.534
308.295
308.124
308.046
308.229
309.54
325.78
326.808
326.861
326.81
326.774
326.77
326.789
326.823
326.869
326.926
326.989
327.059
327.133
327.209
326.745
326.467
325.892
324.648
310.779
309.771
309.49
309.348
309.265
309.25
309.407
310.383
324.854
325.927
326.2
326.35
326.476
326.599
326.718
326.83
326.937
327.04
327.139
327.233
327.323
327.401
326.992
326.846
326.45
325.245
310.776
309.78
309.537
309.423
309.357
309.344
309.477
310.393
325.022
326.086
326.37
326.528
326.657
326.778
326.894
327.004
327.11
327.213
327.312
327.403
327.483
327.514
327.111
327.037
326.781
325.708
310.835
309.832
309.607
309.506
309.45
309.444
309.569
310.466
325.224
326.244
326.502
326.649
326.772
326.888
327.002
327.112
327.22
327.326
327.428
327.519
327.588
327.576
327.186
327.139
326.962
326.056
312.221
311.291
311.089
311.002
310.957
310.955
311.07
311.894
325.597
326.519
326.743
326.872
326.98
327.081
327.179
327.277
327.374
327.472
327.567
327.649
327.681
327.402
327.24
327.207
327.086
326.412
315.774
315.05
314.893
314.829
314.799
314.801
314.894
315.539
326.11
326.828
327.004
327.108
327.198
327.283
327.366
327.448
327.533
327.619
327.704
327.77
327.748
327.123
327.269
327.25
327.182
326.786
320.677
320.245
320.153
320.119
320.108
320.116
320.184
320.582
326.685
327.131
327.254
327.334
327.406
327.475
327.543
327.611
327.681
327.755
327.827
327.876
327.803
326.89
327.273
327.268
327.246
327.097
325.049
324.885
324.854
324.85
324.857
324.874
324.918
325.094
327.171
327.37
327.445
327.503
327.558
327.613
327.668
327.723
327.782
327.843
327.904
327.938
327.836
326.804
327.262
327.268
327.277
327.28
327.568
327.569
327.579
327.595
327.615
327.637
327.666
327.705
327.464
327.51
327.555
327.598
327.642
327.688
327.734
327.781
327.83
327.881
327.929
327.951
327.837
326.861
327.248
327.26
327.283
327.341
328.247
328.308
328.337
328.363
328.388
328.413
328.436
328.427
327.573
327.567
327.597
327.633
327.671
327.712
327.754
327.796
327.839
327.882
327.921
327.932
327.813
326.854
327.235
327.251
327.278
327.334
327.948
328.007
328.039
328.068
328.095
328.12
328.142
328.137
327.576
327.576
327.603
327.636
327.671
327.71
327.75
327.789
327.828
327.866
327.897
327.902
327.78
326.84
327.227
327.244
327.271
327.31
327.504
327.543
327.574
327.602
327.629
327.655
327.679
327.692
327.553
327.572
327.601
327.632
327.666
327.703
327.741
327.779
327.816
327.85
327.878
327.88
327.767
326.9
327.221
327.239
327.267
327.296
327.277
327.304
327.332
327.36
327.387
327.414
327.44
327.465
327.541
327.572
327.601
327.632
327.665
327.699
327.736
327.772
327.808
327.84
327.866
327.871
327.783
327.086
327.217
327.237
327.266
327.294
327.249
327.273
327.301
327.328
327.355
327.383
327.412
327.441
327.544
327.578
327.607
327.636
327.667
327.7
327.734
327.769
327.803
327.835
327.861
327.872
327.82
327.372
327.214
327.235
327.266
327.298
327.292
327.318
327.346
327.373
327.4
327.429
327.459
327.488
327.554
327.587
327.614
327.642
327.671
327.702
327.734
327.767
327.8
327.831
327.858
327.876
327.862
327.661
327.212
327.235
327.268
327.303
327.326
327.353
327.381
327.409
327.437
327.466
327.496
327.525
327.564
327.596
327.621
327.647
327.675
327.704
327.735
327.766
327.797
327.828
327.856
327.88
327.893
327.867
327.211
327.235
327.27
327.307
327.338
327.365
327.393
327.421
327.449
327.479
327.509
327.539
327.571
327.603
327.628
327.652
327.678
327.706
327.735
327.765
327.795
327.824
327.853
327.88
327.908
327.964
327.211
327.237
327.273
327.311
327.339
327.365
327.394
327.422
327.451
327.481
327.511
327.541
327.577
327.61
327.635
327.658
327.683
327.709
327.736
327.764
327.793
327.822
327.85
327.879
327.912
327.983
327.212
327.239
327.276
327.314
327.339
327.365
327.395
327.424
327.453
327.482
327.513
327.542
327.582
327.616
327.641
327.664
327.688
327.712
327.738
327.765
327.792
327.82
327.848
327.877
327.91
327.968
327.214
327.242
327.28
327.317
327.341
327.368
327.398
327.428
327.457
327.487
327.517
327.547
327.587
327.621
327.647
327.671
327.693
327.717
327.741
327.767
327.793
327.82
327.847
327.876
327.907
327.952
327.217
327.246
327.283
327.319
327.345
327.372
327.403
327.433
327.463
327.493
327.523
327.553
327.591
327.625
327.653
327.677
327.7
327.722
327.745
327.77
327.795
327.821
327.848
327.876
327.906
327.946
327.22
327.249
327.285
327.321
327.348
327.377
327.408
327.44
327.47
327.5
327.53
327.559
327.596
327.629
327.658
327.683
327.706
327.728
327.751
327.774
327.799
327.824
327.851
327.878
327.907
327.946
327.224
327.252
327.288
327.323
327.352
327.383
327.414
327.446
327.477
327.507
327.537
327.566
327.601
327.633
327.662
327.688
327.713
327.735
327.757
327.78
327.804
327.829
327.855
327.881
327.91
327.949
327.229
327.257
327.292
327.327
327.358
327.39
327.422
327.454
327.485
327.516
327.546
327.575
327.608
327.639
327.668
327.695
327.72
327.744
327.767
327.789
327.813
327.838
327.863
327.889
327.916
327.955
327.242
327.271
327.307
327.342
327.375
327.407
327.44
327.472
327.504
327.535
327.565
327.594
327.625
327.655
327.684
327.712
327.738
327.763
327.786
327.81
327.833
327.858
327.882
327.907
327.934
327.97
)
;

boundaryField
{
    concrete_to_air
    {
        type            compressible::turbulentTemperatureRadCoupledMixed;
        refValue        nonuniform List<scalar> 
898
(
313.31
313.356
313.384
313.392
313.416
313.437
313.205
312.905
312.58
312.301
312.261
312.236
312.22
312.213
312.211
312.215
312.223
312.233
312.246
312.261
312.278
312.295
312.313
312.332
312.351
312.37
313.258
313.26
313.224
313.165
313.167
313.194
313.04
312.9
312.761
312.631
312.699
312.76
312.802
312.824
312.827
312.812
312.783
312.746
312.708
312.671
312.641
312.617
312.6
312.589
312.584
312.584
313.118
313.052
312.945
312.848
312.872
312.921
312.748
312.595
312.467
312.365
312.503
312.633
312.74
312.829
312.9
312.952
312.983
312.991
312.981
312.958
312.93
312.901
312.874
312.851
312.834
312.823
312.85
312.736
312.609
312.567
312.676
312.811
312.601
312.412
312.27
312.186
312.542
312.864
313.111
313.266
313.351
313.382
313.379
313.354
313.316
313.272
313.227
313.185
313.146
313.114
313.089
313.073
312.484
312.401
312.348
312.436
313.876
313.585
313.374
313.258
313.2
313.187
313.229
313.265
313.294
313.307
313.312
313.316
313.325
313.341
312.134
312.145
312.216
312.447
313.512
313.175
312.979
312.87
312.814
312.796
312.806
312.829
312.863
312.913
312.965
313.003
313.025
313.032
311.87
311.97
312.141
312.512
313.323
312.937
312.728
312.598
312.511
312.454
312.424
312.414
312.417
312.427
312.443
312.467
312.488
312.504
311.656
311.803
312.036
312.513
313.212
312.811
312.592
312.436
312.33
312.255
312.204
312.173
312.16
312.158
312.17
312.189
312.208
312.226
311.459
311.623
311.874
312.386
313.195
312.771
312.549
312.42
312.31
312.222
312.155
312.11
312.088
312.078
312.082
312.092
312.106
312.122
311.433
311.581
311.801
312.244
313.299
312.893
312.656
312.555
312.421
312.313
312.232
312.171
312.145
312.131
312.127
312.132
312.144
312.16
311.592
311.66
311.788
312.107
313.536
313.264
313.081
312.762
312.559
312.432
312.352
312.303
312.275
312.263
312.262
312.271
312.287
312.31
311.87
311.852
311.866
312.051
313.67
313.173
312.832
312.625
312.49
312.416
312.38
312.37
312.375
312.39
312.414
312.444
312.481
312.524
312.161
312.11
312.05
312.089
311.909
311.696
311.482
311.279
311.094
310.933
310.808
310.762
311.264
311.571
311.78
311.937
312.062
312.167
312.257
312.338
312.412
312.483
312.552
312.621
312.692
312.763
312.407
312.381
312.317
312.27
312.082
311.914
311.764
311.633
311.518
311.419
311.336
311.276
311.482
311.669
311.835
311.984
312.119
312.244
312.359
312.468
312.57
312.668
312.764
312.859
312.951
313.034
312.608
312.619
312.592
312.541
312.34
312.169
312.021
311.892
311.78
311.681
311.596
311.532
311.701
311.867
312.025
312.174
312.315
312.449
312.576
312.697
312.812
312.923
313.03
313.134
313.227
313.282
312.805
312.837
312.845
312.826
312.63
312.456
312.303
312.17
312.054
311.951
311.863
311.795
311.943
312.096
312.245
312.391
312.532
312.669
312.802
312.93
313.053
313.171
313.285
313.388
313.463
313.438
313.004
313.042
313.069
313.079
312.912
312.758
312.62
312.498
312.392
312.298
312.218
312.157
312.292
312.432
312.572
312.71
312.845
312.976
313.104
313.226
313.344
313.457
313.56
313.641
313.668
313.486
313.169
313.212
313.251
313.28
313.168
313.06
312.962
312.876
312.802
312.74
312.689
312.655
312.77
312.891
313.013
313.133
313.251
313.366
313.477
313.583
313.685
313.781
313.867
313.926
313.918
313.671
313.266
313.317
313.365
313.409
313.368
313.326
313.288
313.256
313.233
313.217
313.211
313.216
313.307
313.402
313.497
313.592
313.684
313.774
313.86
313.943
314.022
314.097
314.164
314.203
314.172
313.885
313.296
313.354
313.411
313.465
313.488
313.507
313.527
313.548
313.573
313.602
313.636
313.676
313.745
313.816
313.887
313.957
314.025
314.092
314.156
314.218
314.278
314.334
314.387
314.417
314.38
314.094
313.288
313.35
313.411
313.471
313.531
313.589
313.645
313.7
313.756
313.812
313.87
313.929
313.985
314.041
314.096
314.15
314.203
314.255
314.305
314.355
314.403
314.449
314.494
314.536
314.551
314.469
313.272
313.334
313.396
313.457
313.528
313.598
313.667
313.734
313.799
313.865
313.929
313.992
314.043
314.093
314.142
314.191
314.238
314.284
314.33
314.374
314.418
314.461
314.503
314.544
314.578
314.575
313.259
313.321
313.382
313.443
313.51
313.577
313.643
313.708
313.772
313.835
313.896
313.956
314.007
314.057
314.105
314.153
314.2
314.246
314.292
314.336
314.38
314.422
314.464
314.505
314.544
314.571
313.253
313.313
313.373
313.433
313.494
313.555
313.615
313.675
313.733
313.791
313.847
313.903
313.955
314.006
314.056
314.105
314.153
314.2
314.246
314.292
314.336
314.38
314.423
314.465
314.505
314.536
313.249
313.309
313.368
313.427
313.484
313.541
313.597
313.653
313.708
313.763
313.817
313.869
313.922
313.973
314.024
314.073
314.122
314.17
314.217
314.263
314.308
314.352
314.396
314.438
314.479
314.512
313.245
313.305
313.364
313.422
313.478
313.534
313.589
313.644
313.698
313.751
313.804
313.856
313.908
313.959
314.01
314.059
314.108
314.156
314.203
314.249
314.294
314.339
314.383
314.426
314.467
314.503
313.242
313.301
313.36
313.417
313.474
313.53
313.585
313.639
313.693
313.747
313.799
313.851
313.902
313.953
314.003
314.053
314.101
314.149
314.195
314.241
314.287
314.331
314.375
314.418
314.46
314.499
313.239
313.298
313.356
313.414
313.47
313.526
313.581
313.636
313.69
313.743
313.795
313.847
313.898
313.949
313.998
314.047
314.095
314.143
314.189
314.235
314.28
314.325
314.369
314.412
314.454
314.496
313.236
313.295
313.353
313.41
313.467
313.522
313.577
313.632
313.685
313.738
313.79
313.842
313.893
313.943
313.993
314.041
314.089
314.137
314.183
314.229
314.274
314.318
314.362
314.405
314.448
314.49
313.234
313.293
313.35
313.407
313.464
313.519
313.574
313.628
313.681
313.734
313.786
313.837
313.888
313.938
313.987
314.036
314.084
314.131
314.177
314.223
314.268
314.312
314.356
314.399
314.442
314.485
313.232
313.291
313.348
313.405
313.461
313.516
313.571
313.624
313.678
313.73
313.782
313.833
313.883
313.933
313.983
314.031
314.079
314.126
314.172
314.218
314.263
314.307
314.351
314.394
314.437
314.479
313.231
313.289
313.346
313.403
313.459
313.514
313.568
313.622
313.675
313.727
313.779
313.829
313.88
313.93
313.979
314.027
314.075
314.122
314.168
314.214
314.259
314.303
314.347
314.39
314.432
314.475
313.229
313.287
313.345
313.401
313.457
313.512
313.566
313.619
313.672
313.724
313.776
313.827
313.877
313.927
313.976
314.024
314.072
314.118
314.165
314.21
314.255
314.299
314.343
314.386
314.429
314.471
313.228
313.286
313.343
313.4
313.455
313.51
313.564
313.618
313.67
313.722
313.774
313.824
313.874
313.924
313.973
314.021
314.069
314.116
314.162
314.207
314.252
314.296
314.34
314.383
314.426
314.468
313.227
313.285
313.342
313.398
313.454
313.509
313.563
313.616
313.669
313.72
313.772
313.822
313.872
313.922
313.971
314.019
314.066
314.113
314.159
314.205
314.249
314.294
314.337
314.38
314.423
314.465
313.226
313.284
313.341
313.397
313.453
313.507
313.561
313.615
313.667
313.719
313.77
313.821
313.871
313.92
313.969
314.017
314.064
314.111
314.157
314.203
314.248
314.292
314.335
314.379
314.421
314.463
313.226
313.283
313.341
313.397
313.452
313.507
313.561
313.614
313.667
313.719
313.77
313.82
313.87
313.92
313.968
314.016
314.064
314.111
314.157
314.202
314.247
314.291
314.335
314.378
314.421
314.463
)
;
        refGradient     nonuniform List<scalar> 
898
(
58.2807
58.6663
59.4302
60.4267
62.1393
65.7727
-3.33692
-0.117036
0.357206
-1.59142
76.0863
74.5319
73.8781
73.6919
73.0749
72.5346
71.9879
71.4032
70.8042
70.2319
69.6924
69.165
68.6318
68.0889
67.542
66.9824
58.4808
59.2517
60.8393
62.9072
65.4413
69.1283
-1.63348
1.22491
1.5639
-0.684564
71.25
68.2532
66.5185
65.9895
65.5407
65.5763
65.8149
66.0981
66.3598
66.5716
66.7027
66.7252
66.6291
66.4261
66.1357
65.7575
59.1759
60.4839
63.1179
66.3036
70.7524
74.1859
-3.27804
-0.951341
-0.558898
-2.32281
74.3851
70.5969
66.1911
64.7884
63.8838
63.6311
63.63
63.7637
63.9788
64.2301
64.4612
64.6267
64.6993
64.6649
64.5316
64.3063
61.2326
63.0896
66.2443
69.6015
82.4905
85.1829
13.4207
14.6437
14.899
13.8263
80.7986
75.803
61.1426
59.4475
59.9014
61.0398
62.1051
62.8531
63.2746
63.475
63.5717
63.6662
63.764
63.7973
63.6385
63.2557
64.6739
66.14
68.1005
71.7955
57.834
55.9214
58.5065
60.6205
62.1063
62.9684
63.5856
63.7564
63.5709
63.2246
62.8722
62.602
62.4017
62.0721
69.1715
69.1973
69.0141
71.5339
60.0694
56.2978
57.7758
59.3809
60.7326
61.6872
62.18
62.4131
62.1799
61.6195
60.7597
60.1697
59.6141
58.9775
71.934
70.3611
68.5619
70.0061
60.4893
56.6001
57.7476
59.1554
60.3914
61.3073
61.8548
62.0781
62.0267
61.7647
61.3532
60.8409
60.4456
60.1003
72.6128
70.5568
68.1184
68.8553
60.5201
56.6965
57.8429
59.4807
60.9422
62.0534
62.7958
63.1875
63.2882
63.2146
62.9336
62.6269
62.3727
62.1467
73.0767
71.0104
68.5653
69.1387
60.1495
56.1545
57.3713
58.8969
60.469
61.7637
62.7147
63.3061
63.5749
63.6475
63.5621
63.4424
63.3092
63.1561
72.9955
71.3762
69.5567
70.6342
59.0606
54.2484
55.5475
57.003
58.8815
60.4176
61.5666
62.3643
62.7413
62.9461
63.0388
63.0547
63.0126
62.9226
70.7796
70.6831
70.4291
72.5177
57.2679
50.7816
51.2909
54.6016
57.2368
59.003
60.1934
60.9597
61.4328
61.7151
61.8654
61.9155
61.8875
61.808
66.8739
68.398
70.5339
74.0498
55.634
51.6815
53.8638
56.0608
57.8689
59.1247
59.9358
60.4204
60.6808
60.793
60.8017
60.73
60.597
60.4358
63.2582
65.181
68.1918
71.8935
-3.10073
-0.289483
0.589801
1.18997
1.69584
2.04331
1.84815
-1.31537
63.6818
60.9181
60.9151
61.1487
61.2771
61.272
61.157
60.9627
60.7194
60.4502
60.1652
59.8662
59.5598
59.2797
60.81
62.1444
64.714
69.2894
-4.22902
-1.62991
-1.02785
-0.723181
-0.489702
-0.333934
-0.509332
-2.98499
68.2279
64.9683
63.9593
63.2786
62.6583
62.066
61.4921
60.9357
60.4059
59.9121
59.4563
59.0354
58.6548
58.3563
59.6401
60.316
62.0093
66.4998
-5.96794
-3.24136
-2.63717
-2.36449
-2.15796
-2.01833
-2.21379
-4.71415
67.383
63.9703
62.9078
62.2388
61.6569
61.1126
60.5876
60.0716
59.5695
59.092
58.648
58.247
57.9155
57.8119
59.1308
59.4296
60.443
64.3333
-7.37341
-4.57132
-3.96927
-3.7272
-3.54855
-3.43082
-3.65549
-6.18316
66.5159
63.2051
62.2438
61.6645
61.1461
60.6376
60.1289
59.6185
59.1123
58.6201
58.1536
57.7404
57.4404
57.538
58.8818
59.0234
59.6624
62.8565
-2.67633
-0.0297661
0.551486
0.78161
0.943145
1.03656
0.797312
-1.59454
64.9613
61.9403
61.1051
60.6297
60.2062
59.7766
59.3339
58.8814
58.4242
57.9686
57.5313
57.1649
57.0325
58.242
58.7459
58.8118
59.2112
61.5456
12.0258
14.1681
14.6724
14.8839
15.0177
15.0697
14.834
12.8707
62.9694
60.5972
59.9315
59.5509
59.2091
58.8522
58.4738
58.0805
57.6782
57.2709
56.8755
56.5694
56.6321
59.0633
58.7058
58.7168
58.9188
60.2722
32.7652
34.1097
34.448
34.5915
34.6633
34.6561
34.4453
33.1514
60.8078
59.304
58.8213
58.5165
58.2366
57.9421
57.6262
57.295
56.9546
56.6085
56.2706
56.0365
56.2823
59.7098
58.7401
58.7054
58.7468
59.2411
50.8593
51.3901
51.5257
51.5676
51.5588
51.4918
51.3169
50.6989
58.9821
58.2841
57.9734
57.7378
57.5115
57.2719
57.0123
56.7363
56.4503
56.1601
55.8796
55.7056
56.0524
59.8685
58.8079
58.7406
58.6765
58.6415
60.7201
60.7062
60.6862
60.6432
60.5714
60.4647
60.321
60.1479
57.8699
57.6757
57.4788
57.2893
57.0982
56.8964
56.6782
56.4441
56.2008
55.9586
55.7375
55.6164
55.9811
59.3782
58.8709
58.7838
58.6688
58.4415
62.8339
62.6127
62.5162
62.4268
62.3224
62.1987
62.071
62.0551
57.4322
57.4183
57.2729
57.1089
56.9395
56.7633
56.5754
56.3732
56.1606
55.9486
55.7616
55.6813
56.0659
59.3678
58.9141
58.8167
58.6865
58.4667
61.1205
60.9052
60.7912
60.6869
60.5741
60.4498
60.3273
60.2919
57.3992
57.3714
57.2353
57.0806
56.9209
56.7579
56.5886
56.4092
56.2207
56.033
55.8721
55.8173
56.2091
59.439
58.94
58.837
58.7061
58.5469
59.1079
58.955
58.844
58.7356
58.6218
58.5011
58.3781
58.2785
57.4719
57.379
57.2369
57.0852
56.9307
56.7755
56.6186
56.4564
56.2877
56.1195
55.9748
55.926
56.2846
59.2662
58.9558
58.849
58.7192
58.5991
58.1833
58.0677
57.9575
57.8441
57.7281
57.6097
57.4862
57.3468
57.5106
57.3763
57.2286
57.0791
56.9291
56.7796
56.6311
56.4817
56.3293
56.1775
56.044
55.988
56.263
58.6598
58.9662
58.8563
58.7261
58.6147
58.1243
58.0114
57.8948
57.7732
57.6522
57.533
57.4096
57.2611
57.4942
57.3504
57.2006
57.0529
56.907
56.7623
56.6198
56.4793
56.3391
56.2
56.0732
56.0004
56.153
57.6969
58.9734
58.8615
58.7302
58.6137
58.3244
58.1984
58.0725
57.9426
57.8158
57.6942
57.5711
57.4281
57.457
57.3193
57.1697
57.023
56.8804
56.7399
56.6021
56.4679
56.3363
56.2068
56.0846
55.9933
56.0215
56.71
58.9789
58.8663
58.7343
58.6117
58.454
58.3142
58.1801
58.0439
57.9123
57.7875
57.6641
57.5273
57.4229
57.2933
57.1442
56.9973
56.8561
56.7187
56.5847
56.4547
56.3285
56.2053
56.0863
55.9809
55.9164
55.9991
58.9842
58.8721
58.7397
58.6133
58.4773
58.3278
58.1881
58.0484
57.9134
57.7854
57.6606
57.5267
57.3992
57.2756
57.1277
56.9801
56.8389
56.7033
56.5721
56.4452
56.3223
56.2029
56.0866
55.9747
55.863
55.6645
58.9907
58.8799
58.7468
58.6171
58.4588
58.303
58.16
58.0187
57.8816
57.7505
57.6235
57.49
57.3828
57.2635
57.1179
56.9703
56.8283
56.6927
56.5629
56.4378
56.3167
56.1994
56.0856
55.9735
55.85
55.6039
59.0002
58.8906
58.7557
58.6218
58.4444
58.2846
58.1397
57.9979
57.8595
57.7259
57.5964
57.4621
57.3712
57.2555
57.1137
56.9675
56.8249
56.6883
56.5584
56.4339
56.3137
56.1979
56.0865
55.9774
55.8591
55.6593
59.0142
58.9048
58.767
58.6278
58.4446
58.2824
58.1367
57.9948
57.8557
57.7201
57.5884
57.4532
57.3645
57.2513
57.1142
56.9713
56.8292
56.6914
56.5601
56.4351
56.3154
56.2007
56.0911
55.9851
55.8744
55.7215
59.033
58.9227
58.7808
58.6359
58.4547
58.2921
58.1459
58.0041
57.8646
57.7279
57.5944
57.4587
57.3641
57.2516
57.1194
56.981
56.8411
56.7029
56.5701
56.444
56.3243
56.2105
56.1021
55.9977
55.891
55.7579
59.0552
58.9425
58.796
58.6457
58.4692
58.3076
58.1611
58.0192
57.8795
57.7423
57.6078
57.472
57.3691
57.2555
57.1274
56.9942
56.8579
56.7208
56.5873
56.4602
56.3404
56.227
56.1191
56.0147
55.9083
55.7757
59.0766
58.9601
58.8088
58.6541
58.4827
58.3232
58.1765
58.0342
57.8944
57.757
57.6221
57.4866
57.3757
57.2594
57.1341