/*--------------------------------*- C++ -*----------------------------------*\
| =========                 |                                                 |
| \\      /  F ield         | OpenFOAM: The Open Source CFD Toolbox           |
|  \\    /   O peration     | Version:  v2012                                 |
|   \\  /    A nd           | Website:  www.openfoam.com                      |
|    \\/     M anipulation  |                                                 |
\*---------------------------------------------------------------------------*/
FoamFile
{
    version     2.0;
    format      ascii;
    class       volScalarField;
    location    "600/air";
    object      alphat;
}
// * * * * * * * * * * * * * * * * * * * * * * * * * * * * * * * * * * * * * //

dimensions      [1 -1 -1 0 0 0 0];


internalField   nonuniform List<scalar> 
287104
(
0.00647909
0.0060022
0.0056354
0.00534293
0.00510413
0.00490567
0.00473837
0.00459566
0.00447267
0.00436575
0.00427208
0.00418945
0.00411613
0.0040507
0.00399203
0.00393917
0.00389136
0.00384794
0.00380837
0.00377218
0.00373899
0.00370844
0.00368026
0.00365418
0.00363
0.00360752
0.00358656
0.00356699
0.00354868
0.0035315
0.00351535
0.00350013
0.00348577
0.00347219
0.00345931
0.00344707
0.00343541
0.00342428
0.00341363
0.00340342
0.00339359
0.00338413
0.00337498
0.00336612
0.00335752
0.00334915
0.003341
0.00333304
0.00332526
0.00331764
0.00331017
0.00330284
0.00329565
0.00328857
0.00328162
0.00327479
0.00326807
0.00326146
0.00325497
0.00324859
0.00324231
0.00323615
0.0032301
0.00322415
0.00321831
0.00321258
0.00320695
0.00320142
0.00319599
0.00319066
0.00318541
0.00318024
0.00317514
0.00317011
0.00316513
0.00316019
0.00315528
0.00315038
0.00314547
0.00314052
0.00313551
0.00313039
0.0031251
0.00311958
0.0031137
0.00310726
0.00310001
0.00309105
0.00308058
0.00305685
0.00647904
0.00600208
0.0056352
0.00534266
0.00510381
0.00490531
0.00473797
0.00459522
0.00447221
0.00436527
0.00427158
0.00418895
0.00411563
0.00405022
0.00399156
0.00393873
0.00389095
0.00384756
0.00380803
0.00377188
0.00373872
0.00370821
0.00368007
0.00365404
0.00362991
0.00360747
0.00358658
0.00356707
0.00354881
0.0035317
0.00351563
0.00350049
0.00348622
0.00347273
0.00345995
0.00344782
0.00343627
0.00342527
0.00341474
0.00340466
0.00339497
0.00338563
0.00337662
0.00336789
0.00335943
0.00335119
0.00334316
0.00333533
0.00332766
0.00332014
0.00331277
0.00330554
0.00329842
0.00329142
0.00328454
0.00327776
0.00327109
0.00326453
0.00325807
0.00325171
0.00324546
0.00323931
0.00323326
0.00322732
0.00322148
0.00321574
0.0032101
0.00320456
0.00319911
0.00319376
0.00318848
0.00318329
0.00317816
0.0031731
0.00316809
0.00316312
0.00315817
0.00315322
0.00314826
0.00314326
0.00313818
0.00313299
0.00312764
0.00312204
0.00311609
0.00310958
0.00310228
0.00309329
0.00308284
0.00305938
0.00647907
0.00600211
0.00563523
0.00534269
0.00510382
0.00490529
0.00473794
0.00459517
0.00447215
0.00436519
0.0042715
0.00418887
0.00411555
0.00405014
0.0039915
0.00393869
0.00389093
0.00384757
0.00380806
0.00377193
0.0037388
0.00370833
0.00368022
0.00365422
0.00363012
0.00360773
0.00358687
0.00356741
0.00354921
0.00353215
0.00351614
0.00350108
0.00348688
0.00347347
0.00346078
0.00344874
0.0034373
0.0034264
0.00341599
0.00340602
0.00339645
0.00338724
0.00337835
0.00336975
0.00336141
0.00335331
0.00334541
0.0033377
0.00333016
0.00332277
0.00331552
0.00330841
0.00330141
0.00329454
0.00328777
0.00328111
0.00327456
0.00326812
0.00326177
0.00325554
0.00324941
0.00324338
0.00323746
0.00323164
0.00322593
0.00322032
0.00321481
0.0032094
0.00320409
0.00319886
0.00319373
0.00318867
0.00318369
0.00317877
0.0031739
0.00316906
0.00316425
0.00315944
0.00315462
0.00314974
0.00314479
0.00313971
0.00313447
0.00312898
0.00312313
0.00311674
0.00310957
0.00310076
0.00309051
0.00306764
0.0064791
0.00600213
0.00563523
0.00534265
0.00510374
0.00490517
0.00473777
0.00459495
0.00447188
0.00436488
0.00427116
0.00418851
0.00411518
0.00404977
0.00399114
0.00393834
0.00389059
0.00384724
0.00380774
0.00377162
0.0037385
0.00370804
0.00367994
0.00365396
0.00362987
0.0036075
0.00358667
0.00356723
0.00354906
0.00353205
0.00351609
0.00350108
0.00348695
0.00347361
0.003461
0.00344905
0.00343771
0.00342691
0.00341661
0.00340676
0.0033973
0.00338821
0.00337945
0.00337097
0.00336275
0.00335476
0.00334697
0.00333937
0.00333192
0.00332463
0.00331747
0.00331043
0.00330351
0.0032967
0.00328999
0.00328338
0.00327687
0.00327047
0.00326416
0.00325795
0.00325184
0.00324583
0.00323992
0.00323411
0.00322841
0.0032228
0.00321729
0.00321187
0.00320654
0.0032013
0.00319614
0.00319106
0.00318604
0.00318107
0.00317614
0.00317124
0.00316635
0.00316144
0.0031565
0.00315149
0.00314637
0.00314111
0.00313565
0.00312992
0.00312383
0.00311718
0.00310976
0.00310071
0.00309025
0.00306731
0.00647913
0.00600217
0.00563525
0.00534265
0.00510371
0.0049051
0.00473766
0.00459479
0.00447167
0.00436463
0.00427087
0.0041882
0.00411487
0.00404946
0.00399084
0.00393805
0.00389032
0.00384699
0.0038075
0.00377141
0.0037383
0.00370786
0.00367977
0.00365381
0.00362974
0.00360739
0.00358659
0.00356719
0.00354906
0.0035321
0.00351619
0.00350125
0.0034872
0.00347395
0.00346144
0.0034496
0.00343837
0.0034277
0.00341753
0.00340782
0.00339851
0.00338957
0.00338095
0.00337262
0.00336455
0.00335671
0.00334907
0.0033416
0.00333429
0.00332713
0.00332009
0.00331318
0.00330637
0.00329967
0.00329307
0.00328657
0.00328016
0.00327385
0.00326764
0.00326152
0.0032555
0.00324958
0.00324376
0.00323805
0.00323243
0.00322691
0.00322148
0.00321615
0.00321091
0.00320576
0.00320068
0.00319568
0.00319074
0.00318585
0.00318099
0.00317616
0.00317133
0.00316649
0.00316159
0.00315661
0.00315152
0.00314627
0.00314081
0.00313509
0.00312902
0.00312242
0.00311511
0.00310627
0.00309611
0.00307384
0.00647917
0.0060022
0.00563526
0.00534263
0.00510364
0.00490498
0.00473746
0.00459453
0.00447134
0.00436425
0.00427045
0.00418777
0.00411445
0.00404907
0.00399047
0.0039377
0.00388999
0.00384667
0.0038072
0.00377111
0.00373801
0.00370756
0.00367948
0.00365352
0.00362947
0.00360713
0.00358635
0.00356698
0.0035489
0.00353199
0.00351616
0.00350131
0.00348736
0.00347423
0.00346185
0.00345016
0.0034391
0.00342862
0.00341864
0.00340914
0.00340005
0.00339134
0.00338296
0.00337487
0.00336704
0.00335944
0.00335204
0.00334483
0.00333777
0.00333085
0.00332406
0.00331739
0.00331083
0.00330437
0.00329802
0.00329176
0.00328561
0.00327956
0.0032736
0.00326776
0.00326202
0.00325639
0.00325087
0.00324546
0.00324017
0.00323499
0.00322992
0.00322496
0.00322011
0.00321536
0.00321071
0.00320615
0.00320167
0.00319727
0.00319293
0.00318864
0.00318438
0.00318013
0.00317586
0.00317153
0.00316712
0.00316258
0.00315788
0.003153
0.00314786
0.00314234
0.00313627
0.00312897
0.00312062
0.00310145
0.0064792
0.00600223
0.00563528
0.0053426
0.00510357
0.00490483
0.00473723
0.0045942
0.00447089
0.00436368
0.00426979
0.00418706
0.00411372
0.00404834
0.00398976
0.00393703
0.00388934
0.00384604
0.00380659
0.00377051
0.00373742
0.00370698
0.00367892
0.00365297
0.00362894
0.00360664
0.0035859
0.0035666
0.0035486
0.00353179
0.00351609
0.00350139
0.00348761
0.00347469
0.00346255
0.00345113
0.00344036
0.00343018
0.00342055
0.00341141
0.0034027
0.00339438
0.00338641
0.00337872
0.00337129
0.0033641
0.00335711
0.00335031
0.00334368
0.0033372
0.00333085
0.00332462
0.00331851
0.00331251
0.00330661
0.00330082
0.00329514
0.00328956
0.0032841
0.00327875
0.00327352
0.00326841
0.00326343
0.00325857
0.00325385
0.00324927
0.00324482
0.00324051
0.00323634
0.0032323
0.0032284
0.00322463
0.003221
0.00321748
0.00321408
0.00321079
0.00320758
0.00320443
0.00320133
0.00319821
0.00319505
0.00319181
0.00318849
0.00318506
0.00318149
0.00317773
0.00317369
0.00316898
0.00316424
0.00315065
0.00647923
0.00600226
0.00563528
0.00534257
0.00510347
0.00490465
0.00473695
0.0045938
0.00447036
0.00436303
0.0042691
0.0041864
0.00411312
0.00404781
0.00398929
0.00393658
0.0038889
0.00384557
0.00380607
0.00376992
0.00373674
0.00370621
0.00367805
0.00365203
0.00362793
0.00360558
0.00358483
0.00356555
0.00354761
0.00353091
0.00351535
0.00350085
0.0034873
0.00347463
0.00346279
0.0034517
0.00344129
0.00343152
0.0034223
0.00341359
0.00340532
0.00339744
0.0033899
0.00338266
0.00337567
0.0033689
0.00336233
0.00335592
0.00334966
0.00334354
0.00333754
0.00333166
0.00332591
0.00332027
0.00331475
0.00330936
0.00330408
0.00329894
0.00329392
0.00328904
0.00328429
0.00327968
0.00327521
0.00327088
0.00326669
0.00326264
0.00325872
0.00325495
0.00325131
0.0032478
0.00324442
0.00324116
0.00323801
0.00323497
0.00323202
0.00322915
0.00322635
0.00322357
0.0032208
0.00321797
0.00321502
0.00321192
0.00320871
0.00320538
0.00320191
0.00319826
0.00319446
0.00319034
0.00318698
0.00317998
0.00647926
0.00600229
0.00563528
0.00534251
0.00510333
0.00490439
0.00473652
0.00459312
0.00446932
0.00436154
0.00426782
0.0041861
0.00411414
0.00405008
0.00399249
0.00394027
0.00389261
0.00384889
0.00380865
0.00377153
0.00373722
0.0037055
0.00367615
0.003649
0.00362391
0.00360071
0.00357928
0.00355949
0.00354119
0.00352429
0.00350866
0.00349419
0.0034808
0.00346841
0.00345692
0.00344624
0.00343631
0.00342703
0.0034183
0.00341004
0.00340218
0.00339466
0.00338742
0.00338042
0.00337363
0.00336702
0.00336057
0.00335428
0.00334815
0.00334216
0.00333631
0.00333059
0.00332499
0.00331952
0.00331416
0.00330893
0.00330382
0.00329884
0.003294
0.00328928
0.00328471
0.00328027
0.00327597
0.00327181
0.0032678
0.00326392
0.00326018
0.00325657
0.00325311
0.00324978
0.00324658
0.00324352
0.00324058
0.00323777
0.00323507
0.00323248
0.00322998
0.00322755
0.00322515
0.00322267
0.00321997
0.00321713
0.00321424
0.00321132
0.00320834
0.00320524
0.00320201
0.00319852
0.00319567
0.00319056
0.00647929
0.00600232
0.00563528
0.00534246
0.00510319
0.00490414
0.0047361
0.00459248
0.00446834
0.00436033
0.00432684
0.00430955
0.00428387
0.0042453
0.00419601
0.00413974
0.00407999
0.00401943
0.00396
0.00390298
0.0038492
0.00379914
0.00375302
0.00371089
0.00367268
0.00363822
0.00360724
0.00357939
0.00355427
0.00353145
0.00351047
0.00349083
0.00347341
0.00345877
0.00344626
0.00343536
0.00342566
0.00341684
0.00340869
0.00340104
0.00339376
0.00338673
0.0033799
0.0033732
0.00336681
0.00336082
0.00335523
0.00335003
0.00334515
0.00334055
0.00333619
0.00333204
0.00332806
0.00332424
0.00332057
0.00331705
0.00331368
0.00331044
0.00330736
0.00330441
0.0033016
0.00329893
0.00329639
0.00329398
0.00329171
0.00328957
0.00328755
0.00328566
0.0032839
0.00328226
0.00328074
0.00327936
0.0032781
0.00327697
0.00327597
0.0032751
0.00327434
0.00327367
0.00327307
0.00327231
0.00326447
0.00325511
0.00324608
0.00323793
0.00323069
0.0032242
0.00321829
0.00321256
0.00320767
0.00320043
0.00647932
0.00600234
0.00563527
0.00534238
0.005103
0.00490376
0.00473537
0.0045911
0.00446516
0.00436362
0.00769016
0.00841164
0.00839905
0.00814127
0.00781744
0.00749532
0.0071996
0.00693796
0.0067113
0.00651801
0.00635561
0.00622134
0.00611239
0.00602594
0.00595913
0.00590908
0.00587295
0.00584797
0.00583154
0.00582129
0.00581517
0.00581148
0.00580937
0.0058088
0.00580955
0.00581111
0.00581298
0.00581481
0.0058164
0.00581769
0.00581872
0.00581965
0.0058204
0.00582099
0.00582136
0.00582166
0.00582221
0.00582334
0.00582537
0.00582857
0.00583312
0.00583915
0.00584673
0.00585595
0.00586684
0.00587937
0.00589353
0.00590937
0.00592693
0.00594621
0.00596721
0.00598991
0.00601427
0.00604023
0.00606775
0.00609674
0.00612714
0.00615885
0.00619178
0.00622582
0.00626087
0.00629679
0.00633345
0.00637076
0.00640864
0.00644711
0.00648652
0.00652762
0.0065751
0.00661968
0.00529896
0.00451807
0.00403481
0.00372693
0.00352741
0.0033968
0.0033107
0.00325306
0.00321463
0.00318286
0.00647936
0.00600237
0.00563527
0.00534232
0.00510286
0.00490351
0.00473496
0.00459047
0.00446423
0.00436237
0.00769069
0.00841395
0.00839966
0.00813765
0.0078081
0.00747935
0.00717655
0.00690769
0.00667395
0.00647393
0.00630534
0.00616559
0.00605204
0.00596199
0.00589268
0.00584127
0.0058049
0.00578069
0.00576591
0.00575797
0.00575459
0.00575381
0.005754
0.00575393
0.00575269
0.00574964
0.00574433
0.00573649
0.00572598
0.00571271
0.00569669
0.00567801
0.00565708
0.00563423
0.00560967
0.00558365
0.00555647
0.00552843
0.00549977
0.00547066
0.00544129
0.00541186
0.00538255
0.00535356
0.00532507
0.0052973
0.00527046
0.00524478
0.0052205
0.00519787
0.00517724
0.00515888
0.00514312
0.00513027
0.00512068
0.00511469
0.00511261
0.00511471
0.0051212
0.00513226
0.00514796
0.00516833
0.00519332
0.00522285
0.0052568
0.00529508
0.00533782
0.00538502
0.00544094
0.0054941
0.00458886
0.00403259
0.00367592
0.00344097
0.00328407
0.0031788
0.00310817
0.00305962
0.0030254
0.00298959
0.00647939
0.0060024
0.00563527
0.00534227
0.00510273
0.00490326
0.00473454
0.00458981
0.0044632
0.00436086
0.007684
0.00840788
0.00839529
0.00813488
0.00780649
0.00747838
0.00717575
0.00690674
0.00667267
0.00647232
0.00630354
0.00616394
0.00605102
0.00596219
0.0058948
0.00584605
0.00581306
0.00579293
0.0057828
0.00578001
0.00578217
0.00578721
0.00579344
0.00579953
0.0058045
0.00580769
0.00580867
0.00580719
0.00580311
0.0057964
0.0057871
0.00577531
0.00576116
0.00574488
0.00572668
0.0057068
0.00568551
0.00566305
0.00563968
0.00561563
0.0055911
0.00556624
0.00554121
0.00551609
0.00549093
0.00546574
0.00544048
0.00541512
0.00538962
0.00536394
0.00533798
0.00531175
0.00528522
0.00525838
0.0052312
0.00520365
0.00517573
0.00514747
0.00511892
0.00509017
0.00506134
0.00503258
0.00500409
0.00497611
0.00494896
0.00492305
0.00489906
0.00487753
0.00486249
0.00484371
0.00406623
0.00360818
0.00332515
0.00314212
0.00301844
0.00293116
0.00286675
0.00281531
0.00277182
0.00271638
0.00647942
0.00600243
0.00563528
0.00534225
0.00510265
0.00490311
0.00473429
0.00458945
0.00446271
0.00436025
0.00768214
0.00840634
0.00839419
0.00813399
0.00780559
0.00747728
0.00717434
0.00690494
0.00667049
0.0064698
0.00630076
0.00616103
0.00604811
0.00595948
0.00589248
0.00584434
0.00581218
0.00579308
0.0057842
0.00578284
0.00578658
0.00579333
0.0058014
0.00580944
0.00581648
0.00582182
0.00582501
0.00582575
0.00582388
0.00581931
0.00581205
0.00580217
0.0057898
0.00577518
0.00575859
0.00574035
0.00572085
0.00570046
0.00567954
0.00565845
0.00563747
0.00561685
0.00559759
0.00557976
0.00556324
0.00554783
0.00553341
0.00551988
0.00550719
0.00549537
0.00548448
0.0054746
0.00546573
0.00545785
0.00545098
0.00544512
0.00544025
0.00543635
0.00543336
0.00543123
0.00542991
0.00542931
0.00542937
0.00543002
0.00543126
0.00543316
0.00543613
0.00544092
0.00545245
0.00547273
0.00460756
0.00411903
0.0038255
0.00363781
0.00350953
0.00341518
0.0033399
0.00327326
0.00320859
0.00314296
0.00647945
0.00600246
0.00563529
0.00534223
0.00510259
0.00490299
0.0047341
0.00458916
0.00446232
0.00435973
0.00767968
0.00840358
0.0083915
0.00813147
0.00780322
0.00747498
0.00717202
0.00690253
0.00666794
0.00646709
0.00629791
0.00615808
0.00604514
0.0059566
0.00588979
0.00584197
0.00581025
0.00579172
0.00578349
0.00578288
0.00578744
0.0057951
0.00580413
0.0058132
0.00582132
0.00582777
0.00583206
0.00583385
0.00583291
0.00582907
0.00582225
0.00581244
0.00579976
0.00578443
0.00576675
0.00574712
0.00572595
0.0057037
0.00568078
0.00565757
0.00563439
0.0056115
0.00558912
0.00556742
0.00554649
0.0055264
0.0055072
0.00548888
0.00547146
0.00545543
0.00544076
0.00542725
0.00541471
0.00540301
0.00539207
0.00538183
0.0053723
0.00536357
0.00535571
0.00534878
0.0053428
0.00533785
0.00533402
0.00533144
0.00533025
0.00533072
0.00533344
0.00533931
0.00535322
0.00537781
0.00454718
0.00408226
0.00380627
0.00363262
0.00351631
0.00343269
0.00336742
0.00331045
0.00325273
0.00317533
0.00647948
0.00600249
0.00563532
0.00534224
0.00510257
0.00490294
0.00473401
0.00458902
0.00446213
0.00435948
0.00767817
0.00840162
0.00838925
0.00812896
0.00780046
0.00747198
0.00716879
0.0068991
0.00666434
0.00646335
0.0062941
0.00615425
0.00604138
0.00595296
0.00588636
0.00583881
0.00580741
0.00578924
0.0057814
0.00578119
0.00578617
0.00579426
0.00580375
0.00581332
0.00582199
0.00582903
0.00583393
0.00583628
0.00583578
0.00583212
0.0058251
0.00581462
0.0058007
0.00578358
0.00576359
0.0057412
0.00571695
0.00569135
0.00566493
0.00563811
0.00561126
0.00558466
0.00555851
0.00553295
0.00550806
0.00548388
0.00546039
0.00543757
0.00541536
0.00539371
0.00537253
0.00535176
0.00533132
0.0053111
0.00529103
0.00527101
0.00525095
0.00523076
0.00521037
0.00518969
0.00516864
0.00514716
0.00512519
0.00510269
0.00507967
0.00505616
0.00503241
0.00500849
0.00498739
0.00495956
0.00418079
0.00373441
0.00346608
0.00329525
0.00317839
0.00309131
0.00302032
0.00295607
0.00289493
0.00281387
0.00647951
0.00600253
0.00563535
0.00534226
0.00510258
0.00490294
0.004734
0.00458902
0.00446213
0.00435949
0.0076777
0.0084006
0.0083876
0.00812663
0.00779746
0.00746838
0.00716467
0.00689457
0.00665951
0.00645836
0.00628907
0.00614931
0.00603664
0.00594852
0.00588229
0.00583512
0.00580409
0.00578622
0.00577861
0.00577853
0.00578357
0.00579168
0.0058012
0.00581087
0.00581976
0.00582718
0.00583262
0.00583561
0.0058357
0.00583242
0.00582533
0.00581415
0.00579878
0.00577943
0.00575655
0.00573072
0.00570262
0.00567296
0.00564234
0.00561131
0.00558029
0.00554958
0.00551939
0.00548984
0.00546099
0.00543283
0.00540531
0.00537837
0.00535194
0.00532592
0.00530021
0.00527472
0.00524936
0.00522405
0.00519871
0.00517329
0.00514773
0.005122
0.00509612
0.00507011
0.00504402
0.00501796
0.00499208
0.0049666
0.00494183
0.00491816
0.00489626
0.00487664
0.00486309
0.00484555
0.00407851
0.00363424
0.00336602
0.00319732
0.00308648
0.00301002
0.00295434
0.00290991
0.00287218
0.00282186
0.00647954
0.00600257
0.00563539
0.00534229
0.00510262
0.00490298
0.00473405
0.00458909
0.00446222
0.00435957
0.00767636
0.00839799
0.00838395
0.00812228
0.00779269
0.00746343
0.00715971
0.00688975
0.00665495
0.00645419
0.00628544
0.0061464
0.00603465
0.00594764
0.00588267
0.00583685
0.00580718
0.00579061
0.00578421
0.00578526
0.00579143
0.00580076
0.00581175
0.00582328
0.00583453
0.00584487
0.00585371
0.00586045
0.00586429
0.00586434
0.0058597
0.00584971
0.00583413
0.00581324
0.00578773
0.00575857
0.00572687
0.00569369
0.00565994
0.00562639
0.00559359
0.00556191
0.00553158
0.00550269
0.00547525
0.0054492
0.00542443
0.00540088
0.00537848
0.00535715
0.00533684
0.00531749
0.00529908
0.00528157
0.005265
0.0052494
0.00523483
0.00522139
0.00520921
0.00519842
0.00518922
0.00518179
0.00517638
0.00517326
0.00517277
0.00517531
0.00518156
0.00519253
0.005213
0.00523496
0.00440514
0.00392458
0.00363359
0.0034499
0.00332926
0.00324684
0.00318811
0.00314339
0.00310698
0.00306463
0.00647957
0.00600261
0.00563543
0.00534235
0.0051027
0.00490311
0.00473427
0.00458946
0.00446286
0.00436057
0.0076802
0.00840043
0.00838416
0.00812041
0.00778926
0.0074592
0.0071557
0.00688717
0.00665527
0.00645904
0.00629659
0.00616559
0.00606341
0.00598713
0.0059336
0.00589942
0.00588118
0.00587554
0.00587948
0.00589036
0.00590603
0.0059248
0.00594544
0.00596701
0.0059888
0.0060101
0.00603009
0.00604765
0.0060613
0.00606919
0.00606948
0.00606085
0.00604285
0.0060161
0.005982
0.00594249
0.00589971
0.00585568
0.0058122
0.00577066
0.00573211
0.00569719
0.00566624
0.00563936
0.00561643
0.00559722
0.00558159
0.00556933
0.00556016
0.00555371
0.00554964
0.00554761
0.00554738
0.00554876
0.00555162
0.0055559
0.00556156
0.00556862
0.0055771
0.00558707
0.00559858
0.00561171
0.00562656
0.00564325
0.00566196
0.00568302
0.00570709
0.00573745
0.00578101
0.00583851
0.00487342
0.0043066
0.00395312
0.00372188
0.00356472
0.00345449
0.00337485
0.00331506
0.00326769
0.0032217
0.0064796
0.00600265
0.00563548
0.00534241
0.00510278
0.00490323
0.00473447
0.00458977
0.00446335
0.00436119
0.00767526
0.00839256
0.00837767
0.00811773
0.00779469
0.0074787
0.00719629
0.00695617
0.00675948
0.00660401
0.00648595
0.0064007
0.00634338
0.00630906
0.00629313
0.00629139
0.00630026
0.00631679
0.00633866
0.00636414
0.00639201
0.00642145
0.00645192
0.00648309
0.00651465
0.0065462
0.006577
0.00660584
0.00663077
0.00664901
0.00665738
0.00665317
0.00663476
0.00660211
0.00655656
0.00650052
0.00643698
0.0063692
0.00630037
0.00623344
0.00617095
0.00611498
0.00606703
0.00602808
0.00599853
0.00597839
0.00596891
0.00596936
0.00597762
0.00599145
0.006009
0.00602885
0.00605008
0.00607206
0.00609445
0.00611705
0.0061398
0.00616268
0.00618573
0.00620897
0.00623247
0.00625628
0.00628047
0.00630513
0.00633043
0.00635663
0.00638445
0.0064152
0.00645474
0.00649984
0.00526578
0.00453972
0.00408985
0.00380041
0.00360902
0.00347974
0.00339083
0.00332842
0.00328391
0.0032478
0.00647963
0.00600269
0.00563553
0.00534249
0.00510292
0.00490348
0.00473499
0.00459085
0.00446615
0.00435744
0.00428067
0.00421376
0.00414557
0.00408221
0.0040229
0.00396743
0.00391575
0.00386781
0.00382352
0.00378276
0.00374538
0.00371119
0.00368001
0.00365165
0.0036259
0.00360259
0.00358151
0.00356251
0.00354543
0.00353013
0.00351649
0.00350442
0.00349388
0.00348482
0.00347725
0.00347119
0.00346668
0.0034637
0.00346215
0.00346177
0.00346211
0.00346261
0.00346271
0.00346192
0.00345995
0.00345654
0.00345166
0.00344543
0.00343803
0.00342969
0.00342067
0.00341123
0.0034016
0.00339201
0.00338265
0.00337367
0.00336521
0.00335735
0.00335015
0.0033436
0.0033377
0.00333239
0.00332763
0.00332336
0.00331952
0.00331605
0.00331289
0.00331001
0.00330736
0.00330491
0.00330263
0.0033005
0.00329851
0.00329663
0.00329487
0.00329321
0.00329164
0.00329016
0.00328876
0.00328725
0.00327938
0.00327012
0.00326119
0.00325306
0.00324583
0.00323941
0.00323368
0.00322839
0.00322408
0.00321752
0.00647966
0.00600273
0.00563558
0.00534255
0.00510299
0.00490359
0.00473517
0.00459113
0.00446661
0.00435803
0.00426287
0.00417906
0.0041047
0.00403826
0.00397855
0.0039246
0.00387562
0.00383098
0.00379015
0.00375269
0.00371826
0.00368655
0.00365731
0.00363034
0.00360544
0.00358249
0.00356134
0.00354189
0.00352406
0.00350777
0.00349299
0.00347967
0.00346783
0.00345751
0.00344877
0.00344174
0.00343655
0.00343328
0.00343193
0.00343222
0.00343354
0.00343512
0.00343619
0.00343617
0.00343469
0.00343165
0.00342708
0.0034211
0.00341394
0.00340581
0.00339696
0.00338761
0.00337799
0.00336825
0.00335856
0.00334904
0.00333978
0.00333089
0.00332242
0.00331442
0.00330691
0.00329992
0.00329344
0.00328746
0.00328196
0.00327693
0.00327234
0.00326815
0.00326434
0.00326088
0.00325773
0.00325488
0.0032523
0.00324995
0.00324783
0.00324591
0.00324416
0.00324256
0.00324108
0.0032396
0.00323799
0.00323629
0.00323459
0.00323293
0.00323128
0.00322962
0.00322792
0.00322602
0.00322459
0.00321977
0.00647969
0.00600277
0.00563562
0.0053426
0.00510306
0.00490371
0.00473536
0.00459147
0.00446719
0.00435892
0.00426395
0.0041801
0.00410558
0.00403892
0.00397896
0.00392474
0.00387549
0.00383055
0.0037894
0.00375161
0.0037168
0.00368468
0.00365498
0.00362751
0.00360208
0.00357855
0.00355681
0.00353673
0.00351826
0.00350133
0.00348589
0.00347195
0.00345952
0.00344869
0.00343959
0.00343244
0.00342753
0.00342514
0.00342547
0.00342821
0.00343247
0.00343709
0.00344091
0.00344308
0.00344314
0.00344098
0.00343668
0.00343047
0.00342263
0.0034135
0.00340344
0.00339274
0.00338166
0.00337034
0.00335906
0.003348
0.00333733
0.00332716
0.00331758
0.00330866
0.00330041
0.00329287
0.00328602
0.00327987
0.00327438
0.00326953
0.00326529
0.00326161
0.00325846
0.0032558
0.00325359
0.00325178
0.00325034
0.00324922
0.00324839
0.0032478
0.00324742
0.00324718
0.00324703
0.0032469
0.00324668
0.00324636
0.00324591
0.00324533
0.00324457
0.00324352
0.00324208
0.0032398
0.00323675
0.00322695
0.00647972
0.0060028
0.00563566
0.00534263
0.00510309
0.00490373
0.00473538
0.00459148
0.00446718
0.00435886
0.00426375
0.00417967
0.00410487
0.00403792
0.00397765
0.00392313
0.00387357
0.00382833
0.00378686
0.00374874
0.00371359
0.00368111
0.00365105
0.0036232
0.00359738
0.00357346
0.00355131
0.00353083
0.00351195
0.0034946
0.00347874
0.00346437
0.00345153
0.00344032
0.00343093
0.00342373
0.0034192
0.00341799
0.00342081
0.0034275
0.00343685
0.00344699
0.00345595
0.00346236
0.00346564
0.00346568
0.00346269
0.00345706
0.00344924
0.00343972
0.0034292
0.00341797
0.00340638
0.00339473
0.00338326
0.00337218
0.00336168
0.00335191
0.00334296
0.00333494
0.00332789
0.00332183
0.00331677
0.00331268
0.00330951
0.0033072
0.00330568
0.00330484
0.00330459
0.00330481
0.00330541
0.00330626
0.00330726
0.00330832
0.00330933
0.00331021
0.0033109
0.00331131
0.00331138
0.00331105
0.00331024
0.00330891
0.00330701
0.00330451
0.00330139
0.00329755
0.00329289
0.00328695
0.00327983
0.00326513
0.00647975
0.00600284
0.00563569
0.00534265
0.00510309
0.00490371
0.00473535
0.00459143
0.00446711
0.00435875
0.00426356
0.00417933
0.00410432
0.00403711
0.00397655
0.00392169
0.00387176
0.00382612
0.00378424
0.00374568
0.00371007
0.00367713
0.00364659
0.00361826
0.00359197
0.00356757
0.00354495
0.003524
0.00350465
0.00348683
0.00347048
0.0034556
0.00344219
0.00343038
0.0034204
0.00341275
0.00340818
0.00340804
0.00341474
0.00342959
0.00345139
0.00347636
0.00349991
0.00351926
0.00353331
0.00354198
0.0035458
0.00354555
0.00354211
0.00353628
0.00352959
0.00352284
0.00351649
0.00351088
0.00350626
0.00350277
0.00350048
0.00349936
0.00349932
0.00350019
0.00350178
0.00350387
0.00350624
0.00350865
0.00351092
0.00351286
0.00351433
0.00351521
0.00351542
0.00351491
0.00351364
0.00351161
0.00350883
0.00350531
0.00350109
0.0034962
0.00349069
0.0034846
0.00347795
0.00347077
0.00346308
0.00345489
0.0034462
0.00343702
0.00342733
0.00341706
0.0034061
0.00339399
0.00338078
0.00336051
0.00647978
0.00600287
0.00563571
0.00534265
0.00510306
0.00490364
0.00473523
0.00459124
0.00446684
0.00435835
0.00426299
0.00417854
0.00410327
0.00403575
0.00397485
0.00391963
0.00386931
0.00382326
0.00378093
0.00374191
0.00370582
0.00367237
0.00364131
0.00361246
0.00358563
0.00356071
0.00353756
0.0035161
0.00349623
0.00347787
0.00346095
0.00344543
0.0034313
0.00341865
0.00340767
0.00339902
0.00339371
0.00339452
0.00341197
0.00345624
0.00352587
0.003606
0.00368133
0.00374592
0.00379817
0.00383897
0.00387012
0.0038936
0.00391116
0.00392427
0.00393356
0.00394211
0.00394938
0.0039549
0.00395831
0.00395938
0.00395807
0.00395442
0.0039486
0.0039408
0.00393126
0.00392021
0.00390788
0.00389447
0.00388018
0.00386515
0.00384954
0.00383346
0.00381701
0.0038003
0.00378338
0.00376633
0.0037492
0.00373205
0.0037149
0.00369781
0.00368078
0.00366385
0.00364701
0.00363027
0.00361361
0.00359704
0.00358051
0.003564
0.00354744
0.00353073
0.00351373
0.00349591
0.00347724
0.00345226
0.00647981
0.0060029
0.00563573
0.00534264
0.00510302
0.00490355
0.00473507
0.004591
0.0044665
0.00435788
0.00426235
0.0041777
0.00410218
0.00403437
0.00397313
0.00391752
0.00386678
0.00382025
0.00377742
0.00373785
0.00370118
0.00366712
0.00363544
0.00360594
0.00357847
0.00355291
0.00352914
0.00350706
0.00348657
0.00346758
0.00344999
0.00343371
0.00341865
0.0034048
0.0033922
0.00338153
0.00337385
0.00337546
0.00344402
0.0036267
0.00388996
0.00415237
0.00436684
0.0045284
0.00464141
0.0047147
0.00475686
0.00477525
0.00477583
0.00476336
0.0047414
0.00471118
0.00467485
0.00463404
0.00459028
0.00454488
0.00449888
0.00445306
0.00440798
0.004364
0.00432134
0.0042801
0.00424033
0.00420201
0.00416508
0.00412948
0.00409514
0.00406198
0.00402993
0.00399893
0.00396892
0.00393984
0.00391164
0.00388428
0.00385771
0.0038319
0.00380684
0.00378249
0.00375877
0.00373563
0.00371299
0.00369078
0.00366894
0.00364745
0.00362628
0.00360525
0.00358419
0.00356254
0.00354013
0.00351198
0.00647983
0.00600292
0.00563574
0.00534262
0.00510295
0.00490342
0.00473486
0.0045907
0.00446606
0.00435729
0.00426157
0.00417668
0.00410087
0.00403274
0.00397112
0.0039151
0.00386388
0.00381684
0.00377345
0.00373326
0.00369593
0.00366117
0.00362876
0.00359852
0.0035703
0.003544
0.00351951
0.00349673
0.00347556
0.00345589
0.00343759
0.00342054
0.00340458
0.00338957
0.00337524
0.00336217
0.00335079
0.00335991
0.00369614
0.00438138
0.00508241
0.00557787
0.00585558
0.00597343
0.00598126
0.00592049
0.00582072
0.00570171
0.00557594
0.00545061
0.00532906
0.00521274
0.00510325
0.00500155
0.00490781
0.00482169
0.0047426
0.00466983
0.00460265
0.00454039
0.00448246
0.00442841
0.00437796
0.00433063
0.00428582
0.00424314
0.00420233
0.00416318
0.00412556
0.00408935
0.00405446
0.0040208
0.00398831
0.00395692
0.00392657
0.0038972
0.00386876
0.00384119
0.00381444
0.00378843
0.00376311
0.0037384
0.00371421
0.00369043
0.00366691
0.00364341
0.00361959
0.00359464
0.00356908
0.00353872
0.00647986
0.00600295
0.00563574
0.00534259
0.00510287
0.00490328
0.00473463
0.00459036
0.00446559
0.00435665
0.00426073
0.00417559
0.0040995
0.00403102
0.00396902
0.00391254
0.00386081
0.0038132
0.00376915
0.00372826
0.00369016
0.00365457
0.00362129
0.00359015
0.00356104
0.00353385
0.00350851
0.00348492
0.00346298
0.00344255
0.00342352
0.00340573
0.00338895
0.00337289
0.00335672
0.00334047
0.00332146
0.00336469
0.00461003
0.00604859
0.00697416
0.00736412
0.00737907
0.00718613
0.00689974
0.00658832
0.00628822
0.00601579
0.00577627
0.00556919
0.00539161
0.00523959
0.00510917
0.00499645
0.00489807
0.00481141
0.00473479
0.00466665
0.00460436
0.00454646
0.00449203
0.00444052
0.00439155
0.00434482
0.00430011
0.00425726
0.00421611
0.00417655
0.00413847
0.00410178
0.00406641
0.00403228
0.00399933
0.0039675
0.00393673
0.00390696
0.00387814
0.00385022
0.00382314
0.00379683
0.00377124
0.00374628
0.00372187
0.00369789
0.00367417
0.00365046
0.0036264
0.0036011
0.00357296
0.00354029
0.00647988
0.00600296
0.00563574
0.00534255
0.00510278
0.00490311
0.00473438
0.00458998
0.00446507
0.00435595
0.00425981
0.00417441
0.00409801
0.00402917
0.00396674
0.00390977
0.00385748
0.00380921
0.00376445
0.00372274
0.00368374
0.00364718
0.00361287
0.00358066
0.00355048
0.00352225
0.00349593
0.00347143
0.00344864
0.00342745
0.00340777
0.00338956
0.00337275
0.00335732
0.00334254
0.00332845
0.00331112
0.00335908
0.00471058
0.00624124
0.0072135
0.00758373
0.00757928
0.00736539
0.00705056
0.00670568
0.0063708
0.0060652
0.00579605
0.00556413
0.00536684
0.00520038
0.00506063
0.0049451
0.00484759
0.0047631
0.00468829
0.00462082
0.00455903
0.00450175
0.00444815
0.00439763
0.00434976
0.00430419
0.00426068