/*--------------------------------*- C++ -*----------------------------------*\
| =========                 |                                                 |
| \\      /  F ield         | OpenFOAM: The Open Source CFD Toolbox           |
|  \\    /   O peration     | Version:  v2012                                 |
|   \\  /    A nd           | Website:  www.openfoam.com                      |
|    \\/     M anipulation  |                                                 |
\*---------------------------------------------------------------------------*/
FoamFile
{
    version     2.0;
    format      ascii;
    class       volScalarField;
    location    "600/air";
    object      epsilon;
}
// * * * * * * * * * * * * * * * * * * * * * * * * * * * * * * * * * * * * * //

dimensions      [0 2 -3 0 0 0 0];


internalField   nonuniform List<scalar> 
287104
(
0.0965288
0.0769509
0.0638413
0.0545282
0.0476354
0.0423721
0.0382508
0.0349557
0.0322744
0.0300594
0.0282057
0.0266366
0.0252951
0.0241381
0.0231321
0.0222512
0.0214749
0.0207868
0.0201734
0.0196241
0.0191298
0.0186832
0.0182781
0.0179092
0.0175723
0.0172635
0.0169796
0.0167179
0.0164759
0.0162516
0.0160431
0.0158488
0.0156673
0.0154973
0.0153376
0.0151873
0.0150454
0.0149111
0.0147835
0.0146622
0.0145463
0.0144355
0.014329
0.0142266
0.0141278
0.0140323
0.0139397
0.0138497
0.0137622
0.0136769
0.0135937
0.0135124
0.0134329
0.0133551
0.0132789
0.0132043
0.0131313
0.0130597
0.0129896
0.012921
0.0128538
0.012788
0.0127237
0.0126607
0.012599
0.0125387
0.0124797
0.012422
0.0123654
0.01231
0.0122557
0.0122024
0.01215
0.0120984
0.0120474
0.011997
0.011947
0.0118971
0.0118473
0.011797
0.0117462
0.0116942
0.0116405
0.0115842
0.0115241
0.0114581
0.0113833
0.0112903
0.0111817
0.0109318
0.096523
0.0769405
0.0638278
0.0545126
0.0476185
0.0423544
0.0382325
0.034937
0.0322555
0.0300404
0.0281867
0.0266178
0.0252766
0.0241198
0.0231143
0.0222339
0.0214581
0.0207705
0.0201577
0.0196089
0.0191151
0.018669
0.0182644
0.0178961
0.0175597
0.0172515
0.0169682
0.0167071
0.0164658
0.0162422
0.0160345
0.0158411
0.0156606
0.0154916
0.015333
0.0151839
0.0150432
0.0149101
0.014784
0.014664
0.0145496
0.0144401
0.0143351
0.0142341
0.0141367
0.0140425
0.0139512
0.0138624
0.013776
0.0136918
0.0136095
0.013529
0.0134502
0.013373
0.0132973
0.0132232
0.0131504
0.0130791
0.0130091
0.0129405
0.0128733
0.0128074
0.0127429
0.0126797
0.0126178
0.0125572
0.0124978
0.0124396
0.0123827
0.0123268
0.012272
0.0122182
0.0121653
0.0121131
0.0120616
0.0120106
0.01196
0.0119094
0.0118588
0.0118078
0.0117561
0.0117032
0.0116485
0.0115913
0.0115302
0.0114633
0.0113879
0.0112945
0.0111859
0.0109389
0.0965206
0.076936
0.063822
0.0545058
0.0476109
0.0423461
0.0382236
0.0349277
0.0322458
0.0300305
0.0281766
0.0266077
0.0252666
0.0241101
0.0231048
0.0222247
0.0214492
0.0207619
0.0201494
0.019601
0.0191075
0.0186618
0.0182575
0.0178896
0.0175535
0.0172457
0.0169629
0.0167023
0.0164616
0.0162386
0.0160316
0.0158389
0.0156592
0.0154911
0.0153335
0.0151854
0.0150459
0.014914
0.014789
0.0146703
0.0145572
0.0144491
0.0143454
0.0142458
0.0141497
0.0140569
0.0139669
0.0138794
0.0137943
0.0137113
0.0136302
0.013551
0.0134734
0.0133973
0.0133228
0.0132498
0.0131782
0.0131079
0.0130391
0.0129716
0.0129055
0.0128408
0.0127774
0.0127153
0.0126545
0.0125951
0.0125369
0.01248
0.0124242
0.0123696
0.0123161
0.0122635
0.0122119
0.012161
0.0121108
0.012061
0.0120116
0.0119623
0.0119128
0.0118629
0.0118122
0.0117602
0.0117064
0.01165
0.0115898
0.0115238
0.0114494
0.0113574
0.0112506
0.011009
0.0965183
0.0769312
0.0638152
0.0544973
0.047601
0.042335
0.0382114
0.0349145
0.0322319
0.0300159
0.0281618
0.0265927
0.0252517
0.0240953
0.0230903
0.0222105
0.0214353
0.0207482
0.020136
0.0195877
0.0190945
0.0186489
0.0182449
0.0178771
0.0175413
0.0172337
0.0169512
0.0166909
0.0164506
0.0162282
0.0160218
0.0158298
0.0156509
0.0154837
0.0153271
0.01518
0.0150416
0.014911
0.0147874
0.01467
0.0145583
0.0144515
0.0143493
0.014251
0.0141563
0.0140647
0.0139759
0.0138896
0.0138056
0.0137236
0.0136434
0.0135649
0.013488
0.0134126
0.0133386
0.013266
0.0131947
0.0131248
0.0130562
0.0129889
0.0129229
0.0128582
0.0127948
0.0127327
0.0126718
0.0126122
0.0125539
0.0124967
0.0124407
0.0123858
0.0123318
0.0122788
0.0122266
0.0121751
0.0121242
0.0120736
0.0120232
0.0119727
0.0119219
0.0118704
0.0118178
0.0117637
0.0117075
0.0116486
0.0115857
0.0115169
0.0114399
0.0113455
0.0112365
0.0109944
0.0965161
0.076927
0.0638094
0.0544902
0.0475927
0.0423255
0.0382009
0.034903
0.0322194
0.0300027
0.0281481
0.0265788
0.0252378
0.0240817
0.023077
0.0221975
0.0214227
0.020736
0.0201241
0.0195761
0.0190832
0.0186378
0.018234
0.0178665
0.0175309
0.0172236
0.0169415
0.0166816
0.0164418
0.01622
0.0160143
0.0158231
0.0156451
0.015479
0.0153236
0.0151778
0.0150408
0.0149117
0.0147896
0.0146739
0.0145638
0.0144588
0.0143582
0.0142617
0.0141686
0.0140787
0.0139915
0.0139067
0.0138241
0.0137434
0.0136646
0.0135873
0.0135116
0.0134372
0.0133643
0.0132927
0.0132223
0.0131533
0.0130855
0.0130191
0.0129539
0.01289
0.0128274
0.012766
0.012706
0.0126471
0.0125895
0.0125331
0.0124778
0.0124236
0.0123703
0.012318
0.0122664
0.0122155
0.0121651
0.0121151
0.0120651
0.012015
0.0119644
0.011913
0.0118604
0.0118061
0.0117496
0.0116904
0.0116273
0.0115587
0.0114824
0.0113897
0.0112833
0.0110474
0.096514
0.0769226
0.0638031
0.0544823
0.0475832
0.0423145
0.0381885
0.0348892
0.0322045
0.0299869
0.0281319
0.0265628
0.0252222
0.0240667
0.0230626
0.0221837
0.0214093
0.0207229
0.0201113
0.0195634
0.0190705
0.0186253
0.0182215
0.017854
0.0175186
0.0172115
0.0169297
0.0166703
0.016431
0.0162099
0.0160051
0.0158151
0.0156383
0.0154737
0.0153199
0.015176
0.015041
0.0149141
0.0147944
0.0146811
0.0145736
0.0144712
0.0143734
0.0142796
0.0141893
0.0141021
0.0140176
0.0139356
0.0138557
0.0137776
0.0137014
0.0136267
0.0135535
0.0134817
0.0134112
0.0133421
0.0132743
0.0132078
0.0131426
0.0130788
0.0130163
0.0129552
0.0128955
0.0128372
0.0127803
0.0127247
0.0126706
0.0126177
0.0125661
0.0125158
0.0124666
0.0124186
0.0123715
0.0123252
0.0122798
0.0122348
0.0121903
0.0121458
0.012101
0.0120557
0.0120093
0.0119615
0.011912
0.0118604
0.0118058
0.011747
0.0116821
0.0116038
0.0115145
0.0113075
0.0965119
0.0769184
0.0637971
0.0544745
0.0475737
0.0423032
0.0381752
0.0348739
0.032187
0.0299675
0.0281111
0.0265414
0.025201
0.024046
0.0230426
0.0221644
0.0213908
0.020705
0.0200938
0.0195464
0.0190538
0.0186088
0.0182052
0.0178381
0.017503
0.0171964
0.0169152
0.0166567
0.0164185
0.0161987
0.0159956
0.0158074
0.0156329
0.0154708
0.0153199
0.0151791
0.0150476
0.0149244
0.0148087
0.0146996
0.0145965
0.0144987
0.0144055
0.014316
0.0142299
0.0141468
0.0140665
0.0139886
0.0139129
0.013839
0.013767
0.0136964
0.0136274
0.0135598
0.0134935
0.0134286
0.013365
0.0133027
0.0132419
0.0131824
0.0131244
0.0130679
0.0130129
0.0129595
0.0129076
0.0128573
0.0128086
0.0127614
0.0127159
0.0126719
0.0126294
0.0125884
0.0125488
0.0125106
0.0124735
0.0124375
0.0124024
0.012368
0.0123338
0.0122993
0.0122642
0.0122281
0.0121907
0.0121521
0.0121118
0.0120691
0.0120236
0.011971
0.0119199
0.0117699
0.0965098
0.0769141
0.0637908
0.0544664
0.0475636
0.042291
0.0381608
0.0348571
0.0321678
0.0299464
0.0280896
0.0265211
0.0251824
0.0240289
0.0230267
0.0221493
0.0213759
0.0206899
0.020078
0.0195296
0.0190359
0.0185896
0.0181849
0.0178166
0.0174807
0.0171736
0.0168922
0.016634
0.0163967
0.0161782
0.0159769
0.0157912
0.0156193
0.01546
0.0153122
0.0151749
0.0150471
0.0149279
0.0148162
0.0147112
0.0146122
0.0145182
0.0144287
0.014343
0.0142606
0.014181
0.0141039
0.0140289
0.0139557
0.0138843
0.0138143
0.0137458
0.0136787
0.0136131
0.0135488
0.0134859
0.0134245
0.0133645
0.0133061
0.0132491
0.0131937
0.0131399
0.0130876
0.0130369
0.0129878
0.0129402
0.0128941
0.0128496
0.0128065
0.0127649
0.0127246
0.0126855
0.0126477
0.012611
0.0125752
0.0125403
0.0125059
0.0124718
0.0124375
0.0124025
0.0123659
0.0123277
0.0122881
0.0122471
0.0122046
0.0121603
0.0121145
0.0120657
0.0120271
0.0119498
0.0965077
0.0769098
0.0637844
0.0544578
0.0475526
0.042277
0.0381429
0.0348342
0.0321378
0.0299082
0.0280571
0.0265081
0.0251938
0.0240624
0.0230756
0.0222056
0.0214316
0.0207384
0.0201144
0.0195506
0.0190397
0.0185757
0.0181539
0.0177699
0.0174201
0.0171013
0.0168104
0.0165449
0.0163023
0.0160804
0.0158773
0.0156911
0.0155202
0.0153633
0.0152188
0.0150855
0.0149622
0.0148475
0.0147403
0.0146392
0.0145433
0.0144517
0.0143638
0.0142789
0.0141966
0.0141165
0.0140383
0.0139621
0.0138878
0.0138152
0.0137443
0.0136749
0.0136071
0.0135407
0.0134758
0.0134123
0.0133504
0.01329
0.0132312
0.013174
0.0131184
0.0130644
0.0130121
0.0129614
0.0129124
0.012865
0.0128192
0.012775
0.0127324
0.0126914
0.012652
0.012614
0.0125776
0.0125425
0.0125088
0.0124763
0.012445
0.0124144
0.0123842
0.012353
0.0123193
0.0122841
0.0122485
0.0122126
0.0121761
0.0121385
0.0120998
0.0120586
0.0120256
0.0119687
0.0965057
0.0769056
0.0637781
0.0544492
0.0475416
0.0422631
0.0381253
0.0348121
0.0321093
0.0298759
0.0292304
0.0289189
0.028442
0.0277169
0.0267975
0.0257671
0.0246986
0.0236444
0.0226382
0.0216996
0.0208384
0.0200576
0.0193561
0.0187301
0.0181745
0.0176833
0.0172496
0.0168663
0.0165259
0.016221
0.0159442
0.0156878
0.0154636
0.015278
0.0151215
0.0149869
0.0148685
0.0147618
0.0146639
0.0145724
0.0144856
0.014402
0.0143206
0.0142408
0.0141646
0.0140933
0.0140269
0.0139651
0.0139071
0.0138524
0.0138005
0.0137508
0.0137031
0.0136572
0.0136128
0.0135699
0.0135286
0.0134888
0.0134504
0.0134136
0.0133781
0.0133441
0.0133115
0.0132803
0.0132504
0.0132219
0.0131947
0.0131689
0.0131444
0.0131213
0.0130995
0.0130791
0.0130601
0.0130426
0.0130265
0.0130118
0.0129985
0.0129861
0.0129745
0.0129608
0.0128623
0.0127461
0.0126346
0.012534
0.0124448
0.0123651
0.0122928
0.0122238
0.0121659
0.0120834
0.0965037
0.0769013
0.0637715
0.0544401
0.0475292
0.0422461
0.0381004
0.0347734
0.0320336
0.0299374
0.164271
0.215553
0.215164
0.196476
0.174402
0.154103
0.1369
0.122786
0.111376
0.102228
0.0949453
0.0891991
0.0847181
0.081279
0.0786946
0.0768046
0.0754696
0.0745672
0.0739897
0.0736438
0.0734518
0.0733493
0.0733045
0.0733159
0.0733763
0.0734669
0.0735691
0.0736697
0.0737614
0.0738421
0.0739137
0.0739818
0.0740439
0.0740992
0.0741461
0.07419
0.074243
0.0743176
0.0744258
0.074578
0.0747811
0.0750399
0.075358
0.0757388
0.0761838
0.0766926
0.077266
0.0779061
0.0786156
0.0793958
0.0802477
0.0811715
0.0821673
0.0832345
0.0843722
0.0855792
0.0868538
0.0881939
0.0895969
0.0910603
0.0925807
0.0941535
0.0957746
0.0974403
0.0991488
0.100902
0.102717
0.104632
0.106878
0.108968
0.0558054
0.0345408
0.0245674
0.0193374
0.0163761
0.0146079
0.0135123
0.0128085
0.0123528
0.0119871
0.0965017
0.0768972
0.0637654
0.0544319
0.0475185
0.0422326
0.0380834
0.034752
0.0320063
0.0299044
0.164256
0.215654
0.215124
0.196128
0.173697
0.153047
0.135523
0.121129
0.109477
0.100124
0.092672
0.0867891
0.0822036
0.0786919
0.0760666
0.0741672
0.0728528
0.0719987
0.0714935
0.0712389
0.0711497
0.0711538
0.0711924
0.0712203
0.0712047
0.0711225
0.0709577
0.0707003
0.0703451
0.0698912
0.0693403
0.0686965
0.0679771
0.0671944
0.0663572
0.0654763
0.0645634
0.0636296
0.0626839
0.0617327
0.0607826
0.0598404
0.0589124
0.0580045
0.0571224
0.0562719
0.0554592
0.0546907
0.0539723
0.0533108
0.0527149
0.0521916
0.0517488
0.0513947
0.0511384
0.0509884
0.0509534
0.0510407
0.0512572
0.0516084
0.0520984
0.0527302
0.0535056
0.0544256
0.0554915
0.0567052
0.0580766
0.0596132
0.0614666
0.0632535
0.0368181
0.0249531
0.0188728
0.0154569
0.0134172
0.0121502
0.0113425
0.0108058
0.010436
0.0100612
0.0964998
0.0768931
0.0637594
0.0544237
0.047508
0.0422191
0.0380661
0.0347298
0.031977
0.0298662
0.163782
0.215119
0.214712
0.195849
0.173513
0.152914
0.135409
0.121013
0.109351
0.0999888
0.0925345
0.086662
0.0821044
0.0786417
0.076089
0.074287
0.0730953
0.0723874
0.0720499
0.0719813
0.072093
0.0723098
0.0725696
0.0728239
0.0730367
0.0731834
0.0732474
0.0732184
0.0730918
0.072867
0.0725461
0.0721338
0.0716362
0.0710614
0.0704187
0.0697183
0.0689709
0.0681868
0.0673758
0.0665464
0.0657067
0.0648627
0.0640195
0.0631803
0.0623469
0.0615194
0.0606971
0.0598788
0.0590631
0.0582489
0.0574338
0.0566176
0.0558
0.0549809
0.0541592
0.0533349
0.052508
0.0516797
0.0508519
0.0500274
0.0492097
0.0484032
0.0476131
0.0468461
0.0461107
0.0454169
0.0447826
0.0442206
0.0438376
0.0433536
0.0256526
0.017921
0.0140217
0.0118267
0.0104799
0.00959251
0.0089701
0.00849251
0.00810264
0.00762494
0.0964979
0.0768893
0.0637537
0.0544164
0.0474989
0.0422082
0.0380531
0.0347146
0.0319595
0.0298466
0.163618
0.214933
0.21455
0.195707
0.173377
0.152775
0.13526
0.120854
0.109182
0.099812
0.092354
0.0864824
0.0819307
0.0784794
0.0759443
0.0741667
0.0730062
0.0723368
0.0720447
0.072028
0.0721975
0.0724774
0.0728053
0.0731324
0.0734224
0.0736497
0.0737965
0.0738508
0.0738058
0.0736594
0.0734119
0.073067
0.0726307
0.0721111
0.0715197
0.0708706
0.0701783
0.0694577
0.0687226
0.0679852
0.0672565
0.0665453
0.0658846
0.0652775
0.064718
0.0641995
0.0637168
0.0632664
0.062846
0.0624561
0.0620987
0.0617758
0.0614872
0.0612323
0.0610108
0.0608226
0.0606673
0.0605435
0.0604498
0.060384
0.0603442
0.060328
0.060333
0.0603573
0.0604008
0.0604659
0.0605664
0.0607268
0.0611101
0.0617674
0.0368292
0.026294
0.0210517
0.0180943
0.0162415
0.0149636
0.013995
0.0131756
0.0124166
0.0116765
0.096496
0.0768855
0.0637484
0.0544096
0.0474907
0.0421984
0.0380416
0.0347012
0.0319442
0.029829
0.163417
0.214654
0.214269
0.195449
0.173145
0.152563
0.135061
0.120663
0.108995
0.0996274
0.0921713
0.0863025
0.0817554
0.0783114
0.0757867
0.0740229
0.0728798
0.0722312
0.0719633
0.0719739
0.0721737
0.0724866
0.0728505
0.0732162
0.0735472
0.0738168
0.074006
0.0741005
0.074091
0.0739721
0.073741
0.0733988
0.0729501
0.072403
0.0717703
0.0710685
0.0703146
0.0695259
0.0687181
0.0679054
0.0670995
0.0663096
0.0655429
0.0648047
0.0640983
0.0634253
0.0627864
0.0621815
0.0616099
0.0610878
0.0606127
0.0601778
0.0597767
0.0594044
0.0590579
0.0587353
0.0584368
0.0581643
0.0579203
0.0577062
0.0575229
0.0573723
0.0572571
0.0571813
0.0571499
0.0571706
0.0572624
0.057454
0.0579022
0.0586788
0.0354385
0.025621
0.0207535
0.01803
0.0163449
0.0152002
0.0143455
0.013628
0.0129302
0.0120356
0.0964942
0.0768819
0.0637434
0.0544034
0.0474834
0.0421902
0.0380325
0.0346911
0.0319331
0.0298168
0.163276
0.214438
0.214022
0.195192
0.172887
0.152308
0.134812
0.120419
0.108757
0.0993959
0.091947
0.0860862
0.0815481
0.0781142
0.0756008
0.0738494
0.0727195
0.072085
0.0718315
0.071857
0.072072
0.0724008
0.0727817
0.0731663
0.0735182
0.0738109
0.074024
0.0741411
0.0741492
0.0740385
0.0738013
0.0734348
0.0729414
0.0723288
0.0716121
0.0708112
0.0699474
0.0690417
0.0681132
0.0671784
0.0662502
0.0653386
0.0644502
0.0635896
0.062759
0.0619589
0.0611886
0.0604466
0.0597306
0.0590382
0.0583666
0.0577132
0.0570751
0.0564491
0.0558323
0.0552217
0.0546145
0.0540081
0.0534001
0.0527883
0.0521705
0.0515449
0.0509102
0.0502656
0.0496116
0.0489498
0.0482877
0.0476273
0.0470532
0.046294
0.0277404
0.0197735
0.0158116
0.0135878
0.0121934
0.0112188
0.0104641
0.00981134
0.00921672
0.00846673
0.0964925
0.0768785
0.0637387
0.0543979
0.0474772
0.0421835
0.0380256
0.0346842
0.0319264
0.0298101
0.163202
0.214294
0.213821
0.194949
0.172615
0.152018
0.134513
0.120118
0.10846
0.0991072
0.0916701
0.0858238
0.0813022
0.077886
0.0753905
0.073656
0.0725412
0.0719188
0.0716741
0.0717048
0.0719222
0.0722518
0.072634
0.0730226
0.0733835
0.0736916
0.0739266
0.0740695
0.0741022
0.0740076
0.0737699
0.0733789
0.0728334
0.0721408
0.0713198
0.0703962
0.0693979
0.0683519
0.067282
0.0662079
0.0651444
0.0641022
0.0630882
0.0621061
0.0611571
0.0602404
0.0593538
0.0584946
0.0576598
0.056846
0.0560499
0.0552682
0.0544979
0.0537364
0.0529812
0.0522305
0.051483
0.0507379
0.0499954
0.0492562
0.0485222
0.0477961
0.0470823
0.0463864
0.0457166
0.0450829
0.0445024
0.0439875
0.0436389
0.0431823
0.0257514
0.0182154
0.0144668
0.012392
0.0111404
0.0103259
0.00975663
0.00931656
0.00895333
0.00848649
0.0964908
0.0768752
0.0637343
0.0543928
0.0474717
0.0421779
0.0380201
0.0346789
0.0319214
0.0298049
0.163074
0.214029
0.213469
0.194562
0.172227
0.151648
0.134169
0.119804
0.108178
0.0988573
0.0914548
0.0856464
0.0811667
0.0777964
0.0753501
0.0736662
0.0726013
0.0720264
0.0718261
0.071899
0.072159
0.0725359
0.0729752
0.073436
0.0738885
0.0743096
0.0746773
0.0749653
0.0751433
0.0751769
0.0750317
0.0746834
0.0741248
0.0733668
0.0724394
0.0713841
0.0702451
0.0690635
0.0678743
0.0667043
0.0655728
0.0644917
0.0634676
0.0625025
0.0615953
0.0607425
0.0599397
0.0591835
0.0584705
0.0577977
0.0571622
0.0565618
0.0559946
0.0554596
0.0549566
0.0544862
0.0540499
0.0536501
0.0532898
0.0529731
0.0527047
0.0524901
0.0523359
0.05225
0.0522422
0.0523248
0.0525184
0.052854
0.0534799
0.054149
0.0322474
0.0227847
0.0180658
0.0154465
0.0138679
0.0128503
0.0121539
0.0116393
0.011231
0.0107716
0.0964891
0.076872
0.0637303
0.0543885
0.0474677
0.0421747
0.0380188
0.0346808
0.0319284
0.0298187
0.163275
0.214151
0.213414
0.194356
0.171929
0.151322
0.133878
0.119606
0.10813
0.0990173
0.091878
0.086384
0.0822622
0.0792821
0.0772452
0.0759769
0.0753232
0.0751485
0.0753357
0.0757867
0.0764221
0.0771804
0.0780154
0.0788931
0.0797863
0.0806686
0.0815066
0.0822524
0.0828427
0.0832009
0.0832496
0.0829347
0.0822409
0.0811953
0.0798632
0.0783316
0.0766913
0.0750251
0.0734016
0.0718719
0.0704706
0.0692172
0.0681194
0.0671761
0.0663797
0.0657191
0.0651863
0.0647726
0.0644662
0.064254
0.0641232
0.0640625
0.0640629
0.064118
0.0642235
0.0643772
0.0645784
0.0648277
0.0651266
0.0654771
0.0658822
0.066345
0.0668698
0.0674617
0.0681288
0.0688837
0.0697528
0.0708531
0.0724493
0.0745653
0.0433055
0.029847
0.0230574
0.0192224
0.0168717
0.01534
0.0142913
0.0135349
0.012956
0.0124139
0.0964874
0.0768689
0.0637264
0.0543842
0.0474636
0.0421714
0.038017
0.0346811
0.0319324
0.0298247
0.162921
0.213494
0.212858
0.194099
0.172218
0.152432
0.136075
0.123124
0.113156
0.105678
0.100235
0.0964379
0.0939544
0.0925078
0.0918665
0.0918391
0.0922701
0.0930353
0.0940393
0.0952108
0.0964991
0.0978699
0.0993012
0.100779
0.102291
0.10382
0.105333
0.106767
0.108025
0.108968
0.109435
0.109288
0.108449
0.106924
0.104793
0.102196
0.0992959
0.0962564
0.0932293
0.0903435
0.0877012
0.0853771
0.083419
0.0818511
0.0806758
0.0798824
0.0795107
0.079529
0.0798552
0.0804031
0.0811013
0.0818963
0.0827514
0.0836431
0.0845573
0.0854868
0.0864285
0.0873823
0.0883491
0.0893309
0.0903301
0.0913494
0.0923921
0.0934627
0.0945684
0.0957223
0.0969573
0.0983341
0.100124
0.102154
0.0542497
0.0347241
0.0253662
0.0203354
0.0174017
0.0155868
0.0144133
0.0136246
0.0130801
0.0126514
0.0964858
0.076866
0.0637229
0.0543808
0.0474612
0.0421716
0.038023
0.0346991
0.0319859
0.0297402
0.0282263
0.0269517
0.0256903
0.0245545
0.0235222
0.0225836
0.0217322
0.0209623
0.0202678
0.0196429
0.0190816
0.0185783
0.0181277
0.0177247
0.0173647
0.0170436
0.0167574
0.0165028
0.0162768
0.0160768
0.0159008
0.0157469
0.0156142
0.0155017
0.0154094
0.0153373
0.0152858
0.0152545
0.0152419
0.0152448
0.0152572
0.0152717
0.015281
0.0152785
0.0152602
0.0152227
0.0151655
0.0150903
0.0149995
0.0148963
0.0147841
0.0146663
0.0145463
0.0144269
0.0143105
0.0141991
0.0140942
0.013997
0.0139079
0.013827
0.0137541
0.0136885
0.0136295
0.0135764
0.0135286
0.0134851
0.0134455
0.013409
0.0133753
0.0133439
0.0133146
0.0132869
0.0132608
0.013236
0.0132126
0.0131903
0.013169
0.0131487
0.0131291
0.0131081
0.0130107
0.0128972
0.012788
0.012689
0.012601
0.012523
0.0124535
0.0123898
0.0123388
0.012264
0.0964842
0.0768629
0.063719
0.0543766
0.0474572
0.0421682
0.0380209
0.034699
0.0319893
0.0297457
0.0278692
0.0262843
0.0249303
0.0237616
0.0227437
0.0218501
0.0210601
0.0203573
0.019729
0.0191648
0.0186561
0.0181961
0.0177793
0.0174008
0.0170569
0.0167441
0.0164599
0.016202
0.0159684
0.0157576
0.0155686
0.0154004
0.0152526
0.0151254
0.0150195
0.0149361
0.0148769
0.0148426
0.014833
0.0148445
0.0148692
0.0148973
0.0149188
0.0149257
0.0149135
0.0148807
0.0148276
0.0147563
0.0146694
0.01457
0.0144613
0.0143464
0.0142282
0.0141089
0.0139903
0.0138742
0.0137617
0.0136539
0.0135515
0.0134551
0.0133648
0.013281
0.0132033
0.0131318
0.0130662
0.0130061
0.0129511
0.012901
0.0128553
0.0128137
0.0127757
0.0127411
0.0127096
0.0126808
0.0126546
0.0126306
0.0126086
0.0125882
0.012569
0.0125498
0.0125289
0.0125071
0.0124854
0.0124642
0.0124434
0.0124226
0.0124017
0.012379
0.0123627
0.0123096
0.0964826
0.0768599
0.0637151
0.0543724
0.0474531
0.0421649
0.0380193
0.0347002
0.0319951
0.0297575
0.0278837
0.0262973
0.0249397
0.0237665
0.0227438
0.0218455
0.0210508
0.0203434
0.0197103
0.019141
0.0186269
0.0181613
0.0177383
0.0173533
0.0170024
0.0166825
0.0163909
0.0161252
0.0158839
0.0156653
0.0154686
0.015293
0.0151385
0.0150056
0.0148957
0.0148115
0.0147565
0.0147339
0.0147463
0.0147896
0.0148529
0.014921
0.014979
0.0150153
0.0150241
0.0150038
0.0149556
0.0148824
0.0147883
0.0146776
0.0145552
0.0144252
0.0142907
0.0141538
0.0140176
0.0138848
0.0137573
0.0136364
0.0135231
0.013418
0.0133215
0.0132336
0.0131543
0.0130833
0.0130203
0.0129649
0.0129166
0.012875
0.0128395
0.0128096
0.0127849
0.0127648
0.0127489
0.0127366
0.0127276
0.0127213
0.0127172
0.0127148
0.0127133
0.0127118
0.0127094
0.0127055
0.0127002
0.0126934
0.0126844
0.0126723
0.0126556
0.0126297
0.0125957
0.0124839
0.096481
0.0768568
0.0637109
0.0543674
0.0474476
0.0421591
0.0380133
0.034694
0.0319886
0.0297499
0.0278734
0.0262827
0.0249203
0.0237423
0.022715
0.0218121
0.0210131
0.0203014
0.0196641
0.0190905
0.0185722
0.0181021
0.0176746
0.017285
0.0169295
0.0166049
0.0163085
0.0160382
0.0157921
0.0155688
0.0153672
0.0151868
0.0150275
0.0148903
0.0147774
0.014693
0.014643
0.0146357
0.0146799
0.014774
0.0149029
0.0150428
0.015168
0.0152602
0.015311
0.015319
0.0152869
0.0152198
0.015124
0.0150062
0.0148757
0.0147366
0.0145935
0.0144502
0.0143099
0.0141752
0.0140483
0.0139308
0.013824
0.0137288
0.0136456
0.0135746
0.0135157
0.0134685
0.0134324
0.0134064
0.0133898
0.0133812
0.0133795
0.0133835
0.0133917
0.0134029
0.0134158
0.0134293
0.0134422
0.0134535
0.0134623
0.0134679
0.0134693
0.0134659
0.0134567
0.0134412
0.013419
0.0133897
0.0133529
0.0133077
0.0132529
0.0131831
0.0130998
0.0129275
0.0964794
0.0768536
0.0637066
0.0543622
0.0474417
0.0421525
0.0380063
0.0346866
0.0319807
0.0297413
0.0278632
0.0262699
0.0249039
0.0237216
0.0226895
0.0217815
0.0209771
0.0202598
0.0196167
0.0190372
0.0185129
0.0180368
0.0176033
0.0172078
0.0168465
0.0165163
0.0162145
0.0159388
0.0156875
0.0154588
0.0152516
0.0150653
0.0148996
0.0147555
0.0146355
0.0145459
0.0144957
0.0145018
0.0145949
0.0147929
0.0150827
0.0154176
0.015738
0.0160052
0.0162021
0.0163264
0.0163839
0.016385
0.0163418
0.0162657
0.0161776
0.0160888
0.0160053
0.0159318
0.0158714
0.0158263
0.015797
0.0157832
0.0157837
0.0157962
0.0158183
0.015847
0.0158793
0.0159122
0.0159431
0.0159696
0.0159897
0.0160018
0.0160048
0.015998
0.0159811
0.0159538
0.0159165
0.0158694
0.0158131
0.0157481
0.015675
0.0155944
0.0155069
0.0154129
0.0153127
0.0152064
0.0150943
0.0149766
0.0148531
0.0147229
0.014585
0.0144334
0.0142696
0.0140191
0.0964779
0.0768504
0.063702
0.0543565
0.0474349
0.0421446
0.0379971
0.034676
0.0319685
0.0297267
0.0278457
0.0262487
0.0248784
0.0236914
0.0226543
0.021741
0.020931
0.0202081
0.0195591
0.0189736
0.018443
0.0179606
0.0175207
0.0171189
0.0167513
0.0164149
0.0161072
0.0158257
0.0155684
0.0153338
0.0151202
0.0149267
0.0147526
0.0145986
0.0144669
0.0143652
0.014306
0.0143235
0.0145508
0.0151265
0.0160579
0.0171741
0.0182682
0.0192413
0.0200525
0.0207005
0.021204
0.0215879
0.0218775
0.0220948
0.0222497
0.0223928
0.0225151
0.0226082
0.0226657
0.0226837
0.0226612
0.0225991
0.0225002
0.0223683
0.0222077
0.0220227
0.0218174
0.0215957
0.0213609
0.021116
0.0208636
0.0206056
0.0203441
0.0200806
0.0198162
0.0195523
0.0192896
0.019029
0.018771
0.0185161
0.0182646
0.0180169
0.017773
0.0175328
0.0172962
0.0170629
0.0168326
0.0166047
0.0163785
0.0161523
0.0159245
0.015688
0.0154429
0.0151182
0.0964763
0.0768472
0.0636975
0.0543506
0.0474277
0.0421362
0.0379873
0.0346645
0.031955
0.029711
0.0278271
0.0262267
0.0248524
0.0236608
0.0226186
0.0216998
0.0208838
0.0201544
0.0194985
0.0189058
0.0183678
0.0178776
0.01743
0.0170203
0.0166451
0.0163013
0.0159864
0.0156979
0.0154339
0.0151923
0.0149713
0.0147692
0.0145845
0.0144165
0.0142654
0.0141393
0.014051
0.0140754
0.0149447
0.0174344
0.0214857
0.0261009
0.0303257
0.0337881
0.0363565
0.0380866
0.0391031
0.0395483
0.0395562
0.0392438
0.0387024
0.0379686
0.0371001
0.0361413
0.0351323
0.0341059
0.033087
0.0320927
0.0311343
0.0302179
0.0293465
0.0285204
0.0277385
0.0269987
0.0262985
0.025635
0.0250058
0.0244081
0.0238396
0.0232983
0.0227821
0.0222894
0.0218186
0.0213682
0.020937
0.0205238
0.0201276
0.0197479
0.0193831
0.0190316
0.0186921
0.0183634
0.0180441
0.0177338
0.0174317
0.0171352
0.0168417
0.0165436
0.016239
0.015861
0.0964748
0.0768441
0.0636929
0.0543447
0.0474204
0.0421272
0.0379766
0.0346518
0.03194
0.0296931
0.027806
0.0262016
0.0248229
0.0236264
0.0225787
0.0216538
0.0208313
0.0200948
0.0194313
0.0188306
0.0182841
0.0177852
0.0173285
0.0169099
0.0165259
0.0161735
0.0158504
0.0155543
0.0152828
0.0150339
0.0148054
0.0145951
0.0144004
0.0142194
0.0140481
0.0138937
0.0137601
0.013868
0.0184228
0.0305994
0.0476458
0.062877
0.0726607
0.0770842
0.0773605
0.0750176
0.0712906
0.0670155
0.0626898
0.0585698
0.0547517
0.0512571
0.0481072
0.0453003
0.0428123
0.0406089
0.0386535
0.0369109
0.0353495
0.0339426
0.0326676
0.0315071
0.0304487
0.0294777
0.0285778
0.027738
0.0269506
0.0262096
0.0255106
0.0248497
0.0242239
0.0236304
0.0230669
0.0225313
0.0220216
0.0215359
0.0210726
0.0206301
0.0202068
0.0198012
0.0194117
0.0190367
0.0186747
0.0183235
0.0179807
0.0176428
0.0173048
0.0169555
0.0166023
0.016189
0.0964735
0.0768413
0.0636887
0.054339
0.0474132
0.0421184
0.0379659
0.0346389
0.0319246
0.0296748
0.0277843
0.026176
0.0247927
0.0235911
0.0225376
0.0216063
0.0207766
0.0200322
0.0193601
0.01875
0.0181936
0.0176842
0.0172169
0.0167875
0.0163928
0.0160303
0.0156977
0.0153927
0.015113
0.0148562
0.0146201
0.0144022
0.0141991
0.0140068
0.0138148
0.0136232
0.0133957
0.0139043
0.0355746
0.080029
0.122373
0.143889
0.144714
0.13366
0.118337
0.103064
0.0896504
0.0785307
0.0695491
0.0623593
0.0566036
0.0519676
0.0481982
0.0450917
0.0424922
0.0402872
0.0384025
0.0367763
0.0353308
0.0340212
0.0328204
0.0317105
0.0306787
0.0297155
0.0288132
0.0279656
0.0271677
0.0264152
0.0257043
0.0250317
0.0243946
0.0237905
0.0232169
0.0226718
0.0221532
0.0216594
0.0211885
0.0207391
0.0203095
0.0198983
0.0195038
0.0191244
0.0187583
0.0184035
0.0180573
0.0177157
0.0173738
0.017019
0.0166303
0.0161853
0.0964724
0.0768388
0.0636849
0.0543339
0.0474065
0.04211
0.0379554
0.0346262
0.0319091
0.0296562
0.0277621
0.0261496
0.0247615
0.0235543
0.0224946
0.0215562
0.0207186
0.0199654
0.0192836
0.0186628
0.0180948
0.0175733
0.0170932
0.016651
0.0162438
0.0158694
0.0155259
0.0152112
0.0149228
0.0146584
0.0144162
0.0141952
0.0139938
0.0138113
0.0136382
0.0134747
0.0132691
0.0138317
0.0379119
0.0877663
0.135093
0.156713
0.156437
0.143604
0.126019
0.108472
0.0930703
0.0803524
0.0701586
0.0620987
0.0557481
0.05074
0.0467751
0.043658
0.0411376
0.039034
0.0372323
0.0356557
0.0342516
0.0329835
0.0318258
0.0307598
0.0297719
0.0288515
0.0279906
0.0271827
0.0264225
0.0257058
0.0250288
0.0243884
0.0237819
0.0232069
0.0226611
0.0221425
0.0216494
0.02118
0.0207327
0.0203059
0.019898
0.0195077
0.0191332
0.018773
0.0184252
0.0180875
0.0177574
0.0174305
0.0171018
0.0167584
0.0163781
0.0159066
0.0964716
0.0768369
0.0636819
0.0543295
0.0474006
0.0421023
0.0379457
0.0346141
0.0318943
0.0296383
0.0277404
0.0261236
0.0247305
0.0235175
0.0224512
0.0215052
0.0206589
0.0198958
0.0192029
0.0185698
0.0179883
0.0174521
0.0169568
0.0164989
0.0160765
0.0156879
0.0153318
0.0150062
0.0147083
0.0144358
0.0141878
0.0139663
0.0137754
0.013625
0.0135158
0.0134617
0.013377
0.0139456
0.0370372
0.0862246
0.133996
0.156355
0.156544
0.144147
0.126929
0.109688
0.0944971
0.0818782
0.0716695
0.0634768
0.0569028
0.0516504
0.0474689
0.0440564
0.0412172
0.0388173
0.0367604
0.0349753
0.0334084
0.0320186
0.030774
0.0296499
0.0286269
0.0276894
0.026825
0.0260239
0.0252779
0.0245805
0.0239263
0.0233109
0.0227307
0.0221826
0.0216639
0.0211724
0.0207063
0.0202635
0.0198427
0.0194421
0.0190603
0.0186957
0.0183467
0.0180113
0.0176878
0.0173735
0.0170656
0.0167597
0.0164504
0.0161244
0.0157605
0.0153035
0.096471
0.0768355
0.0636795
0.0543259
0.0473956
0.0420956
0.037937
0.034603
0.0318804
0.0296211
0.0277194
0.0260982
0.0246999
0.0234809
0.0224075
0.0214534
0.0205976
0.0198236
0.0191183
0.018471
0.0178737
0.0173202
0.0168065
0.0163298
0.0158889
0.0154835
0.0151132
0.0147759
0.0144682
0.0141875
0.0139343
0.013717
0.0135517
0.0134761
0.0135262
0.0137707
0.0139938
0.0145921
0.0342998
0.0775858
0.121337
0.143952
0.146027
0.135811
0.121131
0.106457
0.0934861
0.0825581
0.073468
0.0658849
0.0595095
0.0541914
0.0497018
0.0458593
0.0425468
0.03968
0.0371924
0.0350279
0.0331384
0.0314818
0.0300216
0.0287269
0.0275713
0.0265326
0.0255924
0.0247358
0.0239504
0.0232266
0.0225561
0.0219327
0.021351
0.0208067
0.0202964
0.0198168
0.0193654
0.0189398
0.018538
0.018158
0.0177978
0.0174558
0.0171299
0.0168181
0.0165182
0.0162272
0.0159419
0.0156575
0.0153684
0.0150602
0.0147128
0.0142628
0.0964707
0.0768347
0.0636779
0.0543232
0.0473915
0.0420899
0.0379293
0.034593
0.0318677
0.0296052
0.0276997
0.026074
0.0246705
0.0234453
0.0223646
0.0214018
0.0205358
0.0197499
0.0190306
0.0183672
0.0177514
0.0171772
0.0166409
0.0161408
0.0156771
0.0152512
0.0148649
0.0145163
0.0142006
0.0139146
0.013662
0.0134639
0.0133641
0.0134681
0.0139256
0.0149585
0.0158296
0.0163353
0.0173021
0.0211657
0.0289248
0.0380705
0.0464906
0.0536059
0.0587589
0.0617738
0.0628551
0.0623521
0.0606383
0.0580694
0.054967
0.0516507
0.0483091
0.0450725
0.0420283
0.0392267
0.0366887
0.0344141
0.0323892
0.0305927
0.0289997
0.0275848
0.0263235
0.0251934
0.0241747
0.0232506
0.0224071
0.0216324
0.0209171
0.0202538
0.0196369
0.0190616
0.0185245
0.0180224
0.0175529
0.017114