/*--------------------------------*- C++ -*----------------------------------*\
| =========                 |                                                 |
| \\      /  F ield         | OpenFOAM: The Open Source CFD Toolbox           |
|  \\    /   O peration     | Version:  v2012                                 |
|   \\  /    A nd           | Website:  www.openfoam.com                      |
|    \\/     M anipulation  |                                                 |
\*---------------------------------------------------------------------------*/
FoamFile
{
    version     2.0;
    format      ascii;
    class       volScalarField;
    location    "600/air";
    object      GLeaf;
}
// * * * * * * * * * * * * * * * * * * * * * * * * * * * * * * * * * * * * * //

dimensions      [1 0 -3 0 0 0 0];


internalField   nonuniform List<scalar> 
287104
(
766.89
794.785
797.369
798.841
800.347
801.581
802.463
803.031
803.338
803.432
803.35
803.122
802.772
802.32
801.783
801.172
800.499
799.773
799.001
798.19
797.345
796.47
795.571
794.649
793.71
792.755
791.786
790.807
789.82
788.826
787.827
786.824
785.819
784.81
783.792
782.769
781.762
780.78
779.793
778.793
777.792
776.783
775.793
774.838
773.877
772.91
771.955
771.006
770.066
769.134
768.212
767.298
766.394
765.501
764.616
763.741
762.876
762.02
761.174
760.339
759.513
758.698
757.894
757.101
756.32
755.551
754.796
754.057
753.336
752.634
751.951
751.286
750.634
749.992
749.356
748.725
748.101
747.487
746.888
746.302
745.727
745.161
744.598
744.013
743.344
742.546
741.803
742.104
744.845
733.818
778.268
809.09
811.534
812.704
813.927
814.876
815.488
815.803
815.864
815.708
815.372
814.885
814.274
813.561
812.763
811.894
810.966
809.987
808.964
807.904
806.813
805.696
804.556
803.398
802.224
801.037
799.838
798.631
797.417
796.199
794.979
793.757
792.536
791.312
790.068
788.805
787.577
786.416
785.246
784.037
782.822
781.579
780.371
779.253
778.115
776.947
775.798
774.657
773.527
772.407
771.3
770.204
769.12
768.048
766.986
765.937
764.899
763.872
762.858
761.856
760.866
759.887
758.921
757.968
757.027
756.101
755.192
754.302
753.431
752.578
751.74
750.911
750.088
749.269
748.46
747.668
746.905
746.18
745.497
744.85
744.224
743.604
742.982
742.351
741.674
740.899
740.193
740.719
744.468
734.098
765.87
795.893
797.969
798.878
799.903
800.681
801.138
801.314
801.25
800.98
800.535
799.947
799.24
798.436
797.552
796.601
795.595
794.542
793.449
792.321
791.166
789.987
788.789
787.575
786.348
785.108
783.859
782.602
781.339
780.074
778.806
777.54
776.276
775.009
773.717
772.392
771.112
769.933
768.744
767.495
766.237
764.938
763.679
762.551
761.398
760.194
759.013
757.842
756.683
755.537
754.403
753.283
752.175
751.079
749.995
748.923
747.865
746.819
745.787
744.768
743.762
742.769
741.788
740.822
739.87
738.936
738.019
737.121
736.24
735.37
734.508
733.649
732.795
731.95
731.128
730.343
729.61
728.935
728.315
727.735
727.17
726.596
726
725.388
724.739
723.99
723.265
723.808
727.93
718.524
753.63
782.851
784.747
785.526
786.435
787.111
787.481
787.583
787.455
787.13
786.635
786.004
785.26
784.423
783.508
782.528
781.496
780.418
779.302
778.155
776.981
775.785
774.571
773.343
772.103
770.853
769.593
768.325
767.051
765.773
764.493
763.215
761.94
760.663
759.355
758.002
756.696
755.522
754.339
753.077
751.806
750.479
749.192
748.075
746.93
745.712
744.522
743.341
742.174
741.021
739.882
738.755
737.639
736.535
735.443
734.364
733.299
732.248
731.21
730.185
729.172
728.172
727.186
726.214
725.259
724.32
723.398
722.488
721.587
720.69
719.794
718.901
718.02
717.162
716.346
715.585
714.891
714.262
713.69
713.152
712.623
712.07
711.473
710.828
710.125
709.309
708.5
708.962
713.133
704.207
742.278
770.882
772.691
773.401
774.236
774.841
775.151
775.204
775.038
774.681
774.159
773.51
772.752
771.902
770.975
769.983
768.939
767.852
766.729
765.575
764.396
763.196
761.98
760.75
759.51
758.261
757.005
755.741
754.471
753.195
751.917
750.638
749.365
748.091
746.788
745.436
744.122
742.949
741.776
740.518
739.254
737.933
736.641
735.532
734.402
733.191
732.009
730.839
729.684
728.544
727.416
726.3
725.195
724.102
723.022
721.956
720.906
719.869
718.845
717.834
716.836
715.852
714.883
713.93
712.993
712.071
711.159
710.251
709.344
708.436
707.532
706.645
705.79
704.984
704.24
703.564
702.957
702.41
701.907
701.428
700.945
700.425
699.835
699.156
698.379
697.495
696.669
697.114
701.181
692.296
731.379
759.464
761.22
761.883
762.66
763.208
763.472
763.497
763.315
762.946
762.427
761.775
761.018
760.167
759.235
758.238
757.189
756.098
754.973
753.819
752.641
751.443
750.229
749.001
747.764
746.52
745.272
744.019
742.762
741.498
740.228
738.957
737.688
736.423
735.144
733.827
732.524
731.329
730.148
728.907
727.67
726.396
725.129
724.005
722.884
721.702
720.546
719.407
718.285
717.178
716.085
715.003
713.936
712.883
711.848
710.83
709.83
708.845
707.877
706.924
705.989
705.072
704.175
703.297
702.436
701.586
700.741
699.897
699.054
698.221
697.414
696.654
695.96
695.346
694.817
694.367
693.983
693.647
693.342
693.048
692.737
692.384
691.953
691.418
690.774
690.051
689.459
690.088
693.926
684.319
720.723
748.329
750.043
750.661
751.377
751.859
752.065
752.054
751.863
751.5
751.03
750.386
749.633
748.783
747.851
746.852
745.801
744.711
743.588
742.437
741.264
740.071
738.861
737.637
736.403
735.164
733.925
732.689
731.453
730.213
728.966
727.714
726.461
725.217
723.993
722.773
721.525
720.288
719.086
717.896
716.731
715.588
714.426
713.297
712.23
711.181
710.161
709.172
708.209
707.268
706.347
705.447
704.57
703.72
702.895
702.093
701.312
700.553
699.815
699.1
698.41
697.745
697.106
696.489
695.888
695.297
694.715
694.143
693.594
693.088
692.648
692.296
692.048
691.911
691.88
691.941
692.07
692.243
692.436
692.626
692.774
692.877
692.905
692.838
692.665
692.411
692.245
693.012
695.786
683.405
710.227
737.367
739.046
739.627
740.283
740.683
740.795
740.698
740.444
740.048
739.608
738.931
738.155
737.307
736.385
735.402
734.372
733.304
732.204
731.077
729.926
728.756
727.566
726.358
725.136
723.907
722.681
721.467
720.264
719.068
717.87
716.666
715.479
714.33
713.275
712.324
711.309
710.129
709.023
708.083
707.212
706.485
705.72
704.737
703.879
703.176
702.485
701.834
701.214
700.622
700.07
699.569
699.121
698.725
698.376
698.071
697.806
697.584
697.407
697.276
697.193
697.154
697.155
697.188
697.246
697.327
697.436
697.588
697.803
698.102
698.506
699.023
699.656
700.397
701.236
702.155
703.132
704.134
705.127
706.08
706.93
707.691
708.333
708.854
709.272
709.607
709.993
711.088
713.144
695.792
699.866
726.545
728.195
728.753
729.369
729.701
729.707
729.461
729.01
728.345
727.321
726.3
725.362
724.474
723.565
722.618
721.635
720.619
719.571
718.492
717.385
716.252
715.095
713.913
712.744
711.598
710.487
709.423
708.414
707.457
706.538
705.643
704.76
703.921
703.256
702.838
702.304
701.311
700.41
699.898
699.495
699.407
699.267
698.518
697.984
697.837
697.683
697.585
697.529
697.516
697.548
697.635
697.777
697.966
698.19
698.443
698.725
699.039
699.389
699.774
700.189
700.628
701.079
701.535
701.995
702.465
702.963
703.512
704.132
704.84
705.64
706.526
707.484
708.498
709.556
710.647
711.756
712.857
713.926
714.948
715.941
716.751
717.32
717.683
717.94
718.186
718.557
719.585
720.994
700.721
689.643
715.86
717.482
718.027
718.626
718.929
718.872
718.491
717.718
716.076
709.934
706.382
704.119
702.545
701.278
700.161
699.118
698.101
697.078
696.031
694.953
693.839
692.686
691.493
690.309
689.131
687.966
686.834
685.753
684.735
683.776
682.855
681.897
680.905
680.107
679.68
679.025
677.432
675.917
675.095
674.419
674.289
674.13
672.815
671.813
671.516
671.157
670.852
670.581
670.362
670.218
670.162
670.189
670.279
670.421
670.611
670.854
671.155
671.515
671.931
672.392
672.886
673.404
673.948
674.525
675.156
675.862
676.666
677.578
678.598
679.714
680.906
682.156
683.446
684.766
686.109
687.466
688.825
690.204
691.782
694.826
697.472
699.487
700.937
702.045
703.082
704.339
706.408
708.877
689.565
679.563
705.32
706.913
707.439
708.027
708.337
708.309
707.963
706.86
701.491
650.002
633.237
626.901
624.074
622.36
620.952
619.564
618.105
616.562
614.957
613.323
611.692
610.095
608.553
607.076
605.669
604.336
603.085
601.932
600.882
599.924
599.017
598.117
597.245
596.682
596.709
596.45
594.703
592.951
592.188
591.512
591.545
591.513
589.548
587.884
587.234
586.397
585.562
584.721
583.912
583.168
582.496
581.878
581.291
580.729
580.199
579.716
579.289
578.919
578.601
578.33
578.101
577.923
577.812
577.793
577.895
578.136
578.524
579.052
579.704
580.459
581.299
582.208
583.18
584.207
585.277
586.369
587.455
588.611
592.021
612.599
629.054
641.184
650.008
656.551
661.752
666.507
671.979
678.308
664.508
669.634
694.935
696.498
697.004
697.574
697.879
697.864
697.541
696.402
690.617
636.809
619.447
613.178
610.628
609.24
608.146
607.035
605.807
604.45
602.989
601.46
599.9
598.346
596.831
595.377
593.99
592.665
591.397
590.203
589.105
588.119
587.222
586.338
585.465
584.982
585.338
585.382
583.284
581.109
580.373
579.729
580.089
580.484
578.069
575.971
575.322
574.368
573.38
572.36
571.353
570.375
569.406
568.409
567.36
566.257
565.112
563.933
562.72
561.469
560.176
558.849
557.503
556.17
554.886
553.694
552.622
551.689
550.896
550.239
549.711
549.311
549.045
548.923
548.951
549.129
549.448
549.883
550.409
551.088
553.204
569.26
583.125
594.185
603.008
610.253
616.603
622.96
630.976
641.898
636.465
659.856
684.71
686.247
686.734
687.286
687.577
687.554
687.224
686.082
680.313
627.17
609.991
603.805
601.303
599.952
598.895
597.824
596.639
595.329
593.917
592.438
590.931
589.433
587.987
586.626
585.363
584.178
583.037
581.927
580.866
579.903
579.058
578.261
577.501
577.227
578.072
578.621
576.325
573.842
573.304
572.866
573.755
574.886
572.286
570.017
569.739
569.103
568.488
567.909
567.402
566.953
566.517
566.055
565.565
565.059
564.546
564.019
563.463
562.863
562.219
561.537
560.841
560.163
559.525
558.938
558.391
557.861
557.319
556.74
556.108
555.417
554.669
553.863
552.994
552.051
551.021
549.887
548.648
547.393
547.291
559.02
568.3
575.073
580.212
584.444
588.318
592.622
599.272
610.322
608.701
650.228
674.643
676.16
676.633
677.169
677.447
677.415
677.083
675.955
670.276
618.07
601.182
595.093
592.624
591.286
590.241
589.184
588.017
586.728
585.338
583.881
582.391
580.907
579.476
578.153
576.97
575.903
574.88
573.834
572.748
571.686
570.732
569.867
569.086
568.893
570.099
571.065
568.462
565.506
565.006
564.591
565.803
567.519
564.537
561.825
561.646
561.066
560.569
560.166
559.846
559.544
559.205
558.862
558.543
558.269
558.033
557.805
557.562
557.306
557.061
556.861
556.742
556.726
556.818
557.005
557.257
557.543
557.837
558.127
558.409
558.681
558.938
559.164
559.339
559.436
559.436
559.326
559.121
558.997
560.762
575.358
586.166
593.641
598.985
603.041
606.348
609.639
614.535
621.981
613.523
640.746
664.731
666.234
666.702
667.229
667.498
667.456
667.116
665.996
660.404
609.083
592.476
586.481
584.044
582.721
581.69
580.649
579.5
578.232
576.866
575.432
573.961
572.487
571.063
569.761
568.65
567.726
566.888
565.994
564.943
563.775
562.634
561.597
560.712
560.535
562.034
563.401
560.517
557.062
556.551
556.105
557.542
559.798
556.435
553.214
553.062
552.512
552.133
551.876
551.637
551.299
550.837
550.325
549.855
549.458
549.102
548.739
548.352
547.963
547.637
547.406
547.283
547.262
547.316
547.409
547.509
547.6
547.679
547.749
547.813
547.865
547.89
547.868
547.782
547.622
547.397
547.126
546.86
546.807
548.741
563.141
574.025
581.818
587.597
592.092
595.853
599.709
605.255
613.167
604.524
631.4
654.961
656.458
656.932
657.465
657.739
657.696
657.348
656.225
650.703
600.195
583.849
577.942
575.54
574.241
573.231
572.215
571.092
569.85
568.513
567.108
565.662
564.201
562.774
561.471
560.403
559.613
559.003
558.359
557.452
556.233
554.869
553.554
552.453
552.196
553.894
555.63
552.529
548.598
548.042
547.539
549.109
551.845
548.159
544.447
544.328
543.889
543.719
543.638
543.415
542.914
542.203
541.473
540.863
540.379
539.949
539.512
539.067
538.657
538.324
538.086
537.927
537.809
537.69
537.537
537.334
537.079
536.778
536.429
536.017
535.515
534.893
534.125
533.204
532.144
530.98
529.757
528.541
527.478
527.659
538.777
547.33
553.304
557.445
560.385
562.763
565.529
570.458
579.45
577.171
622.189
645.327
646.818
647.304
647.859
648.164
648.147
647.81
646.685
641.217
591.453
575.351
569.53
567.165
565.892
564.909
563.919
562.824
561.611
560.302
558.927
557.508
556.062
554.627
553.296
552.22
551.512
551.12
550.793
550.159
549.006
547.443
545.768
544.312
543.83
545.581
547.617
544.367
539.998
539.359
538.771
540.369
543.488
539.554
535.423
535.394
535.195
535.328
535.412
535.09
534.281
533.223
532.239
531.489
530.933
530.454
529.991
529.558
529.196
528.923
528.716
528.529
528.315
528.043
527.708
527.316
526.878
526.389
525.832
525.173
524.38
523.433
522.333
521.107
519.809
518.512
517.299
516.263
515.562
516.272
528.088
537.671
544.84
550.256
554.595
558.544
562.93
569.341
579.623
577.518
613.119
635.833
637.313
637.804
638.383
638.738
638.789
638.515
637.442
632.063
583.024
567.176
561.448
559.114
557.853
556.877
555.894
554.806
553.6
552.298
550.933
549.525
548.085
546.63
545.245
544.1
543.383
543.135
543.125
542.869
541.942
540.296
538.255
536.333
535.465
537.101
539.353
536.038
531.315
530.588
529.921
531.468
534.886
530.831
526.446
526.659
526.888
527.423
527.637
527.109
525.92
524.538
523.402
522.654
522.182
521.831
521.536
521.305
521.152
521.056
520.969
520.846
520.667
520.435
520.169
519.881
519.564
519.193
518.733
518.151
517.436
516.601
515.684
514.745
513.857
513.097
512.541
512.265
512.401
514.089
527.779
539.135
547.852
554.64
560.247
565.265
570.225
576.339
584.858
578.786
604.202
626.494
627.955
628.437
629.023
629.417
629.551
629.403
628.503
623.405
575.45
559.993
554.388
552.055
550.757
549.731
548.694
547.549
546.288
544.935
543.527
542.093
540.638
539.164
537.726
536.487
535.691
535.491
535.752
535.948
535.443
533.943
531.681
529.29
527.921
529.283
531.664
528.372
523.402
522.596
521.84
523.234
526.835
522.761
518.288
518.877
519.638
520.534
520.715
519.823
518.212
516.596
515.478
514.92
514.72
514.675
514.698
514.774
514.884
514.991
515.058
515.075
515.059
515.031
514.998
514.945
514.832
514.618
514.272
513.792
513.204
512.559
511.926
511.374
510.966
510.749
510.756
511.14
512.038
515.267
531.773
544.93
554.809
562.412
568.555
573.723
578.282
583.188
589.061
578.743
595.436
617.313
618.754
619.219
619.79
620.189
620.37
620.342
619.736
615.475
571.432
557.037
551.551
549.027
547.485
546.247
545.064
543.859
542.628
541.393
540.182
539.007
537.854
536.687
535.504
534.42
533.689
533.575
534.098
534.802
534.916
533.861
531.651
528.916
526.993
527.922
530.306
527.047
521.857
520.885
519.88
520.85
524.331
520.083
515.406
516.174
517.139
517.889
517.474
515.771
513.503
511.591
510.514
510.196
510.317
510.631
511.123
511.682
512.245
512.77
513.25
513.702
514.143
514.572
514.957
515.248
515.401
515.393
515.235
514.972
514.671
514.409
514.256
514.267
514.472
514.872
515.44
516.137
517.067
520.026
536.954
550.329
560.243
567.7
573.436
577.878
581.433
584.993
588.943
576.513
586.8
608.268
609.695
610.146
610.696
611.068
611.214
611.158
610.855
609.913
605.858
603.817
602.769
602.035
601.39
600.747
600.067
599.331
598.536
597.684
596.782
595.833
594.822
593.707
592.456
591.146
590.036
589.497
589.762
590.546
591.039
590.378
588.246
585.122
582.484
582.826
585.179
581.919
576.512
575.52
574.43
575.192
578.903
574.688
569.989
571.195
572.466
573.005
571.909
569.448
566.747
564.851
564.086
564.154
564.592
565.096
565.548
565.937
566.284
566.621
566.981
567.379
567.799
568.193
568.494
568.653
568.656
568.526
568.323
568.121
567.996
568.008
568.198
568.578
569.131
569.816
570.573
571.344
572.102
572.992
575.058
577.018
578.748
580.262
581.517
582.475
583.274
584.536
586.47
572.515
578.259
599.321
600.735
601.175
601.712
602.067
602.189
602.11
601.855
601.402
600.718
599.99
599.268
598.514
597.721
596.894
596.038
595.158
594.257
593.338
592.409
591.474
590.522
589.508
588.368
587.104
585.898
585.133
585.202
586.066
587.042
587.115
585.62
582.703
579.746
579.549
581.724
578.538
573.14
572.178
570.998
571.472
575.339
571.498
567.189
568.876
570.221
570.247
568.38
565.398
562.692
561.188
560.894
561.27
561.784
562.179
562.43
562.606
562.78
562.999
563.268
563.549
563.776
563.885
563.828
563.609
563.277
562.905
562.578
562.368
562.322
562.465
562.79
563.27
563.858
564.5
565.146
565.762
566.338
566.906
567.527
568.159
568.772
569.315
569.708
569.923
570.079
570.776
572.492
559.698
569.777
590.433
591.834
592.263
592.786
593.131
593.249
593.172
592.933
592.56
592.17
591.601
590.931
590.188
589.392
588.556
587.689
586.798
585.888
584.963
584.029
583.093
582.158
581.195
580.132
578.909
577.602
576.525
576.16
576.728
577.801
578.384
577.547
575.034
571.945
571.213
573.043
569.799
564.314
563.284
561.89
561.929
565.84
562.282
558.11
559.746
560.488
559.442
556.552
553.045
550.335
548.994
548.664
548.681
548.588
548.288
547.883
547.495
547.184
546.932
546.678
546.333
545.831
545.152
544.316
543.395
542.48
541.654
540.982
540.495
540.197
540.068
540.072
540.161
540.288
540.418
540.526
540.604
540.651
540.674
540.661
540.67
540.7
540.715
540.664
540.515
540.351
540.864
543.173
534.355
561.334
581.583
582.972
583.389
583.899
584.233
584.344
584.264
584.024
583.653
583.213
582.647
581.992
581.27
580.497
579.682
578.833
577.958
577.062
576.147
575.218
574.287
573.373
572.477
571.551
570.501
569.289
568.088
567.349
567.48
568.37
569.208
568.947
566.967
564.002
562.919
564.407
561.093
555.868
554.794
553.255
552.967
556.733
553.689
549.798
551.396
551.66
550
546.898
543.81
541.87
541.142
540.981
540.779
540.339
539.775
539.256
538.856
538.53
538.177
537.701
537.038
536.195
535.238
534.25
533.329
532.552
531.964
531.574
531.365
531.299
531.331
531.415
531.51
531.591
531.644
531.666
531.656
531.605
531.511
531.366
531.211
531.067
530.936
530.782
530.544
530.299
530.895
533.695
525.499
552.935
572.779
574.157
574.563
575.06
575.384
575.488
575.404
575.162
574.788
574.313
573.743
573.099
572.396
571.646
570.856
570.033
569.181
568.304
567.405
566.485
565.553
564.642
563.791
563.003
562.206
561.283
560.227
559.335
559.059
559.568
560.341
560.372
558.789
555.996
554.705
555.935
552.563
546.528
545.359
543.698
543.181
547.909
545.532
542.029
543.758
543.968
542.411
539.934
537.906
536.966
536.783
536.729
536.522
536.268
536.166
536.274
536.494
536.659
536.633
536.375
535.909
535.328
534.749
534.254
533.905
533.721
533.693
533.785
533.955
534.159
534.358
534.525
534.645
534.717
534.744
534.728
534.661
534.534
534.349
534.125
533.904
533.725
533.596
533.455
533.188
532.865
533.389
535.88
525.833
544.635
564.077
565.445
565.841
566.326
566.641
566.739
566.652
566.408
566.034
565.55
564.981
564.344
563.654
562.921
562.152
561.351
560.523
559.668
558.789
557.88
556.947
556.019
555.165
554.457
553.897
553.369
552.72
552.014
551.579
551.731
552.263
552.314
550.857
548.048
546.523
547.637
544.452
543.019
541.9
540.159
539.423
539.939
538.429
535.77
538.373
539.465
538.976
537.859
537.189
537.106
537.189
537.136
537.057
537.195
537.609
538.136
538.54
538.657
538.452
538.016
537.47
536.946
536.547
536.301
536.21
536.246
536.368
536.532
536.702
536.849
536.954
537.013
537.028
537.004
536.942
536.835
536.676
536.47
536.244
536.041
535.9
535.839
535.827
535.754
535.488
535.143
535.629
537.728
525.904
536.565
555.612
556.97
557.354
557.828
558.135
558.229
558.141
557.898
557.526
557.044
556.478
555.848
555.166
554.445
553.692
552.912
552.107
551.278
550.425
549.541
548.619
547.674
546.778
546.05
545.595
545.387
545.233
544.993
544.746
544.775
545.124
545.15
543.712
540.695
538.73
539.753
536.746
520.689
519.255
517.069
516.047
531.52
531.004
529.107
532.646
534.488
534.664
534.145
533.758
533.506
533.157
532.83
532.822
533.233
533.858
534.378
534.583
534.447
534.079
533.653
533.294
533.079
533.038
533.133
533.324
533.566
533.819
534.055
534.253
534.406
534.511
534.572
534.592
534.57
534.501
534.383
534.229
534.073
533.962
533.938
534.005
534.122
534.199
534.112
533.787
533.431
533.91
535.707
522.885
528.953
547.626
548.973
549.344
549.805
550.102
550.19
550.099
549.856
549.487
549.01
548.45
547.825
547.152
546.441
545.702
544.941
544.159
543.357
542.534
541.685
540.794
539.855
538.909
538.077
537.537
537.395
537.548
537.788
537.949
538.13
538.507
538.717
537.589
534.566
532.004
532.855
531.514
564.978
561.616
556.545
552.838
519.412
519.217
518.5
523.355
525.898
526.53
526.364
526.131
525.874
525.644
525.697
526.186
526.941
527.618
527.973
527.983
527.786
527.556
527.44
527.48
527.671
527.988
528.364
528.759
529.139
529.483
529.78
530.024
530.218
530.363
530.462
530.511
530.508
530.455
530.372
530.297
530.281
530.366
530.558
530.809
531.021
531.074
530.885
530.489
530.162
530.647
532.184
518.759
522.132
540.467
541.805
542.163
542.609
542.894
542.972
542.872
542.623
542.248
541.769
541.208
540.584
539.914
539.211
538.485
537.743
536.987
536.217
535.432
534.629
533.792
532.898
531.945
531.005
530.253
529.893
529.967
530.376
530.851
531.266
531.795
532.387
532.11
529.965
527.469
528.748
525.73
479.016
471.527
467.374
467.539
507.762
511.648
512.264
517.805
520.124
520.612
520.575
520.589
520.645
520.826
521.265
521.891
522.448
522.73
522.727
522.595
522.508
522.564
522.804
523.178
523.628
524.116
524.593
525.035
525.431
525.77
526.053
526.279
526.451
526.571
526.637
526.65
526.618
526.564
526.529
526.559
526.69
526.928
527.232
527.517
527.671
527.602
527.305
526.91
526.697
527.261
528.579
514.698
516.47
534.529
535.864
536.219
536.66
536.942
537.018
536.916
536.662
536.28
535.791
535.217
534.577
533.891
533.173
532.437
531.693
530.946
530.197
529.445
528.688
527.914
527.096
526.2
525.232
524.301
523.615
523.312
523.485
523.95
524.45
525.057
525.952
526.726
526.273
524.83
526.401
516.437
251.675
246.215
248.05
256.989
504.179
513.399
512.967
516.538
516.779
516.404
516.423
516.841
517.346
517.842
518.32
518.692
518.869
518.878
518.853
518.937
519.199
519.609
520.127
520.678
521.211
521.711
522.157
522.541
522.862
523.118
523.313
523.451
523.535
523.569
523.557
523.514
523.464
523.444
523.491
523.631
523.862
524.15
524.43
524.62
524.642
524.465
524.142
523.822
523.736
524.356
525.537
511.295
512.269
530.126
531.471
531.838
532.3
532.612
532.724
532.66
532.444
532.095
531.63
531.066
530.421
529.714
528.96
528.177
527.38
526.583
525.794
525.016
524.248
523.485
522.707
521.871
520.939
519.947
519.047
518.375
518.165
518.399
518.847
519.486
520.538
522.124
523.451
523.566
526.305
511.426
68.5603
65.5778
72.9972
89.3518
506.386
518.536
515.092
515.479
513.488
512.603
512.816
513.361
513.762
514.011
514.212
514.415
514.669
515.037
515.569
516.265
517.064
517.86
518.61
519.268
519.813
520.262
520.614
520.881
521.07
521.194
521.262
521.285
521.274
521.239
521.193
521.159
521.167
521.24
521.391
521.607
521.855
522.087
522.251
522.301
522.216
522.01
521.75
521.546
521.565
522.226
523.322
508.864
509.649
527.376
528.73
529.115
529.612
529.977
530.164
530.194
530.088
529.857
529.51
529.055
528.5
527.854
527.126
526.331
525.486
524.611
523.727
522.845
521.973
521.111
520.248
519.353
518.381
517.334
516.331
515.449
514.969
514.995
515.388
516.145
517.427
519.601
522.282
523.507
527.384
511.072
-2.7548
-4.34813
6.40577
26.5922
513.189
524.684
517.593
515.353
511.911
510.608
510.312
510.037
509.612
509.346
509.484
510.075
511.035
512.234
513.54
514.85
516.066
517.09
517.912
518.541
518.989
519.299
519.493
519.599
519.638
519.632
519.599
519.556
519.516
519.494
519.506
519.57
519.696
519.881
520.104
520.33
520.521
520.646
520.687
520.642
520.525
520.368
520.22
520.141
520.257
521
522.136
507.559
508.478
526.13
527.475
527.854
528.355
528.744
528.977
529.082
529.084
528.992
528.814
528.548
528.192
527.741
527.189
526.537
525.792
524.971
524.094
523.185
522.255
521.309
520.339
519.321
518.216
517.016
515.787
514.685
513.953
513.745
514.058
514.904
517.3
520.246
524.394
526.447
531.239
512.53
-23.8334
-30.8189
-19.4987
4.93353
527.224
537.633
526.386
521.413
515.628
512.319
509.992
508.084
506.779
506.403
506.975
508.249
509.883
511.589
513.187
514.609
515.194
516.116
516.782
517.239
517.526
517.699
517.791
517.83
517.839
517.833
517.832
517.848
517.896
517.984
518.123
518.311
518.534
518.764
518.967
519.115
519.191
519.196
519.142
519.046
518.929
518.819
518.746
518.742
518.937
519.822
521.188
506.875
508.382
526.008
527.327
527.669
528.123
528.46
528.641
528.704
528.68
528.591
528.45
528.264
528.03
527.742
527.387
526.953
526.434
525.834
525.166
524.453
523.71
522.942
522.137
521.259
520.25
519.064
517.953
516.623
515.516
514.825
514.398
514.801
517.07
520.507
526.45
530.416
539.16
521.921
-12.1679
-24.0315
-17.5217
5.66056
540.968
553.469
538.275
530.973
522.299
516.497
512.319
509.49
507.986
507.684
508.253
509.287
510.45
511.54
512.488
513.317
513.387
513.92
514.302
514.583
514.791
514.96
515.101
515.22
515.314
515.405
515.509
515.635
515.791
515.981
516.199
516.428
516.641
516.804
516.893
516.902
516.845
516.744
516.623
516.495
516.374
516.267
516.186
516.167
516.395
517.502
519.467
505.995
508.852
526.493
527.795
528.106
528.509
528.77
528.851
528.789
528.621
528.376
528.078
527.746
527.391
527.018
526.624
526.202
525.744
525.246
524.719
524.182
523.666
523.193
522.761
522.331
521.811
521.052
519.319
518.11
516.887
515.851
515.775
515.317
516.416
518.59
524.547
531.823
555.816
540.63
-18.408
-36.0315
-31.3102
-4.18139
564.178
580.067
549.673
537.015
525.175
517.851
513.235
510.577
509.239
508.705
508.602
508.699
508.877
509.094
509.361
509.715
509.5
509.926
510.327
510.719
511.087
511.437
511.751
512.011
512.209
512.357
512.469
512.557
512.621
512.648
512.621
512.515
512.296
511.948
511.498
510.982
510.437
509.897
509.385
508.918
508.505
508.142
507.826
507.591
507.663
508.823
511.443
499.979
509.412
527.086
528.393
528.705
529.102
529.345
529.389
529.266
529.009
528.646
528.199
527.693
527.146
526.569
525.97
525.351
524.71
524.042
523.351
522.657
522.003
521.446
521.04
520.784
520.598
520.314
523.187
522.318
521.21
520.123
515.801
515.024
515.118
514.767
516.776
523.905
588.464
574.669
57.4878
36.1562
39.4157
68.3492
606.096
624.562
552.407
533.879
519.459
510.564
505.35
502.73
501.666
501.398
501.519
501.842
502.294
502.852
503.508
504.277
504.457
505.206
505.848
506.379
506.766
507.007
507.103
507.109
507.092
507.114
507.219
507.426
507.73
508.108
508.531
508.966
509.393
509.806
510.196
510.571
510.938
511.295
511.631
511.935
512.204
512.443
512.664
512.927
513.489
515.209
518.556
507.225
509.768
527.458
528.771
529.094
529.51
529.776
529.847
529.752
529.519
529.173
528.733
528.219
527.645
527.022
526.358
525.655
524.909
524.111
523.254
522.34
521.402
520.514
519.784
519.293
518.989
518.457
506.079
504.703
503.142
501.811
512.225
511.096
510.133
507.633
502.386
474.268
493.988
517.423
512.752
507.913
504.084
500.314
497.842
496.71
496.795
497.374
498.154
499.001
500.095
501.427
502.291
503.889
505.539
507.241
508.981
510.794
512.535
514.134
515.581
516.891
518.072
519.12
520.023
520.77
521.359
521.798
522.107
522.319
522.473
522.6
522.718
522.834
522.954
523.082
523.22
523.364
523.513
523.717
524.212
525.723
528.217
514.303
509.837
527.518
528.824
529.143
529.557
529.826
529.906
529.827
529.617
529.299
528.895
528.421
527.892
527.317
526.702
526.048
525.351
524.598
523.773
522.859
521.858
520.813
519.835
519.039
518.491
519.273
556.439
554.429
551.023
547.539
508.919
507.37
507.347
506.899
505.246
475.42
500.975
533.071
529.021
523.597
519.332
516.207
514.161
513.143
513.122
514.166
515.978
518.441
520.134
521.677
522.343
523.454
524.32
524.986
525.468
525.842
526.092
526.267
526.422
526.582
526.74
526.867
526.938
526.944
526.887
526.786
526.663
526.546
526.453
526.396
526.375
526.391
526.447
526.544
526.669
526.8
526.918
527.054
527.405
528.536
530.141
514.966
509.678
527.344
528.641
528.948
529.348
529.601
529.664
529.567
529.339
529.004
528.585
528.099
527.561
526.981
526.366
525.716
525.026
524.287
523.48
522.579
521.559
520.428
519.276
518.204
517.299
516.198
475.737
468.916
465.527
465.988
501.1
502.986
504.643
506.264
507.104
477.263
504.373
539.682
537.379
533.22
530.18
528.114
526.801
526.211
526.305
526.862
527.707
528.579
529.172
529.618
529.25
529.346
529.278
529.109
528.869
528.664
528.452
528.266
528.144
528.069
528.003
527.907
527.769
527.595
527.402
527.215
527.054
526.935
526.866
526.847
526.876
526.953
527.075
527.229
527.386
527.501
527.555
527.583
527.744
528.489
529.492
513.959
509.414
527.068
528.364
528.666
529.059
529.303
529.354
529.243
529
528.652
528.219
527.721
527.176
526.593
525.979
525.332
524.649
523.916
523.113
522.213
521.184
520.023
518.804
517.555
515.554
506.827
247.378
240.065
241.675
251.109
496.426
503.942
506.458
508.733
510.3
479.622
506.523
542.996
541.301
537.334
534.173
531.946
530.452
529.592
529.286
529.346
529.653
529.962
530.16
530.284
529.676
529.523
529.259
528.937
528.562
528.277
528.017
527.801
527.633
527.491
527.336
527.148
526.932
526.709
526.504
526.338
526.225
526.172
526.178
526.239
526.351
526.505
526.689
526.871
527.01
527.073
527.065
527.033
527.091
527.61
528.29
512.711
509.155
526.805
528.105
528.412
528.807
529.049
529.095
528.976
528.723
528.361
527.914
527.403
526.846
526.257
525.64
524.995
524.314
523.58
522.772
521.863
520.831
519.681
518.473
517.157
514.257
499.079
57.6623
50.6441
56.5788
73.3168
494.068
506.45
509.385
511.425
512.514
481.232
507.402
545.636
544.014
539.518
535.954
533.484
531.857
530.815
530.231
529.922
529.782
529.692
529.596
529.513
528.782
528.521
528.186
527.813
527.378
527.056
526.746
526.472
526.233
526.003
525.758
525.497
525.242
525.017
524.844
524.735
524.696
524.723
524.81
524.946
525.119
525.311
525.494
525.635
525.706
525.708
525.671
525.623
525.608
525.977
526.584
511.27
508.974
526.623
527.931
528.246
528.65
528.902
528.956
528.841
528.589
528.223
527.768
527.246
526.675
526.07
525.439
524.781
524.088
523.344
522.527
521.614
520.586
519.441
518.211
516.783
513.268
494.893
-22.7276
-30.1933
-22.5262
-2.25376
493.222
507.735
510.116
510.956
510.7