/*--------------------------------*- C++ -*----------------------------------*\
| =========                 |                                                 |
| \\      /  F ield         | OpenFOAM: The Open Source CFD Toolbox           |
|  \\    /   O peration     | Version:  v2012                                 |
|   \\  /    A nd           | Website:  www.openfoam.com                      |
|    \\/     M anipulation  |                                                 |
\*---------------------------------------------------------------------------*/
FoamFile
{
    version     2.0;
    format      ascii;
    class       volScalarField;
    location    "600/air";
    object      ILambda_45_0;
}
// * * * * * * * * * * * * * * * * * * * * * * * * * * * * * * * * * * * * * //

dimensions      [1 0 -3 0 0 0 0];


internalField   nonuniform List<scalar> 
287104
(
167.032
167.053
167.066
167.079
167.093
167.106
167.118
167.131
167.144
167.156
167.168
167.18
167.192
167.204
167.215
167.227
167.238
167.25
167.261
167.272
167.283
167.295
167.306
167.317
167.328
167.339
167.35
167.36
167.371
167.382
167.393
167.404
167.415
167.426
167.437
167.448
167.459
167.47
167.481
167.493
167.504
167.515
167.526
167.538
167.549
167.561
167.572
167.584
167.596
167.608
167.62
167.632
167.644
167.657
167.67
167.683
167.696
167.71
167.724
167.739
167.755
167.771
167.789
167.808
167.828
167.851
167.875
167.903
167.933
167.967
168.006
168.05
168.1
168.158
168.226
168.306
168.4
168.511
168.641
168.791
168.967
169.181
169.461
169.863
170.484
171.477
173.045
175.425
178.822
183.304
167.027
167.047
167.059
167.073
167.086
167.099
167.112
167.124
167.137
167.149
167.161
167.173
167.185
167.196
167.208
167.22
167.231
167.242
167.254
167.265
167.276
167.287
167.298
167.309
167.32
167.331
167.342
167.353
167.364
167.375
167.386
167.397
167.408
167.419
167.429
167.44
167.452
167.463
167.474
167.485
167.496
167.507
167.519
167.53
167.542
167.553
167.565
167.577
167.589
167.601
167.613
167.625
167.637
167.65
167.663
167.676
167.689
167.703
167.718
167.733
167.748
167.765
167.782
167.801
167.821
167.844
167.868
167.895
167.925
167.959
167.997
168.04
168.09
168.147
168.215
168.294
168.387
168.497
168.626
168.775
168.949
169.161
169.436
169.829
170.436
171.402
172.929
175.245
178.55
182.913
167.023
167.043
167.056
167.069
167.082
167.095
167.107
167.12
167.132
167.144
167.156
167.168
167.179
167.191
167.203
167.214
167.225
167.237
167.248
167.259
167.27
167.281
167.292
167.303
167.314
167.325
167.336
167.347
167.357
167.368
167.379
167.39
167.401
167.412
167.422
167.433
167.444
167.455
167.466
167.477
167.488
167.499
167.511
167.522
167.533
167.545
167.556
167.568
167.58
167.592
167.604
167.616
167.628
167.641
167.653
167.666
167.679
167.693
167.707
167.722
167.737
167.753
167.77
167.788
167.808
167.83
167.853
167.879
167.908
167.941
167.977
168.019
168.067
168.123
168.188
168.266
168.357
168.465
168.591
168.738
168.911
169.121
169.394
169.782
170.376
171.318
172.804
175.057
178.277
182.536
167.019
167.039
167.051
167.064
167.077
167.09
167.102
167.114
167.126
167.138
167.15
167.161
167.173
167.184
167.196
167.207
167.218
167.229
167.241
167.252
167.263
167.274
167.284
167.295
167.306
167.317
167.328
167.339
167.349
167.36
167.371
167.382
167.392
167.403
167.414
167.425
167.436
167.446
167.457
167.468
167.479
167.49
167.501
167.513
167.524
167.535
167.547
167.558
167.57
167.582
167.593
167.605
167.618
167.63
167.642
167.655
167.668
167.682
167.695
167.71
167.725
167.74
167.757
167.774
167.793
167.813
167.836
167.86
167.887
167.918
167.952
167.991
168.036
168.088
168.15
168.223
168.31
168.413
168.534
168.677
168.846
169.054
169.328
169.722
170.324
171.275
172.761
174.996
178.169
182.345
167.015
167.035
167.047
167.06
167.072
167.085
167.097
167.109
167.12
167.132
167.144
167.155
167.166
167.178
167.189
167.2
167.211
167.222
167.233
167.244
167.255
167.266
167.276
167.287
167.298
167.309
167.319
167.33
167.341
167.351
167.362
167.373
167.383
167.394
167.404
167.415
167.426
167.437
167.447
167.458
167.469
167.48
167.491
167.502
167.513
167.524
167.535
167.546
167.558
167.569
167.581
167.593
167.604
167.617
167.629
167.641
167.654
167.667
167.681
167.695
167.709
167.724
167.74
167.757
167.774
167.793
167.814
167.836
167.86
167.887
167.918
167.952
167.991
168.038
168.092
168.158
168.237
168.33
168.44
168.569
168.723
168.913
169.168
169.543
170.13
171.07
172.546
174.765
177.902
182.007
167.012
167.031
167.042
167.055
167.067
167.08
167.091
167.103
167.115
167.126
167.138
167.149
167.16
167.171
167.182
167.193
167.204
167.214
167.225
167.236
167.247
167.257
167.268
167.278
167.289
167.3
167.31
167.321
167.331
167.342
167.352
167.363
167.373
167.384
167.394
167.405
167.415
167.426
167.436
167.447
167.457
167.468
167.478
167.489
167.5
167.511
167.521
167.532
167.543
167.554
167.566
167.577
167.589
167.6
167.612
167.625
167.637
167.65
167.663
167.677
167.691
167.706
167.722
167.738
167.756
167.774
167.793
167.814
167.836
167.859
167.884
167.912
167.943
167.98
168.023
168.075
168.139
168.217
168.31
168.418
168.545
168.699
168.903
169.209
169.709
170.549
171.922
174.048
177.109
181.151
167.008
167.027
167.038
167.051
167.063
167.075
167.087
167.098
167.11
167.121
167.132
167.143
167.154
167.165
167.175
167.186
167.197
167.207
167.218
167.228
167.239
167.249
167.259
167.27
167.28
167.29
167.301
167.311
167.321
167.331
167.342
167.352
167.362
167.373
167.383
167.393
167.403
167.414
167.424
167.434
167.444
167.454
167.465
167.475
167.485
167.495
167.505
167.516
167.526
167.537
167.547
167.558
167.569
167.58
167.591
167.603
167.615
167.628
167.641
167.655
167.669
167.685
167.702
167.719
167.739
167.759
167.781
167.805
167.829
167.855
167.881
167.907
167.934
167.962
167.993
168.028
168.07
168.122
168.187
168.265
168.357
168.467
168.608
168.816
169.166
169.792
170.892
172.713
175.497
179.368
167.004
167.023
167.034
167.047
167.059
167.07
167.082
167.093
167.105
167.116
167.127
167.137
167.148
167.159
167.169
167.179
167.19
167.2
167.21
167.22
167.231
167.241
167.251
167.261
167.271
167.281
167.291
167.301
167.312
167.322
167.332
167.342
167.352
167.362
167.372
167.382
167.392
167.402
167.412
167.422
167.432
167.441
167.451
167.461
167.47
167.48
167.49
167.499
167.509
167.519
167.529
167.538
167.549
167.559
167.57
167.581
167.592
167.605
167.618
167.632
167.648
167.665
167.684
167.706
167.731
167.76
167.792
167.828
167.868
167.913
167.96
168.008
168.057
168.104
168.148
168.186
168.22
168.25
168.278
168.308
168.344
168.39
168.459
168.574
168.789
169.199
169.961
171.292
173.437
176.578
167.001
167.019
167.031
167.043
167.055
167.066
167.078
167.089
167.1
167.111
167.122
167.132
167.143
167.153
167.164
167.174
167.185
167.195
167.205
167.216
167.226
167.236
167.247
167.257
167.267
167.278
167.288
167.298
167.309
167.319
167.33
167.34
167.351
167.361
167.372
167.382
167.393
167.403
167.413
167.424
167.434
167.444
167.454
167.464
167.474
167.484
167.494
167.504
167.514
167.524
167.534
167.544
167.555
167.566
167.577
167.589
167.601
167.614
167.629
167.645
167.663
167.683
167.707
167.735
167.768
167.809
167.857
167.916
167.986
168.069
168.166
168.276
168.397
168.525
168.655
168.778
168.886
168.969
169.02
169.035
169.013
168.965
168.908
168.88
168.939
169.176
169.72
170.741
172.426
174.917
166.998
167.016
167.027
167.039
167.051
167.062
167.074
167.085
167.097
167.108
167.12
167.132
167.144
167.156
167.167
167.179
167.192
167.204
167.216
167.228
167.24
167.252
167.264
167.276
167.288
167.3
167.312
167.325
167.337
167.35
167.362
167.375
167.388
167.401
167.414
167.427
167.441
167.454
167.468
167.481
167.494
167.508
167.521
167.534
167.548
167.561
167.575
167.588
167.602
167.615
167.629
167.643
167.657
167.671
167.686
167.701
167.718
167.735
167.753
167.773
167.795
167.819
167.847
167.881
167.92
167.968
168.028
168.102
168.196
168.313
168.459
168.638
168.852
169.103
169.385
169.689
169.999
170.293
170.544
170.724
170.808
170.784
170.658
170.47
170.299
170.271
170.554
171.345
172.827
175.11
166.995
167.013
167.024
167.036
167.047
167.059
167.07
167.082
167.095
167.11
167.126
167.143
167.16
167.177
167.194
167.21
167.226
167.243
167.259
167.274
167.29
167.305
167.32
167.335
167.35
167.364
167.379
167.393
167.408
167.423
167.438
167.452
167.468
167.483
167.498
167.514
167.529
167.545
167.562
167.578
167.595
167.611
167.629
167.646
167.663
167.681
167.698
167.716
167.735
167.753
167.772
167.791
167.81
167.83
167.851
167.872
167.894
167.917
167.942
167.967
167.995
168.025
168.058
168.095
168.137
168.186
168.245
168.317
168.408
168.523
168.67
168.859
169.1
169.4
169.769
170.206
170.707
171.255
171.822
172.366
172.839
173.191
173.382
173.402
173.292
173.169
173.228
173.737
174.982
177.167
166.993
167.01
167.021
167.033
167.044
167.055
167.067
167.079
167.091
167.106
167.122
167.138
167.155
167.172
167.188
167.205
167.221
167.237
167.253
167.269
167.284
167.299
167.314
167.328
167.343
167.357
167.371
167.385
167.399
167.413
167.427
167.441
167.456
167.47
167.485
167.5
167.515
167.53
167.545
167.561
167.577
167.593
167.61
167.627
167.644
167.662
167.68
167.698
167.717
167.737
167.757
167.778
167.799
167.821
167.845
167.869
167.894
167.921
167.948
167.978
168.009
168.043
168.079
168.118
168.16
168.207
168.26
168.32
168.39
168.475
168.579
168.709
168.876
169.091
169.368
169.719
170.157
170.691
171.319
172.031
172.803
173.598
174.372
175.082
175.706
176.264
176.842
177.606
178.782
180.588
166.99
167.007
167.018
167.03
167.041
167.052
167.063
167.075
167.088
167.102
167.118
167.134
167.151
167.167
167.184
167.2
167.216
167.232
167.247
167.262
167.277
167.291
167.306
167.32
167.333
167.347
167.36
167.373
167.386
167.399
167.412
167.425
167.438
167.451
167.464
167.477
167.491
167.504
167.518
167.532
167.545
167.559
167.573
167.588
167.602
167.616
167.631
167.645
167.66
167.675
167.69
167.706
167.722
167.738
167.754
167.771
167.789
167.808
167.827
167.848
167.87
167.894
167.92
167.948
167.979
168.014
168.052
168.095
168.143
168.198
168.262
168.335
168.423
168.529
168.66
168.826
169.038
169.309
169.654
170.089
170.629
171.287
172.074
173.002
174.085
175.351
176.837
178.597
180.687
183.133
166.988
167.005
167.016
167.027
167.038
167.049
167.06
167.072
167.084
167.098
167.114
167.131
167.147
167.163
167.179
167.195
167.211
167.226
167.242
167.256
167.271
167.285
167.299
167.313
167.326
167.339
167.352
167.365
167.378
167.39
167.403
167.415
167.428
167.441
167.454
167.466
167.479
167.492
167.506
167.519
167.532
167.546
167.559
167.573
167.587
167.6
167.614
167.628
167.642
167.657
167.671
167.685
167.7
167.714
167.729
167.745
167.761
167.777
167.794
167.812
167.83
167.851
167.873
167.896
167.923
167.953
167.987
168.026
168.071
168.124
168.185
168.257
168.341
168.44
168.555
168.69
168.847
169.03
169.243
169.494
169.79
170.144
170.573
171.105
171.782
172.667
173.847
175.425
177.498
180.11
166.986
167.003
167.013
167.025
167.036
167.047
167.058
167.069
167.081
167.095
167.111
167.127
167.143
167.159
167.175
167.191
167.206
167.221
167.236
167.251
167.266
167.28
167.293
167.307
167.32
167.333
167.346
167.358
167.371
167.383
167.395
167.408
167.42
167.433
167.445
167.458
167.471
167.484
167.497
167.51
167.523
167.537
167.55
167.564
167.578
167.592
167.606
167.62
167.635
167.65
167.664
167.679
167.695
167.71
167.726
167.743
167.76
167.778
167.796
167.815
167.836
167.858
167.882
167.909
167.938
167.971
168.009
168.053
168.105
168.167
168.243
168.337
168.453
168.596
168.774
168.991
169.253
169.565
169.929
170.345
170.814
171.333
171.905
172.537
173.25
174.086
175.109
176.405
178.062
180.135
166.984
167.001
167.011
167.022
167.033
167.044
167.055
167.066
167.078
167.092
167.108
167.123
167.139
167.155
167.171
167.186
167.202
167.217
167.231
167.246
167.26
167.274
167.288
167.301
167.314
167.327
167.339
167.352
167.364
167.376
167.389
167.401
167.413
167.425
167.438
167.45
167.463
167.476
167.489
167.502
167.515
167.529
167.542
167.556
167.57
167.584
167.599
167.613
167.628
167.644
167.659
167.675
167.691
167.707
167.724
167.742
167.76
167.778
167.798
167.819
167.84
167.864
167.889
167.916
167.946
167.98
168.017
168.06
168.111
168.171
168.244
168.336
168.452
168.6
168.79
169.033
169.339
169.718
170.177
170.719
171.341
172.041
172.815
173.666
174.613
175.694
176.976
178.54
180.46
182.764
166.982
166.999
167.009
167.02
167.031
167.041
167.052
167.063
167.075
167.089
167.104
167.12
167.135
167.151
167.166
167.182
167.197
167.212
167.227
167.241
167.255
167.269
167.282
167.295
167.308
167.321
167.333
167.345
167.357
167.369
167.381
167.393
167.405
167.417
167.429
167.441
167.453
167.465
167.477
167.49
167.503
167.516
167.529
167.542
167.556
167.57
167.584
167.598
167.613
167.628
167.643
167.659
167.675
167.691
167.708
167.725
167.743
167.761
167.78
167.8
167.821
167.843
167.866
167.891
167.918
167.947
167.978
168.014
168.054
168.099
168.153
168.219
168.3
168.403
168.536
168.71
168.936
169.226
169.591
170.039
170.573
171.193
171.895
172.68
173.559
174.569
175.775
177.269
179.148
181.464
166.981
166.997
167.007
167.018
167.029
167.039
167.05
167.061
167.073
167.086
167.101
167.116
167.132
167.147
167.162
167.178
167.192
167.207
167.222
167.236
167.25
167.263
167.276
167.289
167.301
167.313
167.325
167.336
167.348
167.359
167.369
167.38
167.391
167.401
167.412
167.423
167.433
167.444
167.455
167.466
167.478
167.489
167.501
167.513
167.525
167.538
167.551
167.564
167.578
167.591
167.605
167.619
167.633
167.648
167.663
167.678
167.694
167.709
167.726
167.742
167.759
167.777
167.795
167.814
167.833
167.854
167.877
167.901
167.927
167.956
167.989
168.026
168.069
168.121
168.186
168.268
168.373
168.509
168.683
168.903
169.179
169.519
169.935
170.446
171.086
171.909
172.999
174.467
176.427
178.953
166.979
166.995
167.005
167.016
167.027
167.037
167.047
167.058
167.07
167.083
167.098
167.113
167.128
167.143
167.158
167.173
167.187
167.201
167.215
167.228
167.241
167.254
167.265
167.277
167.288
167.298
167.308
167.318
167.328
167.337
167.346
167.355
167.364
167.372
167.381
167.389
167.398
167.407
167.416
167.426
167.435
167.446
167.456
167.467
167.477
167.489
167.5
167.512
167.523
167.535
167.547
167.56
167.572
167.584
167.597
167.61
167.622
167.635
167.648
167.661
167.674
167.687
167.701
167.715
167.729
167.744
167.76
167.777
167.795
167.814
167.836
167.86
167.887
167.919
167.956
168.001
168.055
168.119
168.197
168.291
168.405
168.55
168.741
169.01
169.409
170.021
170.954
172.337
174.288
176.86
166.978
166.994
167.004
167.014
167.025
167.035
167.045
167.055
167.066
167.079
167.092
167.106
167.12
167.134
167.148
167.161
167.174
167.186
167.198
167.209
167.219
167.229
167.239
167.248
167.257
167.265
167.273
167.281
167.289
167.297
167.304
167.312
167.32
167.327
167.335
167.342
167.35
167.358
167.367
167.375
167.384
167.393
167.403
167.413
167.423
167.433
167.444
167.455
167.465
167.476
167.487
167.498
167.51
167.521
167.532
167.543
167.554
167.565
167.576
167.587
167.599
167.61
167.622
167.635
167.648
167.661
167.676
167.691
167.707
167.725
167.744
167.765
167.789
167.815
167.846
167.882
167.924
167.972
168.027
168.088
168.156
168.233
168.332
168.477
168.722
169.153
169.899
171.117
172.957
175.499
166.977
166.992
167.002
167.013
167.023
167.033
167.043
167.052
167.062
167.071
167.081
167.09
167.099
167.108
167.117
167.126
167.135
167.144
167.153
167.161
167.17
167.179
167.188
167.197
167.205
167.214
167.222
167.231
167.239
167.247
167.256
167.264
167.272
167.28
167.288
167.296
167.305
167.313
167.321
167.329
167.338
167.346
167.355
167.363
167.372
167.381
167.39
167.4
167.409
167.419
167.429
167.439
167.449
167.46
167.471
167.482
167.494
167.506
167.519
167.532
167.545
167.559
167.574
167.589
167.605
167.622
167.64
167.659
167.679
167.701
167.724
167.749
167.776
167.806
167.84
167.878
167.923
167.974
168.031
168.094
168.162
168.237
168.324
168.446
168.647
169.007
169.648
170.727
172.411
174.809
166.976
166.991
167.001
167.011
167.021
167.031
167.041
167.051
167.061
167.07
167.08
167.089
167.098
167.107
167.116
167.124
167.133
167.142
167.15
167.159
167.167
167.176
167.185
167.194
167.202
167.211
167.22
167.229
167.238
167.246
167.255
167.263
167.272
167.28
167.289
167.297
167.306
167.314
167.323
167.332
167.34
167.349
167.358
167.367
167.377
167.386
167.396
167.406
167.416
167.427
167.438
167.449
167.461
167.473
167.486
167.499
167.513
167.527
167.542
167.558
167.575
167.592
167.611
167.63
167.65
167.672
167.695
167.719
167.745
167.772
167.802
167.834
167.868
167.906
167.948
167.995
168.049
168.109
168.177
168.252
168.332
168.419
168.523
168.666
168.897
169.298
169.989
171.119
172.84
175.237
166.974
166.99
166.999
167.009
167.02
167.03
167.04
167.05
167.06
167.07
167.08
167.09
167.1
167.109
167.118
167.127
167.135
167.143
167.151
167.159
167.168
167.176
167.184
167.192
167.201
167.21
167.219
167.229
167.238
167.248
167.257
167.267
167.276
167.285
167.294
167.303
167.312
167.321
167.331
167.34
167.349
167.359
167.369
167.379
167.389
167.399
167.41
167.422
167.433
167.445
167.458
167.471
167.485
167.5
167.515
167.531
167.547
167.565
167.583
167.602
167.623
167.644
167.667
167.691
167.716
167.743
167.772
167.802
167.834
167.869
167.906
167.946
167.989
168.036
168.089
168.147
168.213
168.288
168.372
168.464
168.565
168.678
168.812
168.996
169.287
169.779
170.612
171.962
174
176.819
166.973
166.988
166.998
167.008
167.018
167.028
167.037
167.047
167.057
167.068
167.078
167.089
167.099
167.11
167.12
167.13
167.14
167.149
167.157
167.165
167.173
167.18
167.187
167.194
167.202
167.209
167.217
167.226
167.235
167.244
167.254
167.265
167.276
167.287
167.298
167.309
167.319
167.329
167.338
167.348
167.358
167.368
167.378
167.389
167.4
167.411
167.422
167.434
167.446
167.459
167.473
167.487
167.502
167.517
167.534
167.551
167.569
167.588
167.608
167.629
167.652
167.676
167.701
167.727
167.755
167.785
167.817
167.851
167.888
167.927
167.969
168.014
168.063
168.117
168.176
168.243
168.317
168.402
168.497
168.603
168.72
168.852
169.007
169.211
169.513
170.003
170.813
172.112
174.074
176.803
166.973
166.988
166.998
167.008
167.017
167.027
167.035
167.044
167.052
167.06
167.069
167.078
167.088
167.098
167.109
167.12
167.132
167.144
167.155
167.166
167.177
167.186
167.195
167.203
167.21
167.217
167.223
167.228
167.234
167.24
167.248
167.257
167.267
167.28
167.293
167.308
167.322
167.335
167.346
167.356
167.366
167.376
167.386
167.396
167.407
167.417
167.429
167.44
167.452
167.465
167.478
167.492
167.507
167.522
167.538
167.555
167.574
167.593
167.613
167.635
167.658
167.682
167.708
167.736
167.765
167.796
167.829
167.865
167.903
167.944
167.988
168.035
168.087
168.143
168.205
168.274
168.352
168.439
168.538
168.648
168.77
168.906
169.062
169.258
169.532
169.956
170.639
171.73
173.387
175.722
166.973
166.989
166.999
167.009
167.019
167.028
167.035
167.042
167.048
167.052
167.055
167.059
167.062
167.067
167.073
167.081
167.091
167.104
167.118
167.135
167.152
167.17
167.188
167.206
167.222
167.236
167.248
167.258
167.265
167.27
167.272
167.274
167.277
167.282
167.29
167.303
167.318
167.334
167.348
167.359
167.368
167.375
167.384
167.392
167.401
167.41
167.42
167.43
167.441
167.453
167.466
167.479
167.493
167.509
167.525
167.543
167.561
167.581
167.602
167.625
167.649
167.674
167.701
167.73
167.76
167.792
167.827
167.863
167.902
167.943
167.987
168.035
168.086
168.142
168.203
168.271
168.347
168.433
168.528
168.635
168.753
168.883
169.032
169.212
169.455
169.818
170.392
171.299
172.676
174.623
166.976
166.99
166.998
167.006
167.013
167.02
167.025
167.029
167.031
167.032
167.032
167.029
167.026
167.023
167.02
167.019
167.021
167.028
167.038
167.054
167.075
167.101
167.13
167.163
167.198
167.235
167.272
167.309
167.343
167.373
167.395
167.408
167.41
167.402
167.387
167.369
167.354
167.345
167.344
167.348
167.354
167.36
167.366
167.373
167.381
167.39
167.4
167.411
167.422
167.435
167.449
167.464
167.48
167.497
167.515
167.534
167.555
167.577
167.6
167.625
167.651
167.678
167.707
167.737
167.768
167.801
167.836
167.872
167.91
167.95
167.993
168.038
168.087
168.14
168.198
168.262
168.333
168.413
168.502
168.602
168.712
168.833
168.97
169.134
169.353
169.676
170.18
170.973
172.175
173.873
166.98
166.99
166.991
166.99
166.985
166.977
166.967
166.956
166.946
166.936
166.927
166.921
166.916
166.913
166.911
166.912
166.915
166.921
166.931
166.945
166.964
166.989
167.02
167.059
167.105
167.161
167.227
167.303
167.387
167.476
167.562
167.638
167.69
167.708
167.686
167.626
167.538
167.444
167.367
167.326
167.32
167.331
167.343
167.35
167.36
167.372
167.384
167.398
167.412
167.427
167.444
167.461
167.48
167.5
167.521
167.543
167.567
167.592
167.618
167.646
167.675
167.705
167.736
167.769
167.802
167.836
167.872
167.908
167.945
167.983
168.023
168.064
168.108
168.155
168.206
168.263
168.327
168.398
168.479
168.57
168.67
168.78
168.905
169.054
169.251
169.543
169.999
170.716
171.804
173.343
166.98
166.988
166.983
166.97
166.946
166.912
166.868
166.817
166.763
166.71
166.662
166.623
166.597
166.585
166.587
166.601
166.627
166.662
166.702
166.745
166.789
166.834
166.879
166.926
166.977
167.035
167.106
167.191
167.294
167.415
167.546
167.678
167.793
167.87
167.888
167.837
167.718
167.558
167.4
167.296
167.266
167.294
167.327
167.334
167.348
167.363
167.379
167.396
167.413
167.432
167.451
167.472
167.495
167.518
167.543
167.57
167.598
167.627
167.658
167.691
167.725
167.76
167.796
167.834
167.871
167.91
167.948
167.986
168.024
168.062
168.099
168.137
168.174
168.213
168.255
168.3
168.352
168.411
168.48
168.558
168.647
168.745
168.857
168.991
169.169
169.434
169.852
170.514
171.521
172.95
166.962
166.983
166.992
166.993
166.98
166.949
166.896
166.82
166.724
166.611
166.49
166.369
166.259
166.168
166.105
166.073
166.075
166.109
166.17
166.253
166.35
166.454
166.56
166.664
166.763
166.858
166.953
167.051
167.154
167.265
167.38
167.49
167.582
167.639
167.649
167.607
167.522
167.42
167.332
167.283
167.272
167.29
167.316
167.33
167.346
167.365
167.384
167.404
167.425
167.447
167.471
167.496
167.522
167.551
167.581
167.613
167.647
167.683
167.72
167.76
167.802
167.845
167.889
167.935
167.981
168.028
168.074
168.12
168.164
168.206
168.245
168.282
168.316
168.347
168.378
168.41
168.446
168.487
168.536
168.596
168.667
168.75
168.847
168.966
169.128
169.372
169.76
170.379
171.328
172.679
166.919
166.968
167.022
167.09
167.165
167.239
167.301
167.338
167.339
167.297
167.208
167.074
166.902
166.706
166.501
166.304
166.129
165.99
165.895
165.849
165.852
165.899
165.984
166.099
166.236
166.388
166.549
166.716
166.886
167.056
167.22
167.37
167.492
167.572
167.599
167.572
167.503
167.419
167.348
167.312
167.299
167.309
167.329
167.346
167.365
167.385
167.406
167.429
167.453
167.478
167.506
167.534
167.565
167.598
167.634
167.672
167.712
167.754
167.8
167.848
167.898
167.951
168.006
168.063
168.122
168.181
168.241
168.3
168.357
168.412
168.462
168.508
168.548
168.581
168.609
168.632
168.652
168.673
168.698
168.73
168.773
168.83
168.904
169.005
169.151
169.377
169.745
170.336
171.247
172.55
166.877
166.935
167.031
167.179
167.385
167.647
167.956
168.293
168.633
168.948
169.207
169.384
169.457
169.418
169.266
169.012
168.677
168.285
167.867
167.449
167.059
166.715
166.434
166.225
166.09
166.029
166.038
166.108
166.231
166.395
166.587
166.79
166.987
167.157
167.282
167.353
167.377
167.372
167.364
167.366
167.368
167.374
167.382
167.389
167.407
167.429
167.451
167.474
167.499
167.526
167.556
167.587
167.621
167.658
167.697
167.739
167.784
167.833
167.885
167.94
167.998
168.06
168.125
168.193
168.265
168.338
168.413
168.49
168.566
168.641
168.712
168.779
168.84
168.892
168.936
168.969
168.992
169.008
169.017
169.025
169.036
169.056
169.094
169.162
169.281
169.488
169.84
170.417
171.312
172.595
166.882
166.903
166.979
167.122
167.359
167.705
168.172
168.757
169.443
170.201
170.987
171.751
172.436
172.994
173.384
173.58
173.571
173.364
172.98
172.449
171.808
171.097
170.353
169.611
168.901
168.247
167.668
167.18
166.792
166.51
166.335
166.262
166.282
166.375
166.517
166.675
166.818
166.932
167.044
167.176
167.304
167.409
167.471
167.481
167.482
167.501
167.521
167.542
167.566
167.592
167.621
167.652
167.686
167.724
167.764
167.809
167.856
167.907
167.962
168.021
168.084
168.151
168.222
168.297
168.376
168.46
168.547
168.638
168.731
168.826
168.921
169.016
169.107
169.194
169.273
169.344
169.403
169.45
169.484
169.505
169.516
169.521
169.531
169.562
169.644
169.818
170.148
170.714
171.609
172.906
166.939
166.909
166.909
166.942
167.037
167.223
167.528
167.977
168.582
169.344
170.243
171.248
172.31
173.372
174.376
175.267
176.001
176.547
176.89
177.028
176.969
176.728
176.326
175.782
175.117
174.35
173.5
172.59
171.643
170.69
169.762
168.896
168.132
167.509
167.067
166.835
166.807
166.875
166.774
166.604
166.61
166.764
167.099
167.493
167.617
167.575
167.61
167.624
167.646
167.669
167.694
167.723
167.755
167.791
167.83
167.872
167.919
167.969
168.023
168.081
168.143
168.21
168.281
168.357
168.437
168.522
168.613
168.708
168.808
168.912
169.021
169.134
169.25
169.368
169.486
169.604
169.719
169.83
169.933
170.026
170.106
170.173
170.231
170.294
170.391
170.569
170.899
171.468
172.364
173.647
166.98
166.942
166.894
166.832
166.767
166.716
166.701
166.749
166.886
167.136
167.517
168.034
168.682
169.445
170.296
171.203
172.133
173.055
173.944
174.781
175.551
176.244
176.852
177.362
177.764
178.041
178.176
178.15
177.946
177.549
176.947
176.134
175.106
173.865
172.425
170.862
169.504
169.631
169.95
168.996
167.958
166.733
165.729
166.63
167.811
167.655
167.687
167.702
167.719
167.739
167.761
167.786
167.814
167.845
167.88
167.919
167.961
168.006
168.056
168.109
168.167
168.228
168.294
168.364
168.438
168.517
168.6
168.689
168.782
168.881
168.986
169.097
169.215
169.339
169.471
169.611
169.759
169.916
170.081
170.252
170.428
170.607
170.79
170.987
171.219
171.53
171.99
172.693
173.74
175.196
166.936
166.924
166.896
166.847
166.772
166.672
166.548
166.409
166.266
166.134
166.032
165.976
165.982
166.06
166.218
166.456
166.772
167.161
167.619
168.139
168.718
169.354
170.045
170.788
171.579
172.415
173.288
174.193
175.121
176.064
177.014
177.968
178.929
179.897
180.845
181.593
181.333
176.718
173.489
174.868
175.729
176.754
176.637
171.146
167.006
167.909
167.721
167.77
167.771
167.786
167.801
167.819
167.841
167.865
167.893
167.924
167.959
167.996
168.037
168.082
168.13
168.181
168.236
168.295
168.357
168.423
168.493
168.566
168.643
168.725
168.811
168.902
168.998
169.101
169.211
169.331
169.46
169.602
169.758
169.928
170.113
170.316
170.54
170.797
171.108
171.511
172.06
172.823
173.867
175.233
166.837
166.824
166.822
166.817
166.81
166.797
166.775
166.742
166.695
166.634
166.562
166.483
166.401
166.322
166.251
166.191
166.146
166.117
166.102
166.101
166.114
166.139
166.177
166.228
166.293
166.372
166.467
166.58
166.714
166.877
167.075
167.316
167.606
167.956
168.375
168.869
167.767
167.726
167.735
167.734
167.741
167.751
167.762
167.776
167.791
167.809
167.83
167.853
167.878
167.906
167.936
167.968
168.002
168.038
168.078
168.119
168.164
168.211
168.262
168.317
168.375
168.436
168.501
168.57
168.642
168.72
168.802
168.89
168.984
169.086
169.195
169.312
169.436
169.567
169.708
169.867
170.068
170.35
170.776
171.434
172.417
173.801
166.779
166.731
166.712
166.695
166.69
166.697
166.717
166.748
166.79
166.839
166.895
166.956
167.022
167.092
167.168
167.25
167.339
167.433
167.529
167.626
167.719
167.806
167.886
167.962
168.037
168.116
168.2
168.286
168.365
168.428
168.476
168.522
168.587
168.683
168.819
168.993
167.633
167.616
167.616
167.617
167.621
167.627
167.634
167.642
167.652
167.662
167.675
167.689
167.707
167.727
167.749
167.774
167.802
167.832
167.866
167.902
167.94
167.982
168.026
168.072
168.122
168.174
168.229
168.287
168.347
168.411
168.478
168.549
168.624
168.705
168.791
168.883
168.979
169.079
169.187
169.31
169.469
169.706
170.087
170.702
171.649
173.007
166.81
166.74
166.694
166.643
166.598
166.56
166.533
166.518
166.517
166.527
166.547
166.576
166.614
166.661
166.719
166.789
166.872
166.968
167.073
167.18
167.28
167.368
167.437
167.493
167.544
167.609
167.706
167.843
168.007
168.169
168.303
168.411
168.534
168.682
168.863
169.072
167.527
167.502
167.498
167.495
167.496
167.498
167.503
167.509
167.517
167.528
167.54
167.554
167.57
167.588
167.609
167.631
167.656
167.683
167.712
167.744
167.778
167.814
167.852
167.893
167.935
167.981
168.028
168.078
168.13
168.185
168.243
168.305
168.371
168.442
168.517
168.598
168.683
168.772
168.867
168.978
169.123
169.343
169.701
170.288
171.203
172.525
166.897
166.841
166.793
166.732
166.667
166.603
166.544
166.495
166.46
166.44
166.437
166.448
166.473
166.511
166.56
166.621
166.693
166.776
166.863
166.949
167.023
167.078
167.115
167.142
167.181
167.255
167.382
167.555
167.744
167.928
168.099
168.264
168.445
168.646
168.868
169.098
167.455
167.427
167.422
167.416
167.415
167.416
167.419
167.424
167.432
167.441
167.452
167.465
167.48
167.497
167.515
167.535
167.557
167.581
167.607
167.635
167.664
167.696
167.73
167.765
167.803
167.843
167.885
167.93
167.976
168.026
168.078
168.135
168.195
168.261
168.331
168.407
168.487
168.572
168.663
168.77
168.911
169.124
169.472
170.038
170.922
172.199
166.967
166.948
166.918
166.875
166.819
166.754
166.684
166.616
166.554
166.506
166.473
166.459
166.465
166.488
166.527
166.582
166.649
166.727
166.809
166.889
166.956
167.001
167.02
167.023
167.031
167.072
167.166
167.311
167.474
167.646
167.83
168.031
168.253
168.494
168.743
168.982
167.409
167.378
167.372
167.366
167.363
167.363
167.366
167.371
167.378
167.387
167.397
167.41
167.424
167.44
167.457
167.476
167.496
167.518
167.542
167.568
167.595
167.623
167.654
167.686
167.721
167.757
167.796
167.836
167.88
167.926
167.975
168.028
168.086
168.148
168.216
168.29
168.368
168.452
168.542
168.648
168.788
169.001
169.345
169.903
170.768
172.014
166.98
166.99
166.988
166.978
166.957
166.924
166.882
166.832
166.778
166.726
166.68
166.644
166.623
166.618
166.629
166.657
166.7
166.756
166.823
166.894
166.963
167.021
167.061
167.081
167.09
167.106
167.152
167.237
167.348
167.488
167.66
167.862
168.089
168.329
168.568
168.794
167.385
167.35
167.343
167.336
167.333
167.333
167.335