/*--------------------------------*- C++ -*----------------------------------*\
| =========                 |                                                 |
| \\      /  F ield         | OpenFOAM: The Open Source CFD Toolbox           |
|  \\    /   O peration     | Version:  v2012                                 |
|   \\  /    A nd           | Website:  www.openfoam.com                      |
|    \\/     M anipulation  |                                                 |
\*---------------------------------------------------------------------------*/
FoamFile
{
    version     2.0;
    format      ascii;
    class       volScalarField;
    location    "600/air";
    object      ILambda_57_0;
}
// * * * * * * * * * * * * * * * * * * * * * * * * * * * * * * * * * * * * * //

dimensions      [1 0 -3 0 0 0 0];


internalField   nonuniform List<scalar> 
287104
(
166.855
166.867
166.875
166.884
166.892
166.901
166.909
166.917
166.926
166.934
166.942
166.951
166.959
166.968
166.976
166.984
166.993
167.001
167.01
167.018
167.027
167.035
167.044
167.052
167.061
167.069
167.078
167.086
167.095
167.103
167.112
167.12
167.128
167.137
167.145
167.153
167.162
167.17
167.179
167.187
167.195
167.204
167.212
167.22
167.228
167.236
167.243
167.25
167.258
167.265
167.272
167.278
167.285
167.291
167.297
167.302
167.306
167.308
167.31
167.311
167.312
167.313
167.315
167.318
167.323
167.328
167.335
167.343
167.352
167.362
167.371
167.381
167.392
167.402
167.413
167.424
167.435
167.447
167.46
167.473
167.489
167.509
167.538
167.585
167.665
167.78
167.947
168.439
170.622
177.966
166.854
166.866
166.873
166.882
166.89
166.898
166.907
166.915
166.923
166.931
166.94
166.948
166.956
166.965
166.973
166.981
166.99
166.998
167.007
167.015
167.023
167.032
167.04
167.049
167.057
167.065
167.074
167.082
167.091
167.099
167.107
167.116
167.124
167.132
167.141
167.149
167.157
167.165
167.174
167.182
167.19
167.198
167.207
167.215
167.222
167.23
167.238
167.245
167.252
167.259
167.266
167.273
167.279
167.286
167.291
167.296
167.3
167.303
167.305
167.306
167.307
167.308
167.31
167.313
167.317
167.322
167.328
167.335
167.343
167.352
167.362
167.372
167.383
167.394
167.405
167.416
167.428
167.441
167.454
167.469
167.486
167.506
167.535
167.583
167.661
167.777
167.945
168.433
170.565
177.716
166.853
166.865
166.872
166.881
166.889
166.897
166.905
166.913
166.922
166.93
166.938
166.946
166.955
166.963
166.971
166.979
166.988
166.996
167.004
167.013
167.021
167.029
167.038
167.046
167.054
167.063
167.071
167.079
167.088
167.096
167.104
167.113
167.121
167.129
167.137
167.146
167.154
167.162
167.17
167.178
167.187
167.195
167.203
167.211
167.219
167.226
167.234
167.241
167.248
167.255
167.262
167.268
167.275
167.281
167.287
167.292
167.296
167.299
167.301
167.302
167.303
167.304
167.306
167.309
167.312
167.317
167.322
167.329
167.337
167.345
167.355
167.365
167.376
167.386
167.397
167.409
167.421
167.434
167.447
167.462
167.479
167.5
167.528
167.572
167.647
167.758
167.924
168.409
170.498
177.471
166.851
166.863
166.871
166.879
166.887
166.895
166.903
166.912
166.92
166.928
166.936
166.944
166.952
166.961
166.969
166.977
166.985
166.993
167.002
167.01
167.018
167.027
167.035
167.043
167.051
167.06
167.068
167.076
167.084
167.093
167.101
167.109
167.117
167.125
167.134
167.142
167.15
167.158
167.166
167.174
167.182
167.19
167.199
167.206
167.214
167.222
167.229
167.236
167.243
167.25
167.257
167.263
167.27
167.276
167.282
167.287
167.291
167.294
167.296
167.297
167.298
167.3
167.302
167.304
167.307
167.312
167.317
167.323
167.33
167.338
167.347
167.357
167.367
167.378
167.389
167.401
167.413
167.426
167.44
167.455
167.472
167.493
167.52
167.561
167.628
167.725
167.875
168.353
170.445
177.358
166.85
166.862
166.869
166.877
166.886
166.894
166.902
166.91
166.918
166.926
166.934
166.942
166.95
166.958
166.966
166.975
166.983
166.991
166.999
167.007
167.015
167.024
167.032
167.04
167.048
167.056
167.065
167.073
167.081
167.089
167.097
167.105
167.113
167.122
167.13
167.138
167.146
167.154
167.162
167.17
167.178
167.186
167.194
167.202
167.21
167.217
167.224
167.231
167.238
167.245
167.251
167.258
167.264
167.271
167.276
167.281
167.285
167.288
167.29
167.291
167.293
167.294
167.296
167.299
167.302
167.305
167.31
167.315
167.322
167.329
167.337
167.347
167.357
167.367
167.378
167.39
167.402
167.414
167.428
167.444
167.462
167.484
167.511
167.55
167.606
167.684
167.799
168.225
170.257
177.081
166.849
166.861
166.868
166.876
166.884
166.892
166.9
166.908
166.916
166.924
166.932
166.94
166.948
166.956
166.964
166.972
166.98
166.988
166.996
167.004
167.012
167.021
167.029
167.037
167.045
167.053
167.061
167.069
167.077
167.085
167.094
167.102
167.11
167.118
167.126
167.134
167.142
167.15
167.158
167.165
167.173
167.181
167.189
167.197
167.204
167.212
167.219
167.226
167.232
167.239
167.246
167.252
167.258
167.264
167.27
167.274
167.278
167.281
167.283
167.284
167.285
167.287
167.289
167.291
167.294
167.297
167.301
167.306
167.311
167.318
167.325
167.334
167.343
167.353
167.364
167.375
167.386
167.398
167.411
167.427
167.447
167.472
167.504
167.545
167.597
167.656
167.724
168.035
169.832
176.333
166.848
166.859
166.866
166.874
166.882
166.89
166.898
166.906
166.914
166.922
166.93
166.938
166.946
166.954
166.962
166.969
166.978
166.986
166.994
167.002
167.01
167.018
167.026
167.034
167.042
167.05
167.058
167.066
167.074
167.082
167.09
167.098
167.106
167.114
167.121
167.129
167.137
167.145
167.153
167.161
167.168
167.176
167.184
167.191
167.199
167.206
167.213
167.219
167.226
167.232
167.238
167.245
167.251
167.256
167.261
167.266
167.269
167.271
167.273
167.274
167.275
167.277
167.278
167.28
167.283
167.286
167.289
167.293
167.298
167.303
167.309
167.317
167.325
167.334
167.344
167.354
167.365
167.376
167.387
167.402
167.421
167.452
167.498
167.561
167.634
167.697
167.73
167.889
169.238
174.906
166.847
166.858
166.865
166.873
166.881
166.889
166.896
166.904
166.912
166.92
166.928
166.936
166.943
166.951
166.959
166.967
166.975
166.983
166.991
166.999
167.007
167.015
167.023
167.031
167.038
167.046
167.054
167.062
167.07
167.078
167.086
167.094
167.102
167.109
167.117
167.125
167.133
167.14
167.148
167.156
167.163
167.171
167.178
167.186
167.193
167.2
167.206
167.213
167.219
167.225
167.231
167.237
167.242
167.248
167.252
167.256
167.259
167.261
167.263
167.264
167.264
167.265
167.267
167.268
167.271
167.273
167.276
167.279
167.283
167.287
167.293
167.299
167.306
167.315
167.324
167.333
167.344
167.354
167.364
167.375
167.391
167.423
167.489
167.606
167.769
167.924
167.988
168.023
168.848
173.067
166.846
166.857
166.864
166.872
166.879
166.887
166.895
166.902
166.91
166.918
166.926
166.934
166.941
166.949
166.957
166.965
166.973
166.981
166.989
166.997
167.005
167.013
167.021
167.029
167.037
167.045
167.053
167.06
167.068
167.076
167.084
167.092
167.1
167.108
167.116
167.124
167.132
167.139
167.147
167.155
167.162
167.17
167.178
167.185
167.192
167.199
167.206
167.212
167.219
167.225
167.231
167.236
167.242
167.247
167.252
167.256
167.259
167.261
167.262
167.263
167.264
167.266
167.267
167.269
167.272
167.275
167.278
167.281
167.285
167.29
167.295
167.301
167.308
167.316
167.326
167.336
167.347
167.358
167.369
167.378
167.385
167.405
167.474
167.655
167.992
168.426
168.739
168.769
169.135
172.174
166.845
166.856
166.863
166.87
166.878
166.886
166.893
166.901
166.909
166.916
166.924
166.933
166.941
166.949
166.957
166.966
166.974
166.983
166.991
166.999
167.008
167.016
167.025
167.033
167.042
167.05
167.059
167.068
167.076
167.085
167.093
167.102
167.11
167.119
167.128
167.136
167.145
167.154
167.162
167.171
167.18
167.188
167.197
167.205
167.213
167.221
167.229
167.237
167.244
167.251
167.258
167.265
167.272
167.278
167.284
167.289
167.293
167.296
167.298
167.3
167.302
167.305
167.308
167.311
167.315
167.319
167.323
167.328
167.333
167.338
167.344
167.351
167.358
167.367
167.377
167.388
167.4
167.414
167.427
167.436
167.438
167.435
167.469
167.647
168.129
168.974
169.912
170.401
170.573
172.758
166.844
166.855
166.861
166.869
166.877
166.884
166.892
166.899
166.907
166.915
166.925
166.935
166.944
166.954
166.964
166.974
166.984
166.994
167.004
167.013
167.023
167.032
167.042
167.051
167.061
167.07
167.079
167.088
167.098
167.107
167.116
167.125
167.135
167.144
167.153
167.163
167.172
167.182
167.191
167.201
167.21
167.22
167.229
167.239
167.248
167.258
167.267
167.275
167.284
167.293
167.301
167.309
167.318
167.325
167.333
167.339
167.345
167.35
167.354
167.359
167.363
167.367
167.372
167.378
167.384
167.39
167.397
167.404
167.411
167.418
167.426
167.434
167.444
167.454
167.465
167.477
167.49
167.505
167.52
167.533
167.538
167.528
167.517
167.601
168.007
169.011
170.607
172.19
173.184
175.169
166.843
166.854
166.86
166.868
166.875
166.883
166.89
166.898
166.906
166.914
166.923
166.933
166.942
166.952
166.962
166.972
166.982
166.991
167.001
167.011
167.02
167.03
167.039
167.049
167.058
167.067
167.076
167.085
167.095
167.104
167.113
167.122
167.131
167.14
167.149
167.158
167.167
167.177
167.186
167.195
167.205
167.214
167.224
167.233
167.242
167.252
167.261
167.27
167.278
167.287
167.296
167.305
167.313
167.322
167.33
167.337
167.344
167.35
167.356
167.361
167.367
167.373
167.38
167.387
167.396
167.404
167.413
167.422
167.432
167.441
167.451
167.462
167.473
167.484
167.497
167.51
167.524
167.539
167.556
167.573
167.589
167.597
167.591
167.601
167.768
168.403
169.869
172.222
175.082
178.667
166.842
166.853
166.859
166.867
166.874
166.882
166.889
166.897
166.904
166.912
166.922
166.931
166.941
166.95
166.96
166.97
166.979
166.989
166.999
167.008
167.018
167.027
167.036
167.045
167.055
167.064
167.072
167.081
167.09
167.099
167.108
167.116
167.125
167.134
167.143
167.152
167.16
167.169
167.178
167.187
167.196
167.205
167.213
167.222
167.231
167.239
167.247
167.255
167.263
167.271
167.278
167.286
167.293
167.3
167.306
167.312
167.317
167.321
167.324
167.328
167.331
167.335
167.339
167.345
167.35
167.356
167.363
167.37
167.377
167.384
167.391
167.399
167.408
167.417
167.427
167.439
167.451
167.465
167.479
167.495
167.514
167.538
167.569
167.608
167.685
167.914
168.593
170.261
173.699
179.845
166.841
166.852
166.858
166.866
166.873
166.88
166.888
166.895
166.903
166.911
166.92
166.929
166.939
166.949
166.958
166.968
166.977
166.987
166.996
167.006
167.015
167.025
167.034
167.043
167.052
167.061
167.069
167.078
167.087
167.096
167.104
167.113
167.122
167.13
167.139
167.148
167.156
167.165
167.174
167.183
167.191
167.2
167.209
167.217
167.226
167.234
167.242
167.25
167.258
167.265
167.272
167.279
167.286
167.293
167.299
167.304
167.308
167.312
167.315
167.317
167.32
167.323
167.327
167.331
167.335
167.34
167.345
167.351
167.356
167.361
167.366
167.372
167.378
167.384
167.391
167.399
167.407
167.417
167.427
167.437
167.449
167.465
167.495
167.563
167.71
167.994
168.515
169.523
171.765
176.874
166.84
166.851
166.858
166.865
166.872
166.879
166.887
166.894
166.901
166.909
166.919
166.928
166.937
166.947
166.956
166.966
166.975
166.985
166.994
167.004
167.013
167.022
167.031
167.04
167.049
167.058
167.067
167.075
167.084
167.093
167.101
167.11
167.118
167.127
167.136
167.144
167.153
167.162
167.171
167.179
167.188
167.197
167.206
167.214
167.223
167.231
167.239
167.247
167.255
167.262
167.27
167.277
167.284
167.291
167.297
167.302
167.307
167.311
167.314
167.317
167.32
167.324
167.328
167.333
167.338
167.344
167.35
167.356
167.363
167.369
167.376
167.383
167.39
167.398
167.406
167.415
167.425
167.436
167.448
167.461
167.473
167.483
167.496
167.54
167.697
168.123
169.014
170.57
173.133
177.602
166.84
166.85
166.857
166.864
166.871
166.878
166.886
166.893
166.9
166.908
166.917
166.926
166.936
166.945
166.955
166.964
166.974
166.983
166.992
167.002
167.011
167.02
167.029
167.038
167.047
167.055
167.064
167.073
167.081
167.09
167.098
167.107
167.116
167.124
167.133
167.142
167.15
167.159
167.168
167.176
167.185
167.194
167.203
167.211
167.22
167.228
167.237
167.245
167.252
167.26
167.268
167.275
167.282
167.289
167.296
167.301
167.306
167.31
167.314
167.317
167.321
167.325
167.33
167.336
167.342
167.348
167.355
167.363
167.37
167.378
167.386
167.394
167.402
167.411
167.421
167.431
167.442
167.455
167.469
167.485
167.501
167.513
167.517
167.53
167.635
168.032
169.03
170.978
174.298
179.804
166.839
166.85
166.856
166.863
166.87
166.878
166.885
166.892
166.899
166.907
166.916
166.925
166.934
166.944
166.953
166.962
166.972
166.981
166.99
167
167.009
167.018
167.027
167.035
167.044
167.053
167.062
167.07
167.079
167.087
167.096
167.104
167.113
167.121
167.13
167.138
167.147
167.156
167.164
167.173
167.181
167.19
167.199
167.207
167.216
167.224
167.232
167.24
167.248
167.255
167.263
167.27
167.278
167.285
167.291
167.297
167.301
167.306
167.309
167.313
167.316
167.321
167.325
167.331
167.337
167.343
167.35
167.357
167.365
167.372
167.38
167.387
167.395
167.403
167.412
167.421
167.431
167.442
167.454
167.468
167.483
167.497
167.504
167.507
167.553
167.794
168.52
170.127
173.141
178.484
166.839
166.849
166.855
166.863
166.87
166.877
166.884
166.891
166.898
166.906
166.915
166.924
166.933
166.942
166.952
166.961
166.97
166.979
166.988
166.998
167.007
167.016
167.024
167.033
167.042
167.05
167.059
167.067
167.076
167.084
167.092
167.101
167.109
167.117
167.125
167.133
167.141
167.149
167.158
167.166
167.174
167.182
167.191
167.199
167.207
167.215
167.222
167.23
167.237
167.245
167.252
167.259
167.266
167.272
167.278
167.283
167.287
167.291
167.294
167.296
167.299
167.303
167.306
167.311
167.316
167.321
167.326
167.332
167.337
167.342
167.348
167.353
167.359
167.364
167.37
167.376
167.383
167.391
167.4
167.411
167.423
167.437
167.453
167.47
167.502
167.602
167.911
168.75
170.873
175.812
166.838
166.848
166.855
166.862
166.869
166.876
166.883
166.89
166.897
166.905
166.914
166.923
166.932
166.941
166.95
166.959
166.968
166.977
166.986
166.995
167.004
167.013
167.021
167.03
167.038
167.046
167.054
167.062
167.07
167.077
167.085
167.093
167.1
167.108
167.116
167.123
167.131
167.138
167.146
167.153
167.161
167.169
167.176
167.184
167.192
167.199
167.207
167.214
167.221
167.227
167.234
167.24
167.247
167.252
167.257
167.262
167.265
167.268
167.27
167.271
167.273
167.275
167.278
167.281
167.284
167.288
167.291
167.295
167.298
167.302
167.306
167.309
167.313
167.317
167.321
167.326
167.332
167.339
167.348
167.359
167.373
167.389
167.411
167.441
167.484
167.548
167.659
168.008
169.395
173.756
166.838
166.848
166.854
166.861
166.868
166.875
166.882
166.889
166.896
166.904
166.912
166.921
166.93
166.938
166.947
166.956
166.964
166.973
166.981
166.989
166.997
167.005
167.013
167.02
167.028
167.035
167.043
167.05
167.057
167.064
167.071
167.078
167.085
167.092
167.1
167.107
167.114
167.122
167.129
167.136
167.144
167.151
167.159
167.166
167.174
167.181
167.188
167.195
167.201
167.208
167.214
167.22
167.226
167.231
167.236
167.239
167.242
167.244
167.245
167.246
167.246
167.248
167.249
167.251
167.253
167.256
167.259
167.262
167.264
167.267
167.27
167.273
167.276
167.28
167.284
167.29
167.297
167.306
167.318
167.333
167.351
167.374
167.403
167.442
167.496
167.564
167.635
167.803
168.763
172.556
166.838
166.848
166.854
166.861
166.868
166.875
166.882
166.889
166.896
166.903
166.91
166.917
166.924
166.931
166.938
166.945
166.952
166.959
166.967
166.974
166.981
166.988
166.996
167.003
167.01
167.018
167.025
167.032
167.039
167.047
167.054
167.06
167.067
167.075
167.082
167.09
167.098
167.105
167.113
167.12
167.127
167.135
167.142
167.149
167.156
167.163
167.17
167.176
167.182
167.188
167.194
167.199
167.205
167.209
167.214
167.217
167.22
167.221
167.222
167.223
167.224
167.225
167.227
167.229
167.231
167.234
167.237
167.239
167.242
167.245
167.248
167.252
167.255
167.26
167.265
167.272
167.281
167.293
167.308
167.328
167.353
167.384
167.423
167.474
167.543
167.628
167.715
167.87
168.692
172.099
166.837
166.847
166.854
166.861
166.867
166.874
166.881
166.888
166.895
166.902
166.909
166.916
166.923
166.93
166.937
166.944
166.951
166.958
166.966
166.973
166.98
166.987
166.994
167.002
167.009
167.016
167.023
167.03
167.038
167.045
167.053
167.06
167.067
167.074
167.081
167.089
167.097
167.105
167.112
167.12
167.127
167.134
167.142
167.149
167.156
167.163
167.17
167.177
167.183
167.189
167.195
167.201
167.206
167.211
167.216
167.219
167.222
167.224
167.226
167.227
167.228
167.229
167.231
167.234
167.236
167.239
167.242
167.245
167.248
167.251
167.254
167.258
167.262
167.267
167.273
167.282
167.292
167.306
167.325
167.348
167.379
167.417
167.466
167.531
167.618
167.726
167.843
168.047
168.965
172.501
166.837
166.847
166.853
166.86
166.867
166.874
166.881
166.888
166.894
166.901
166.908
166.915
166.922
166.929
166.936
166.943
166.95
166.957
166.964
166.972
166.979
166.986
166.993
167
167.008
167.015
167.021
167.028
167.035
167.043
167.053
167.063
167.072
167.079
167.085
167.09
167.096
167.104
167.112
167.121
167.129
167.136
167.144
167.151
167.159
167.166
167.173
167.18
167.187
167.194
167.2
167.206
167.212
167.218
167.223
167.227
167.23
167.233
167.235
167.237
167.238
167.24
167.243
167.246
167.249
167.252
167.255
167.258
167.262
167.265
167.268
167.272
167.277
167.283
167.29
167.3
167.313
167.329
167.351
167.378
167.414
167.459
167.517
167.594
167.698
167.829
167.975
168.236
169.36
173.578
166.837
166.847
166.853
166.86
166.867
166.874
166.88
166.887
166.894
166.901
166.908
166.915
166.922
166.929
166.935
166.942
166.949
166.957
166.964
166.971
166.978
166.985
166.992
166.999
167.006
167.013
167.02
167.026
167.033
167.041
167.053
167.066
167.079
167.089
167.094
167.094
167.095
167.099
167.106
167.117
167.128
167.138
167.146
167.153
167.161
167.169
167.176
167.183
167.19
167.197
167.204
167.21
167.216
167.222
167.227
167.232
167.235
167.238
167.24
167.242
167.244
167.246
167.248
167.251
167.254
167.258
167.261
167.264
167.267
167.27
167.273
167.277
167.281
167.287
167.296
167.307
167.322
167.341
167.365
167.396
167.435
167.485
167.549
167.635
167.751
167.903
168.088
168.404
169.556
173.664
166.837
166.847
166.853
166.86
166.867
166.874
166.88
166.887
166.894
166.901
166.907
166.914
166.921
166.928
166.935
166.942
166.949
166.956
166.963
166.97
166.977
166.984
166.991
166.998
167.004
167.012
167.02
167.03
167.04
167.049
167.059
167.071
167.085
167.099
167.106
167.105
167.099
167.094
167.097
167.107
167.123
167.139
167.148
167.154
167.163
167.17
167.178
167.185
167.192
167.198
167.205
167.211
167.217
167.222
167.227
167.231
167.235
167.237
167.239
167.241
167.242
167.244
167.246
167.249
167.252
167.255
167.257
167.26
167.263
167.265
167.268
167.271
167.276
167.283
167.292
167.305
167.322
167.344
167.372
167.406
167.449
167.501
167.568
167.658
167.78
167.946
168.158
168.501
169.541
173.051
166.838
166.847
166.853
166.86
166.867
166.874
166.88
166.887
166.894
166.901
166.907
166.914
166.921
166.928
166.935
166.941
166.948
166.955
166.962
166.969
166.976
166.983
166.99
166.996
167.002
167.01
167.023
167.042
167.062
167.077
167.084
167.084
167.087
167.099
167.118
167.135
167.14
167.135
167.126
167.117
167.118
167.132
167.146
167.153
167.16
167.167
167.174
167.181
167.187
167.193
167.199
167.205
167.211
167.216
167.221
167.224
167.227
167.23
167.231
167.233
167.235
167.236
167.239
167.241
167.244
167.247
167.25
167.252
167.255
167.257
167.26
167.263
167.268
167.275
167.286
167.302
167.322
167.349
167.382
167.422
167.468
167.522
167.59
167.679
167.8
167.966
168.186
168.529
169.451
172.401
166.838
166.847
166.854
166.86
166.867
166.874
166.88
166.887
166.894
166.9
166.907
166.914
166.921
166.928
166.934
166.941
166.948
166.955
166.962
166.969
166.976
166.982
166.989
166.996
167.003
167.01
167.023
167.042
167.067
167.087
167.09
167.073
167.053
167.058
167.106
167.188
167.27
167.313
167.302
167.243
167.167
167.121
167.128
167.147
167.15
167.158
167.165
167.171
167.178
167.184
167.19
167.196
167.202
167.207
167.212
167.216
167.219
167.222
167.224
167.225
167.227
167.229
167.232
167.235
167.238
167.241
167.243
167.246
167.248
167.251
167.253
167.257
167.262
167.27
167.283
167.302
167.329
167.362
167.404
167.451
167.503
167.562
167.629
167.712
167.825
167.981
168.192
168.517
169.347
171.936
166.838
166.848
166.854
166.86
166.867
166.874
166.88
166.887
166.894
166.9
166.907
166.914
166.921
166.927
166.934
166.941
166.948
166.955
166.962
166.968
166.974
166.981
166.99
167.002
167.014
167.021
167.014
166.993
166.963
166.929
166.893
166.853
166.823
166.839
166.946
167.157
167.413
167.6
167.634
167.526
167.33
167.131
167.087
167.139
167.138
167.146
167.154
167.161
167.168
167.175
167.182
167.189
167.195
167.201
167.206
167.21
167.213
167.216
167.218
167.22
167.222
167.225
167.227
167.23
167.233
167.237
167.24
167.242
167.245
167.247
167.25
167.253
167.259
167.268
167.284
167.307
167.34
167.384
167.437
167.497
167.562
167.628
167.696
167.772
167.87
168.008
168.197
168.494
169.247
171.59
166.838
166.848
166.854
166.861
166.867
166.874
166.881
166.887
166.894
166.9
166.907
166.914
166.921
166.927
166.934
166.941
166.948
166.954
166.961
166.967
166.973
166.98
166.991
167.01
167.033
167.046
167.016
166.913
166.734
166.512
166.31
166.177
166.139
166.213
166.426
166.797
167.257
167.618
167.727
167.643
167.45
167.167
167.06
167.122
167.127
167.136
167.145
167.153
167.161
167.169
167.176
167.183
167.19
167.196
167.202
167.206
167.21
167.213
167.216
167.218
167.22
167.222
167.225
167.229
167.232
167.236
167.239
167.242
167.245
167.247
167.25
167.253
167.259
167.27
167.287
167.315
167.355
167.41
167.479
167.558
167.643
167.726
167.805
167.878
167.959
168.068
168.224
168.484
169.169
171.328
166.838
166.848
166.854
166.861
166.867
166.874
166.881
166.887
166.894
166.901
166.907
166.914
166.921
166.927
166.934
166.941
166.947
166.954
166.961
166.967
166.974
166.98
166.987
167
167.025
167.056
167.058
166.963
166.712
166.31
165.855
165.496
165.35
165.444
165.744
166.197
166.709
167.104
167.248
167.269
167.287
167.193
167.107
167.104
167.118
167.133
167.14
167.149
167.158
167.166
167.174
167.182
167.189
167.196
167.202
167.207
167.211
167.214
167.217
167.219
167.222
167.224
167.228
167.231
167.235
167.239
167.243
167.246
167.249
167.252
167.255
167.259
167.265
167.276
167.295
167.326
167.373
167.439
167.524
167.626
167.738
167.851
167.955
168.041
168.113
168.191
168.302
168.512
169.131
171.151
166.839
166.848
166.854
166.861
166.868
166.874
166.881
166.887
166.894
166.901
166.907
166.914
166.921
166.927
166.934
166.941
166.947
166.953
166.96
166.969
166.979
166.986
166.98
166.959
166.94
166.972
167.097
167.3
167.472
167.463
167.207
166.806
166.48
166.395
166.54
166.759
166.893
166.868
166.746
166.746
166.947
167.117
167.174
167.144
167.113
167.138
167.148
167.155
167.165
167.173
167.181
167.188
167.196
167.203
167.209
167.214
167.218
167.222
167.225
167.227
167.23
167.233
167.237
167.241
167.245
167.249
167.253
167.257
167.261
167.264
167.267
167.271
167.277
167.288
167.307
167.34
167.391
167.466
167.565
167.689
167.83
167.982
168.128
168.253
168.345
168.408
168.471
168.615
169.163
171.082
166.839
166.848
166.854
166.861
166.868
166.874
166.881
166.887
166.894
166.901
166.907
166.914
166.921
166.927
166.934
166.941
166.947
166.953
166.96
166.972
166.988
167
166.984
166.914
166.801
166.756
166.987
167.702
168.919
170.358
171.557
172.181
172.243
172.022
171.729
171.269
170.338
168.834
167.21
166.178
166.015
166.483
167.057
167.249
167.154
167.146
167.174
167.174
167.184
167.191
167.198
167.206
167.213
167.219
167.225
167.23
167.235
167.238
167.242
167.244
167.247
167.251
167.254
167.259
167.263
167.268
167.272
167.276
167.28
167.284
167.287
167.291
167.297
167.308
167.326
167.358
167.411
167.489
167.597
167.735
167.901
168.089
168.286
168.473
168.627
168.727
168.776
168.855
169.316
171.156
166.839
166.848
166.854
166.861
166.868
166.874
166.881
166.888
166.894
166.901
166.908
166.914
166.921
166.927
166.934
166.94
166.947
166.955
166.964
166.978
166.998
167.018
167.01
166.926
166.743
166.561
166.692
167.607
169.676
172.822
176.406
179.514
181.464
182.109
181.721
180.626
178.871
176.114
172.306
168.615
166.241
165.51
166.177
167.13
167.322
167.163
167.212
167.212
167.216
167.223
167.228
167.235
167.241
167.246
167.252
167.257
167.261
167.264
167.267
167.27
167.273
167.277
167.281
167.285
167.29
167.294
167.299
167.304
167.308
167.312
167.316
167.32
167.326
167.335
167.352
167.382
167.432
167.508
167.617
167.76
167.939
168.149
168.385
168.636
168.881
169.086
169.214
169.304
169.706
171.478
166.839
166.848
166.854
166.861
166.868
166.874
166.881
166.888
166.894
166.901
166.908
166.914
166.921
166.927
166.933
166.94
166.948
166.958
166.97
166.986
167.006
167.031
167.045
167.008
166.864
166.624
166.489
166.932
168.562
171.779
176.42
181.699
186.501
189.762
190.779
189.572
187.252
185.273
182.32
177.393
172.305
167.727
165.164
166.069
167.48
167.259
167.241
167.266
167.259
167.265
167.268
167.272
167.277
167.282
167.286
167.29
167.294
167.297
167.3
167.303
167.306
167.309
167.313
167.317
167.322
167.327
167.332
167.337
167.342
167.346
167.35
167.354
167.36
167.368
167.383
167.41
167.454
167.525
167.627
167.765
167.941
168.154
168.403
168.686
169
169.327
169.631
169.906
170.444
172.253
166.839
166.848
166.854
166.861
166.868
166.874
166.881
166.888
166.894
166.901
166.908
166.914
166.921
166.927
166.934
166.941
166.948
166.957
166.968
166.982
167
167.024
167.055
167.08
167.053
166.907
166.637
166.421
166.684
167.981
170.753
175.102
180.675
186.576
191.235
192.498
189.066
185.51
185.456
184.545
182.42
178.222
170.482
165.727
166.858
167.515
167.252
167.32
167.304
167.307
167.308
167.311
167.314
167.317
167.321
167.325
167.328
167.33
167.333
167.335
167.337
167.34
167.344
167.348
167.352
167.357
167.362
167.367
167.371
167.376
167.38
167.384
167.389
167.396
167.408
167.43
167.468
167.529
167.619
167.745
167.907
168.105
168.339
168.61
168.925
169.296
169.728
170.259
171.196
173.55
166.839
166.848
166.854
166.861
166.868
166.874
166.881
166.888
166.894
166.901
166.907
166.914
166.921
166.928
166.936
166.945
166.951
166.952
166.948
166.944
166.948
166.971
167.016
167.08
167.135
167.115
166.928
166.53
166.029
165.701
165.913
167.06
169.561
173.846
180.243
188.333
194.707
185.167
173.87
176.306
179.399
185.737
192.33
179.636
165.293
167.694
167.295
167.352
167.34
167.339
167.339
167.34
167.341
167.343
167.346
167.348
167.35
167.352
167.353
167.354
167.355
167.356
167.358
167.361
167.364
167.367
167.371
167.374
167.378
167.381
167.383
167.386
167.388
167.393
167.401
167.417
167.446
167.494
167.569
167.675
167.814
167.988
168.192
168.426
168.693
169.006
169.392
169.941
171.014
173.541
166.839
166.848
166.854
166.861
166.868
166.874
166.881
166.888
166.894
166.901
166.907
166.914
166.92
166.929
166.939
166.951
166.957
166.948
166.917
166.872
166.837
166.841
166.905
167.019
167.141
167.202
167.118
166.833
166.393
165.978
165.751
165.69
165.696
165.818
166.322
167.763
167.526
167.302
167.356
167.336
167.337
167.336
167.338
167.339
167.34
167.342
167.343
167.344
167.344
167.344
167.343
167.342
167.341
167.34
167.339
167.338
167.337
167.337
167.337
167.338
167.338
167.338
167.339
167.339
167.34
167.342
167.347
167.358
167.379
167.417
167.475
167.561
167.676
167.82
167.992
168.188
168.406
168.65
168.92
169.265
170.007
172.183
166.838
166.848
166.854
166.861
166.868
166.874
166.881
166.888
166.894
166.901
166.907
166.913
166.92
166.928
166.94
166.955
166.964
166.953
166.905
166.82
166.726
166.677
166.729
166.899
167.133
167.316
167.321
167.07
166.589
166.143
166.188
166.745
167.44
168.089
168.493
168.802
167.319
167.311
167.301
167.3
167.299
167.3
167.301
167.302
167.303
167.303
167.302
167.301
167.299
167.297
167.294
167.291
167.289
167.287
167.286
167.286
167.286
167.287
167.288
167.289
167.29
167.292
167.293
167.294
167.295
167.297
167.301
167.309
167.325
167.353
167.398
167.464
167.555
167.672
167.811
167.972
168.151
168.349
168.56
168.822
169.444
171.461
166.838
166.848
166.854
166.861
166.868
166.874
166.881
166.888
166.894
166.901
166.907
166.914
166.92
166.928
166.938
166.953
166.965
166.963
166.926
166.841
166.719
166.612
166.596
166.731
166.992
167.238
167.303
167.111
166.605
165.904
165.632
166.006
166.655
167.47
168.19
168.803
167.298
167.272
167.266
167.261
167.258
167.256
167.256
167.256
167.256
167.256
167.256
167.255
167.254
167.253
167.252
167.25
167.249
167.248
167.248
167.249
167.25
167.251
167.253
167.255
167.257
167.259
167.261
167.263
167.264
167.266
167.269
167.275
167.287
167.308
167.341
167.391
167.46
167.551
167.663
167.794
167.945
168.116
168.301
168.535
169.111
171.035
166.838
166.848
166.854
166.861
166.868
166.874
166.881
166.888
166.894
166.901
166.908
166.914
166.921
166.928
166.936
166.946
166.959
166.967
166.958
166.916
166.833
166.729
166.657
166.681
166.8
166.903
166.867
166.718
166.464
166.062
165.837
166.038
166.553
167.258
168.007
168.771
167.273
167.246
167.239
167.232
167.228
167.225
167.224
167.223
167.223
167.223
167.224
167.224
167.224
167.224
167.223
167.222
167.222
167.222
167.222
167.223
167.225
167.227
167.229
167.231
167.234
167.236
167.238
167.241
167.243
167.245
167.248
167.252
167.261
167.276
167.301
167.339
167.392
167.463
167.552
167.661
167.791
167.945
168.118
168.344
168.904
170.764
166.838
166.848
166.854
166.861
166.868
166.874
166.881
166.888
166.894
166.901
166.908
166.915
166.921
166.928
166.935
166.942
166.951
166.961
166.97
166.972
166.954
166.915
166.871
166.858
166.889
166.908
166.838
166.719
166.583
166.357
166.188
166.272
166.603
167.114
167.782
168.614
167.254
167.225
167.217
167.21
167.205
167.202
167.2
167.199
167.199
167.2
167.201
167.202
167.203
167.203
167.203
167.203
167.203
167.204
167.205
167.207
167.209
167.211
167.214
167.216
167.219
167.222
167.225
167.227
167.229
167.232
167.234
167.239
167.246
167.258
167.278
167.307
167.35
167.407
167.481
167.574
167.69
167.833
168.001
168.226
168.784
170.612
166.839
166.848
166.854
166.861
166.868
166.874
166.881
166.888
166.895
166.901
166.908
166.915
166.922
166.929
166.935
166.942
166.948
166.956
166.966
166.98
166.995
167.008
167.015
167.023
167.034
167.032
166.985
166.912
166.835
166.731
166.648
166.673
166.829
167.13
167.649
168.432
167.238
167.208