/*--------------------------------*- C++ -*----------------------------------*\
| =========                 |                                                 |
| \\      /  F ield         | OpenFOAM: The Open Source CFD Toolbox           |
|  \\    /   O peration     | Version:  v2012                                 |
|   \\  /    A nd           | Website:  www.openfoam.com                      |
|    \\/     M anipulation  |                                                 |
\*---------------------------------------------------------------------------*/
FoamFile
{
    version     2.0;
    format      ascii;
    class       volScalarField;
    location    "600/air";
    object      ILambda_49_0;
}
// * * * * * * * * * * * * * * * * * * * * * * * * * * * * * * * * * * * * * //

dimensions      [1 0 -3 0 0 0 0];


internalField   nonuniform List<scalar> 
287104
(
166.736
166.793
166.847
166.902
166.955
167.008
167.059
167.11
167.16
167.209
167.258
167.305
167.353
167.4
167.446
167.492
167.537
167.582
167.627
167.671
167.715
167.759
167.802
167.845
167.888
167.931
167.973
168.015
168.057
168.099
168.14
168.181
168.223
168.263
168.304
168.345
168.385
168.426
168.466
168.506
168.546
168.585
168.625
168.664
168.704
168.743
168.782
168.821
168.86
168.898
168.937
168.975
169.013
169.052
169.09
169.128
169.165
169.203
169.241
169.278
169.316
169.353
169.391
169.428
169.465
169.502
169.539
169.577
169.614
169.651
169.688
169.725
169.762
169.799
169.836
169.873
169.91
169.947
169.985
170.022
170.06
170.098
170.137
170.176
170.216
170.257
170.3
170.347
170.401
170.483
166.68
166.669
166.661
166.656
166.652
166.649
166.647
166.645
166.644
166.643
166.642
166.642
166.642
166.642
166.643
166.644
166.645
166.646
166.648
166.649
166.651
166.653
166.656
166.658
166.66
166.663
166.666
166.669
166.672
166.675
166.678
166.681
166.685
166.688
166.692
166.695
166.699
166.703
166.707
166.711
166.715
166.719
166.723
166.727
166.731
166.736
166.74
166.745
166.749
166.754
166.758
166.763
166.768
166.772
166.777
166.782
166.787
166.792
166.797
166.802
166.807
166.812
166.818
166.823
166.828
166.833
166.839
166.844
166.85
166.855
166.861
166.866
166.872
166.878
166.883
166.889
166.895
166.9
166.906
166.912
166.918
166.924
166.93
166.936
166.941
166.947
166.953
166.959
166.964
166.973
166.691
166.692
166.693
166.696
166.699
166.704
166.709
166.716
166.722
166.728
166.734
166.74
166.747
166.753
166.759
166.765
166.771
166.777
166.783
166.789
166.795
166.801
166.807
166.814
166.82
166.826
166.832
166.838
166.844
166.85
166.856
166.862
166.868
166.874
166.88
166.886
166.892
166.898
166.904
166.91
166.917
166.923
166.929
166.935
166.941
166.947
166.953
166.959
166.965
166.971
166.977
166.983
166.989
166.995
167.002
167.008
167.014
167.02
167.026
167.032
167.038
167.044
167.05
167.057
167.063
167.069
167.075
167.081
167.087
167.093
167.099
167.105
167.112
167.118
167.124
167.13
167.136
167.142
167.148
167.154
167.16
167.166
167.172
167.178
167.184
167.189
167.195
167.201
167.205
167.214
166.692
166.694
166.696
166.699
166.702
166.706
166.711
166.718
166.725
166.732
166.74
166.747
166.755
166.763
166.77
166.778
166.785
166.793
166.8
166.808
166.815
166.823
166.83
166.838
166.845
166.853
166.86
166.868
166.875
166.882
166.89
166.897
166.905
166.912
166.919
166.927
166.934
166.941
166.949
166.956
166.963
166.971
166.978
166.985
166.992
167
167.007
167.014
167.021
167.029
167.036
167.043
167.05
167.058
167.065
167.072
167.079
167.087
167.094
167.101
167.108
167.115
167.122
167.13
167.137
167.144
167.151
167.158
167.165
167.173
167.18
167.187
167.194
167.201
167.208
167.215
167.222
167.23
167.237
167.244
167.251
167.258
167.265
167.272
167.279
167.287
167.294
167.301
167.308
167.32
166.692
166.694
166.696
166.698
166.701
166.704
166.707
166.712
166.717
166.723
166.73
166.738
166.745
166.753
166.76
166.768
166.775
166.783
166.79
166.798
166.805
166.813
166.82
166.828
166.835
166.843
166.85
166.858
166.865
166.872
166.88
166.887
166.895
166.902
166.91
166.917
166.924
166.932
166.939
166.946
166.954
166.961
166.969
166.976
166.983
166.991
166.998
167.005
167.013
167.02
167.027
167.035
167.042
167.049
167.057
167.064
167.071
167.078
167.086
167.093
167.1
167.108
167.115
167.122
167.129
167.137
167.144
167.151
167.158
167.166
167.173
167.18
167.187
167.195
167.202
167.209
167.216
167.224
167.231
167.238
167.246
167.253
167.26
167.267
167.275
167.282
167.29
167.297
167.304
167.317
166.692
166.694
166.697
166.699
166.701
166.703
166.706
166.709
166.713
166.718
166.724
166.73
166.737
166.745
166.753
166.76
166.767
166.775
166.782
166.789
166.797
166.804
166.811
166.819
166.826
166.833
166.841
166.848
166.855
166.863
166.87
166.877
166.885
166.892
166.899
166.907
166.914
166.921
166.928
166.936
166.943
166.95
166.957
166.965
166.972
166.979
166.986
166.994
167.001
167.008
167.015
167.022
167.029
167.037
167.044
167.051
167.058
167.065
167.072
167.079
167.086
167.094
167.101
167.108
167.115
167.122
167.129
167.136
167.143
167.15
167.157
167.164
167.171
167.178
167.186
167.193
167.2
167.207
167.214
167.221
167.228
167.235
167.242
167.249
167.256
167.263
167.27
167.277
167.284
167.296
166.692
166.694
166.696
166.699
166.701
166.704
166.706
166.708
166.711
166.715
166.72
166.726
166.733
166.74
166.748
166.755
166.763
166.77
166.777
166.784
166.792
166.799
166.806
166.813
166.821
166.828
166.835
166.843
166.85
166.857
166.864
166.871
166.879
166.886
166.893
166.9
166.907
166.915
166.922
166.929
166.936
166.943
166.95
166.958
166.965
166.972
166.979
166.986
166.993
167
167.007
167.014
167.021
167.028
167.035
167.042
167.049
167.055
167.062
167.069
167.076
167.083
167.09
167.097
167.103
167.11
167.117
167.124
167.131
167.137
167.144
167.151
167.157
167.164
167.171
167.177
167.184
167.19
167.197
167.203
167.21
167.216
167.223
167.229
167.235
167.242
167.248
167.255
167.26
167.271
166.692
166.694
166.696
166.699
166.701
166.704
166.706
166.709
166.711
166.714
166.719
166.724
166.731
166.738
166.746
166.753
166.761
166.768
166.775
166.782
166.789
166.797
166.804
166.811
166.818
166.826
166.833
166.84
166.847
166.854
166.861
166.869
166.876
166.883
166.89
166.897
166.904
166.911
166.918
166.925
166.932
166.939
166.946
166.953
166.96
166.967
166.974
166.981
166.988
166.995
167.001
167.008
167.015
167.022
167.028
167.035
167.041
167.048
167.055
167.061
167.068
167.074
167.08
167.087
167.093
167.1
167.106
167.112
167.118
167.125
167.131
167.137
167.143
167.149
167.155
167.161
167.167
167.173
167.179
167.185
167.191
167.197
167.202
167.208
167.214
167.22
167.225
167.231
167.236
167.246
166.692
166.694
166.696
166.699
166.701
166.704
166.706
166.709
166.711
166.714
166.719
166.724
166.73
166.738
166.745
166.753
166.76
166.767
166.775
166.782
166.789
166.796
166.803
166.811
166.818
166.825
166.832
166.839
166.846
166.854
166.861
166.868
166.875
166.882
166.889
166.896
166.903
166.91
166.917
166.924
166.93
166.937
166.944
166.951
166.958
166.964
166.971
166.978
166.984
166.991
166.997
167.004
167.01
167.017
167.023
167.029
167.036
167.042
167.048
167.054
167.06
167.067
167.073
167.079
167.085
167.091
167.097
167.103
167.109
167.115
167.121
167.127
167.133
167.139
167.145
167.15
167.156
167.162
167.168
167.173
167.179
167.185
167.19
167.196
167.202
167.207
167.213
167.219
167.224
167.233
166.692
166.694
166.696
166.698
166.701
166.703
166.706
166.709
166.711
166.715
166.719
166.724
166.731
166.738
166.746
166.753
166.761
166.768
166.776
166.783
166.791
166.798
166.805
166.813
166.82
166.827
166.835
166.842
166.849
166.857
166.864
166.871
166.878
166.885
166.893
166.9
166.907
166.914
166.922
166.929
166.936
166.943
166.95
166.957
166.964
166.971
166.978
166.985
166.992
166.999
167.005
167.012
167.019
167.025
167.032
167.038
167.045
167.051
167.057
167.064
167.07
167.076
167.082
167.088
167.094
167.101
167.106
167.112
167.118
167.124
167.13
167.136
167.142
167.147
167.153
167.159
167.165
167.17
167.176
167.181
167.187
167.192
167.198
167.203
167.209
167.214
167.22
167.226
167.231
167.24
166.692
166.694
166.696
166.698
166.701
166.703
166.706
166.708
166.711
166.715
166.72
166.726
166.734
166.743
166.751
166.76
166.769
166.777
166.785
166.794
166.802
166.81
166.818
166.826
166.834
166.842
166.85
166.858
166.866
166.873
166.881
166.889
166.897
166.905
166.913
166.92
166.928
166.936
166.944
166.952
166.96
166.968
166.976
166.984
166.992
167
167.008
167.016
167.023
167.031
167.039
167.047
167.054
167.062
167.069
167.077
167.084
167.091
167.099
167.106
167.113
167.12
167.127
167.133
167.14
167.147
167.153
167.159
167.166
167.172
167.178
167.184
167.189
167.195
167.201
167.206
167.212
167.217
167.222
167.227
167.231
167.236
167.24
167.245
167.249
167.254
167.259
167.265
167.27
167.281
166.692
166.694
166.696
166.698
166.701
166.703
166.706
166.708
166.711
166.714
166.72
166.726
166.734
166.743
166.751
166.76
166.769
166.777
166.786
166.794
166.802
166.811
166.819
166.827
166.835
166.843
166.851
166.859
166.867
166.875
166.883
166.891
166.899
166.907
166.915
166.923
166.931
166.939
166.947
166.955
166.964
166.972
166.98
166.989
166.997
167.005
167.014
167.022
167.031
167.04
167.048
167.057
167.066
167.075
167.084
167.093
167.102
167.111
167.12
167.129
167.139
167.148
167.158
167.168
167.177
167.187
167.197
167.207
167.216
167.226
167.236
167.246
167.255
167.265
167.274
167.284
167.293
167.302
167.31
167.318
167.325
167.332
167.338
167.344
167.35
167.356
167.362
167.369
167.374
167.386
166.692
166.694
166.696
166.698
166.7
166.703
166.705
166.708
166.711
166.714
166.719
166.726
166.734
166.742
166.751
166.76
166.768
166.777
166.785
166.793
166.802
166.81
166.818
166.826
166.834
166.842
166.85
166.858
166.865
166.873
166.881
166.889
166.896
166.904
166.912
166.92
166.927
166.935
166.943
166.951
166.959
166.967
166.975
166.983
166.991
166.999
167.007
167.015
167.023
167.031
167.039
167.047
167.055
167.063
167.071
167.08
167.088
167.097
167.105
167.114
167.122
167.131
167.14
167.149
167.158
167.168
167.177
167.187
167.197
167.207
167.217
167.227
167.238
167.248
167.259
167.27
167.282
167.293
167.304
167.316
167.327
167.337
167.348
167.359
167.37
167.381
167.392
167.404
167.416
167.436
166.692
166.694
166.696
166.698
166.7
166.703
166.705
166.708
166.71
166.714
166.719
166.725
166.733
166.741
166.75
166.759
166.768
166.776
166.784
166.793
166.801
166.809
166.817
166.825
166.833
166.841
166.849
166.856
166.864
166.872
166.879
166.887
166.895
166.902
166.91
166.918
166.925
166.933
166.941
166.948
166.956
166.964
166.972
166.979
166.987
166.995
167.002
167.01
167.018
167.025
167.033
167.041
167.048
167.056
167.064
167.071
167.079
167.086
167.094
167.102
167.109
167.117
167.124
167.132
167.139
167.147
167.155
167.162
167.17
167.177
167.185
167.193
167.2
167.208
167.216
167.224
167.231
167.239
167.247
167.255
167.262
167.269
167.277
167.284
167.293
167.301
167.31
167.32
167.329
167.347
166.692
166.694
166.696
166.698
166.7
166.703
166.705
166.707
166.71
166.713
166.718
166.725
166.733
166.741
166.75
166.758
166.767
166.775
166.784
166.792
166.8
166.808
166.816
166.824
166.832
166.84
166.847
166.855
166.863
166.87
166.878
166.886
166.893
166.901
166.908
166.916
166.924
166.931
166.939
166.947
166.954
166.962
166.97
166.978
166.985
166.993
167.001
167.008
167.016
167.023
167.031
167.039
167.046
167.054
167.061
167.069
167.076
167.084
167.091
167.099
167.106
167.114
167.121
167.129
167.136
167.143
167.151
167.158
167.165
167.173
167.18
167.187
167.194
167.201
167.208
167.215
167.222
167.229
167.236
167.242
167.248
167.254
167.26
167.266
167.272
167.278
167.284
167.292
167.298
167.311
166.692
166.694
166.696
166.698
166.7
166.702
166.705
166.707
166.71
166.713
166.718
166.725
166.732
166.741
166.749
166.758
166.766
166.775
166.783
166.791
166.799
166.807
166.815
166.823
166.831
166.839
166.846
166.854
166.862
166.869
166.877
166.884
166.892
166.9
166.907
166.915
166.922
166.93
166.938
166.945
166.953
166.961
166.969
166.976
166.984
166.992
166.999
167.007
167.015
167.022
167.03
167.038
167.046
167.053
167.061
167.069
167.076
167.084
167.092
167.099
167.107
167.115
167.123
167.13
167.138
167.146
167.154
167.162
167.17
167.178
167.186
167.194
167.202
167.21
167.218
167.226
167.235
167.243
167.251
167.259
167.267
167.275
167.283
167.291
167.299
167.307
167.316
167.325
167.334
167.351
166.692
166.694
166.696
166.698
166.7
166.702
166.705
166.707
166.71
166.713
166.718
166.724
166.732
166.74
166.749
166.757
166.766
166.774
166.782
166.79
166.798
166.806
166.814
166.822
166.83
166.838
166.845
166.853
166.861
166.868
166.876
166.883
166.891
166.898
166.906
166.914
166.921
166.929
166.937
166.944
166.952
166.96
166.967
166.975
166.983
166.991
166.998
167.006
167.014
167.022
167.029
167.037
167.045
167.053
167.061
167.069
167.076
167.084
167.092
167.1
167.108
167.117
167.125
167.133
167.141
167.149
167.158
167.166
167.175
167.183
167.192
167.201
167.21
167.219
167.228
167.237
167.246
167.255
167.265
167.274
167.282
167.291
167.299
167.307
167.316
167.325
167.333
167.343
167.352
167.368
166.692
166.694
166.696
166.698
166.7
166.702
166.704
166.707
166.709
166.713
166.717
166.724
166.731
166.74
166.748
166.757
166.765
166.773
166.781
166.789
166.797
166.805
166.813
166.821
166.829
166.836
166.844
166.852
166.859
166.867
166.874
166.882
166.889
166.897
166.904
166.912
166.92
166.927
166.935
166.942
166.95
166.957
166.965
166.973
166.98
166.988
166.995
167.003
167.011
167.018
167.026
167.034
167.042
167.049
167.057
167.065
167.073
167.081
167.089
167.096
167.104
167.112
167.12
167.128
167.137
167.145
167.153
167.161
167.169
167.177
167.186
167.194
167.202
167.21
167.218
167.227
167.235
167.242
167.25
167.258
167.264
167.271
167.277
167.283
167.289
167.295
167.301
167.308
167.314
167.327
166.692
166.694
166.696
166.698
166.7
166.702
166.704
166.707
166.709
166.712
166.717
166.723
166.731
166.739
166.747
166.756
166.764
166.772
166.78
166.788
166.796
166.804
166.812
166.82
166.827
166.835
166.842
166.85
166.857
166.865
166.872
166.879
166.886
166.894
166.901
166.908
166.915
166.922
166.93
166.937
166.944
166.951
166.958
166.966
166.973
166.98
166.988
166.995
167.002
167.01
167.017
167.025
167.032
167.04
167.047
167.054
167.062
167.069
167.076
167.084
167.091
167.098
167.106
167.113
167.12
167.127
167.135
167.142
167.149
167.156
167.163
167.169
167.176
167.183
167.189
167.196
167.202
167.208
167.214
167.219
167.224
167.228
167.232
167.237
167.241
167.246
167.251
167.256
167.26
167.27
166.692
166.694
166.695
166.697
166.7
166.702
166.704
166.706
166.709
166.712
166.717
166.723
166.73
166.738
166.747
166.755
166.763
166.771
166.779
166.787
166.794
166.802
166.809
166.816
166.823
166.83
166.837
166.844
166.851
166.858
166.865
166.872
166.879
166.886
166.892
166.899
166.906
166.913
166.919
166.926
166.933
166.94
166.947
166.954
166.961
166.968
166.976
166.983
166.99
166.997
167.004
167.011
167.018
167.025
167.032
167.039
167.046
167.052
167.059
167.065
167.072
167.078
167.085
167.091
167.097
167.103
167.11
167.116
167.122
167.128
167.134
167.139
167.145
167.151
167.157
167.162
167.167
167.173
167.178
167.183
167.187
167.191
167.196
167.2
167.204
167.209
167.214
167.219
167.223
167.232
166.692
166.694
166.695
166.697
166.699
166.702
166.704
166.706
166.709
166.712
166.716
166.721
166.727
166.734
166.741
166.749
166.756
166.763
166.77
166.777
166.784
166.79
166.797
166.804
166.811
166.818
166.825
166.832
166.839
166.846
166.852
166.859
166.866
166.873
166.88
166.886
166.893
166.9
166.907
166.913
166.92
166.927
166.933
166.94
166.947
166.954
166.96
166.967
166.973
166.98
166.987
166.993
167
167.006
167.012
167.019
167.025
167.031
167.037
167.044
167.05
167.056
167.062
167.068
167.074
167.08
167.086
167.092
167.098
167.103
167.109
167.115
167.121
167.126
167.132
167.138
167.143
167.149
167.154
167.16
167.165
167.17
167.176
167.181
167.186
167.191
167.197
167.202
167.207
167.216
166.692
166.694
166.695
166.697
166.699
166.701
166.704
166.706
166.708
166.711
166.715
166.72
166.726
166.733
166.74
166.748
166.755
166.761
166.768
166.775
166.782
166.789
166.796
166.802
166.809
166.816
166.823
166.83
166.837
166.843
166.85
166.857
166.864
166.871
166.877
166.884
166.891
166.898
166.904
166.911
166.918
166.924
166.931
166.938
166.944
166.951
166.957
166.964
166.97
166.977
166.983
166.99
166.996
167.002
167.009
167.015
167.021
167.027
167.033
167.04
167.046
167.052
167.058
167.064
167.07
167.076
167.082
167.088
167.093
167.099
167.105
167.111
167.117
167.123
167.128
167.134
167.14
167.146
167.151
167.157
167.162
167.168
167.173
167.179
167.184
167.19
167.196
167.201
167.206
167.215
166.692
166.694
166.695
166.697
166.699
166.701
166.703
166.706
166.708
166.711
166.715
166.72
166.726
166.733
166.74
166.747
166.754
166.761
166.768
166.775
166.781
166.788
166.795
166.802
166.809
166.816
166.823
166.829
166.836
166.843
166.85
166.857
166.863
166.87
166.877
166.884
166.891
166.898
166.904
166.911
166.918
166.924
166.931
166.938
166.944
166.951
166.958
166.964
166.971
166.977
166.984
166.991
166.997
167.004
167.01
167.016
167.023
167.029
167.036
167.042
167.048
167.055
167.061
167.067
167.074
167.08
167.086
167.092
167.099
167.105
167.111
167.117
167.123
167.13
167.136
167.142
167.148
167.154
167.16
167.166
167.172
167.178
167.184
167.19
167.196
167.202
167.208
167.214
167.219
167.229
166.692
166.694
166.695
166.697
166.699
166.701
166.703
166.706
166.708
166.711
166.715
166.72
166.726
166.733
166.74
166.747
166.754
166.761
166.767
166.774
166.781
166.788
166.795
166.801
166.808
166.815
166.822
166.829
166.836
166.842
166.849
166.856
166.863
166.87
166.877
166.883
166.89
166.897
166.904
166.91
166.917
166.924
166.931
166.937
166.944
166.95
166.957
166.964
166.97
166.977
166.984
166.99
166.997
167.003
167.01
167.017
167.023
167.03
167.036
167.043
167.049
167.056
167.062
167.069
167.075
167.082
167.088
167.095
167.101
167.108
167.114
167.121
167.127
167.133
167.14
167.146
167.153
167.159
167.165
167.172
167.178
167.184
167.191
167.197
167.203
167.21
167.216
167.222
167.228
167.238
166.692
166.693
166.695
166.697
166.699
166.701
166.703
166.705
166.708
166.711
166.714
166.719
166.725
166.732
166.739
166.746
166.753
166.76
166.767
166.774
166.781
166.787
166.794
166.801
166.808
166.815
166.821
166.828
166.835
166.842
166.849
166.856
166.862
166.869
166.876
166.883
166.89
166.896
166.903
166.91
166.916
166.923
166.929
166.936
166.943
166.949
166.956
166.963
166.969
166.976
166.983
166.989
166.996
167.003
167.009
167.016
167.023
167.029
167.036
167.042
167.049
167.055
167.062
167.068
167.075
167.081
167.088
167.095
167.101
167.108
167.114
167.121
167.127
167.133
167.14
167.146
167.153
167.159
167.166
167.172
167.178
167.185
167.191
167.198
167.204
167.211
167.217
167.224
167.229
167.24
166.692
166.693
166.695
166.697
166.699
166.701
166.703
166.705
166.707
166.71
166.714
166.719
166.725
166.732
166.739
166.746
166.753
166.76
166.767
166.773
166.78
166.787
166.794
166.801
166.807
166.814
166.821
166.828
166.835
166.841
166.848
166.855
166.862
166.869
166.875
166.882
166.889
166.896
166.902
166.909
166.915
166.921
166.928
166.934
166.941
166.948
166.954
166.961
166.968
166.974
166.981
166.988
166.994
167.001
167.007
167.014
167.021
167.027
167.034
167.04
167.047
167.053
167.06
167.066
167.073
167.08
167.086
167.093
167.099
167.106
167.112
167.119
167.125
167.132
167.138
167.144
167.151
167.157
167.164
167.17
167.177
167.183
167.189
167.196
167.202
167.209
167.215
167.222
167.228
167.238
166.692
166.693
166.695
166.697
166.699
166.701
166.703
166.705
166.707
166.71
166.714
166.719
166.725
166.732
166.739
166.746
166.753
166.76
166.766
166.773
166.78
166.787
166.793
166.8
166.807
166.814
166.82
166.827
166.834
166.841
166.848
166.854
166.861
166.868
166.875
166.882
166.889
166.895
166.902
166.91
166.917
166.924
166.93
166.934
166.94
166.945
166.952
166.959
166.965
166.972
166.979
166.985
166.992
166.999
167.005
167.012
167.018
167.025
167.032
167.038
167.045
167.051
167.058
167.064
167.071
167.077
167.084
167.09
167.097
167.103
167.11
167.116
167.123
167.129
167.136
167.142
167.149
167.155
167.162
167.168
167.174
167.181
167.187
167.193
167.2
167.206
167.213
167.219
167.225
167.235
166.692
166.693
166.695
166.697
166.699
166.701
166.703
166.705
166.707
166.71
166.714
166.719
166.725
166.731
166.738
166.746
166.752
166.759
166.766
166.773
166.779
166.786
166.793
166.8
166.807
166.813
166.82
166.827
166.834
166.84
166.847
166.854
166.861
166.868
166.875
166.882
166.887
166.9
166.875
166.85
166.845
166.842
166.873
166.91
166.932
166.944
166.951
166.957
166.963
166.97
166.976
166.983
166.99
166.996
167.003
167.009
167.016
167.023
167.029
167.036
167.042
167.049
167.055
167.062
167.068
167.075
167.081
167.088
167.095
167.101
167.107
167.114
167.12
167.127
167.133
167.14
167.146
167.152
167.159
167.165
167.172
167.178
167.184
167.191
167.197
167.203
167.21
167.216
167.222
167.232
166.692
166.693
166.695
166.697
166.699
166.7
166.703
166.705
166.707
166.71
166.713
166.718
166.724
166.731
166.738
166.745
166.752
166.759
166.766
166.772
166.779
166.786
166.793
166.799
166.806
166.813
166.82
166.827
166.833
166.84
166.847
166.854
166.861
166.867
166.874
166.881
166.893
166.838
167.203
167.473
167.544
167.62
167.305
167.024
166.935
166.931
166.942
166.951
166.959
166.966
166.973
166.979
166.986
166.993
166.999
167.006
167.013
167.019
167.026
167.032
167.039
167.046
167.052
167.059
167.065
167.072
167.078
167.085
167.091
167.098
167.104
167.111
167.117
167.124
167.13
167.137
167.143
167.149
167.156
167.162
167.168
167.175
167.181
167.187
167.194
167.2
167.206
167.213
167.219
167.229
166.692
166.693
166.695
166.697
166.698
166.7
166.702
166.705
166.707
166.71
166.713
166.718
166.724
166.731
166.738
166.745
166.752
166.759
166.765
166.772
166.779
166.786
166.792
166.799
166.806
166.813
166.819
166.826
166.833
166.84
166.847
166.854
166.86
166.867
166.874
166.88
166.894
166.832
167.236
167.492
167.502
167.522
167.2
166.967
166.921
166.929
166.936
166.943
166.951
166.959
166.966
166.973
166.98
166.987
166.994
167.001
167.008
167.015
167.022
167.028
167.035
167.042
167.048
167.055
167.062
167.068
167.075
167.081
167.088
167.095
167.101
167.108
167.114
167.121
167.127
167.134
167.14
167.147
167.153
167.159
167.166
167.172
167.178
167.185
167.191
167.197
167.204
167.21
167.216
167.226
166.692
166.693
166.695
166.697
166.698
166.7
166.702
166.704
166.707
166.71
166.713
166.718
166.724
166.731
166.738
166.745
166.752
166.758
166.765
166.772
166.779
166.785
166.792
166.799
166.806
166.812
166.819
166.826
166.833
166.84
166.847
166.854
166.86
166.867
166.874
166.881
166.89
166.853
167.18
167.318
167.23
167.169
166.864
166.768
166.859
166.925
166.937
166.937
166.943
166.951
166.96
166.967
166.975
166.982
166.989
166.997
167.004
167.011
167.018
167.025
167.032
167.038
167.045
167.052
167.059
167.065
167.072
167.079
167.086
167.092
167.099
167.106
167.112
167.119
167.125
167.132
167.138
167.145
167.151
167.158
167.164
167.171
167.177
167.184
167.19
167.197
167.203
167.21
167.215
167.226
166.692
166.693
166.695
166.697
166.698
166.7
166.702
166.704
166.707
166.709
166.713
166.718
166.724
166.731
166.738
166.745
166.752
166.758
166.765
166.772
166.779
166.785
166.792
166.799
166.806
166.812
166.819
166.826
166.833
166.84
166.847
166.854
166.861
166.868
166.874
166.882
166.889
166.856
167.195
167.323
167.214
167.147
166.766
166.656
166.804
166.917
166.94
166.937
166.94
166.948
166.956
166.964
166.972
166.98
166.987
166.994
167.002
167.009
167.016
167.023
167.03
167.037
167.044
167.051
167.058
167.065
167.072
167.079
167.085
167.092
167.099
167.106
167.112
167.119
167.126
167.133
167.139
167.146
167.153
167.159
167.166
167.172
167.179
167.186
167.192
167.199
167.205
167.212
167.218
167.229
166.692
166.693
166.695
166.697
166.698
166.7
166.702
166.704
166.707
166.709
166.713
166.718
166.724
166.731
166.738
166.745
166.752
166.758
166.765
166.772
166.778
166.785
166.792
166.799
166.806
166.812
166.819
166.826
166.833
166.84
166.847
166.854
166.861
166.868
166.875
166.882
166.888
166.888
166.977
166.989
166.909
166.832
166.712
166.731
166.847
166.923
166.942
166.941
166.945
166.952
166.96
166.967
166.975
166.982
166.989
166.996
167.004
167.011
167.018
167.025
167.032
167.039
167.046
167.053
167.06
167.067
167.075
167.082
167.089
167.096
167.103
167.11
167.117
167.124
167.131
167.138
167.145
167.152
167.158
167.165
167.172
167.179
167.186
167.192
167.199
167.206
167.213
167.22
167.226
167.238
166.692
166.693
166.695
166.697
166.698
166.7
166.702
166.704
166.707
166.709
166.713
166.718
166.724
166.731
166.738
166.745
166.751
166.758
166.765
166.772
166.778
166.785
166.792
166.799
166.806
166.812
166.819
166.826
166.833
166.84
166.847
166.854
166.861
166.867
166.874
166.882
166.889
166.899
166.899
166.891
166.872
166.845
166.843
166.873
166.911
166.936
166.946
166.951
166.956
166.963
166.969
166.976
166.983
166.99
166.996
167.003
167.01
167.017
167.024
167.032
167.039
167.046
167.053
167.061
167.068
167.075
167.083
167.09
167.098
167.105
167.113
167.12
167.127
167.135
167.142
167.15
167.157
167.164
167.171
167.179
167.186
167.193
167.2
167.207
167.214
167.222
167.229
167.237
167.243
167.256
166.692
166.693
166.695
166.697
166.698
166.7
166.702
166.704
166.707
166.709
166.713
166.718
166.724
166.731
166.738
166.745
166.751
166.758
166.765
166.772
166.778
166.785
166.792
166.799
166.806
166.812
166.819
166.826
166.833
166.84
166.847
166.853
166.86
166.867
166.874
166.883
166.892
166.901
166.903
166.908
166.917
166.924
166.935
166.939
166.951
166.959
166.962
166.964
166.969
166.976
166.983
166.99
166.997
167.003
167.01
167.017
167.023
167.03
167.038
167.045
167.052
167.06
167.068
167.076
167.083
167.092
167.1
167.108
167.116
167.124
167.132
167.141
167.149
167.157
167.165
167.173
167.181
167.19
167.198
167.205
167.213
167.221
167.229
167.237
167.245
167.253
167.261
167.27
167.277
167.291
166.692
166.693
166.695
166.697
166.698
166.7
166.702
166.704
166.707
166.709
166.713
166.718
166.724
166.731
166.738
166.745
166.751
166.758
166.765
166.772
166.778
166.785
166.792
166.799
166.806
166.812
166.819
166.826
166.832
166.839
166.846
166.852
166.859
166.867
166.876
166.886
166.899
166.913
166.924
166.935
166.948
166.961
166.973
167.003
166.833
166.872
166.957
167.006
167.02
167.02
167.02
167.023
167.027
167.032
167.037
167.042
167.048
167.055
167.062
167.069
167.077
167.086
167.094
167.103
167.112
167.121
167.131
167.14
167.149
167.158
167.166
167.175
167.183
167.191
167.199
167.207
167.214
167.222
167.229
167.236
167.244
167.251
167.259
167.267
167.274
167.283
167.291
167.3
167.308
167.323
166.692
166.693
166.695
166.697
166.698
166.7
166.702
166.704
166.707
166.709
166.713
166.718
166.724
166.731
166.738
166.745
166.751
166.758
166.765
166.772
166.778
166.785
166.792
166.799
166.806
166.812
166.819
166.828
166.835
166.843
166.849
166.854
166.86
166.868
166.877
166.894
169.926
167.694
167.077
167.001
167.033
167.059
167.068
167.068
167.068
167.07
167.073
167.078
167.084
167.09
167.097
167.104
167.112
167.12
167.127
167.134
167.141
167.147
167.154
167.16
167.166
167.172
167.178
167.184
167.19
167.196
167.202
167.208
167.215
167.221
167.228
167.235
167.242
167.249
167.256
167.263
167.271
167.279
167.287
167.295
167.303
167.316
166.692
166.693
166.695
166.697
166.698
166.7
166.702
166.704
166.707
166.709
166.713
166.718
166.724
166.731
166.738
166.745
166.751
166.758
166.765
166.772
166.778
166.785
166.792
166.799
166.805
166.816
166.801
166.784
166.779
166.776
166.801
166.832
166.854
166.869
166.88
166.902
170.451
168.355
167.378
167.05
167.017
167.061
167.089
167.094
167.091
167.091
167.093
167.095
167.098
167.102
167.107
167.111
167.116
167.121
167.126
167.131
167.136
167.141
167.146
167.151
167.156
167.161
167.166
167.172
167.177
167.183
167.189
167.195
167.201
167.208
167.214
167.221
167.227
167.234
167.241
167.248
167.255
167.262
167.27
167.277
167.284
167.296
166.692
166.693
166.695
166.697
166.698
166.7
166.702
166.704
166.707
166.709
166.713
166.718
166.724
166.731
166.738
166.744
166.751
166.758
166.765
166.772
166.778
166.785
166.792
166.798
166.81
166.771
167.032
167.244
167.324
167.418
167.174
166.945
166.868
166.862
166.875
166.907
170.286
168.418
167.484
167.082
167.002
167.044
167.08
167.087
167.084
167.083
167.084
167.085
167.088
167.091
167.094
167.098
167.102
167.106
167.11
167.115
167.119
167.124
167.129
167.134
167.139
167.144
167.149
167.155
167.161
167.166
167.172
167.178
167.184
167.191
167.197
167.203
167.21
167.216
167.223
167.23
167.236
167.243
167.25
167.257
167.263
167.274
166.692
166.693
166.695
166.697
166.698
166.7
166.702
166.704
166.707
166.709
166.713
166.718
166.724
166.731
166.737
166.744
166.751
166.758
166.765
166.771
166.778
166.785
166.792
166.798
166.808
166.778
167.012
167.144
167.126
167.136
166.918
166.816
166.84
166.864
166.874
166.909
170.122
168.308
167.455
167.075
166.991
167.028
167.063
167.07
167.067
167.066
167.066
167.068
167.071
167.074
167.077
167.08
167.084
167.088
167.092
167.097
167.101
167.106
167.111
167.116
167.121
167.127
167.132
167.138
167.143
167.149
167.155
167.161
167.167
167.173
167.18
167.186
167.192
167.199
167.205
167.212
167.218
167.225
167.231
167.238
167.244
167.254
166.692
166.693
166.695
166.697
166.698
166.7
166.702
166.704
166.707
166.709
166.713
166.718
166.724
166.731
166.737
166.744
166.751
166.758
166.765
166.771
166.778
166.785
166.792
166.799
166.803
166.806
166.933
166.902
166.743
166.631
166.422
166.512
166.74
166.858
166.878
166.906
170.07
168.235
167.409
167.057
166.981
167.016
167.047
167.053
167.05
167.049
167.049
167.051
167.054
167.057
167.06
167.063
167.067
167.071
167.076
167.08
167.085
167.09
167.095
167.1
167.105
167.111
167.116
167.122
167.128
167.133
167.139
167.145
167.151
167.158
167.164
167.17
167.176
167.182
167.189
167.195
167.201
167.208
167.214
167.22
167.226
167.236
166.692
166.693
166.695
166.697
166.698
166.7
166.702
166.704
166.707
166.709
166.713
166.718
166.724
166.73
166.737
166.744
166.751
166.758
166.765
166.771
166.778
166.785
166.792
166.799
166.801
166.816
166.921
166.846
166.649
166.517
166.228
166.33
166.655
166.843
166.879
166.895
170.123
168.209
167.374
167.041
166.975
167.007