/*--------------------------------*- C++ -*----------------------------------*\
| =========                 |                                                 |
| \\      /  F ield         | OpenFOAM: The Open Source CFD Toolbox           |
|  \\    /   O peration     | Version:  v2012                                 |
|   \\  /    A nd           | Website:  www.openfoam.com                      |
|    \\/     M anipulation  |                                                 |
\*---------------------------------------------------------------------------*/
FoamFile
{
    version     2.0;
    format      ascii;
    class       volScalarField;
    location    "600/air";
    object      k;
}
// * * * * * * * * * * * * * * * * * * * * * * * * * * * * * * * * * * * * * //

dimensions      [0 2 -2 0 0 0 0];


internalField   nonuniform List<scalar> 
287104
(
0.0834013
0.0717041
0.0633095
0.0569922
0.052082
0.0481713
0.0449947
0.0423721
0.0401766
0.0383167
0.0367248
0.0353498
0.0341528
0.0331032
0.0321769
0.0313548
0.0306212
0.0299635
0.0293712
0.0288355
0.0283493
0.0279063
0.0275014
0.0271302
0.0267888
0.0264741
0.026183
0.0259133
0.0256626
0.0254292
0.0252112
0.0250072
0.024816
0.0246361
0.0244666
0.0243065
0.0241548
0.0240109
0.0238738
0.0237429
0.0236177
0.0234976
0.0233819
0.0232704
0.0231626
0.023058
0.0229565
0.0228576
0.0227612
0.0226671
0.022575
0.0224849
0.0223966
0.0223101
0.0222252
0.0221419
0.0220601
0.0219799
0.0219012
0.021824
0.0217483
0.0216741
0.0216013
0.0215299
0.02146
0.0213915
0.0213243
0.0212585
0.0211939
0.0211306
0.0210684
0.0210072
0.0209471
0.0208877
0.020829
0.0207709
0.0207132
0.0206555
0.0205977
0.0205395
0.0204804
0.0204199
0.0203574
0.0202918
0.0202216
0.0201442
0.0200566
0.0199471
0.019819
0.0195226
0.0833979
0.0716976
0.0633006
0.0569813
0.0520697
0.0481578
0.0449804
0.042357
0.0401609
0.0383005
0.0367083
0.0353332
0.0341361
0.0330865
0.0321604
0.0313385
0.0306053
0.0299479
0.0293559
0.0288206
0.0283348
0.0278922
0.0274877
0.0271169
0.0267761
0.0264618
0.0261713
0.0259021
0.0256521
0.0254194
0.0252022
0.0249992
0.0248088
0.0246301
0.0244617
0.0243028
0.0241525
0.0240099
0.0238743
0.0237449
0.0236212
0.0235026
0.0233886
0.0232786
0.0231723
0.0230692
0.022969
0.0228715
0.0227764
0.0226834
0.0225925
0.0225033
0.0224158
0.02233
0.0222457
0.0221629
0.0220816
0.0220016
0.0219231
0.021846
0.0217703
0.021696
0.021623
0.0215515
0.0214813
0.0214124
0.0213449
0.0212786
0.0212136
0.0211498
0.0210871
0.0210254
0.0209647
0.0209047
0.0208454
0.0207866
0.0207281
0.0206697
0.0206111
0.020552
0.0204919
0.0204304
0.0203668
0.0203
0.0202287
0.0201504
0.0200619
0.0199521
0.019824
0.0195311
0.0833965
0.0716948
0.0632968
0.0569766
0.0520642
0.0481515
0.0449734
0.0423495
0.0401529
0.0382921
0.0366996
0.0353243
0.0341271
0.0330776
0.0321516
0.0313299
0.0305968
0.0299396
0.0293479
0.0288129
0.0283273
0.027885
0.0274808
0.0271103
0.0267698
0.0264559
0.0261659
0.0258972
0.0256477
0.0254156
0.0251992
0.0249969
0.0248074
0.0246296
0.0244623
0.0243045
0.0241553
0.024014
0.0238797
0.0237518
0.0236295
0.0235124
0.0233998
0.0232913
0.0231865
0.0230849
0.0229863
0.0228902
0.0227966
0.022705
0.0226155
0.0225277
0.0224416
0.0223571
0.0222742
0.0221927
0.0221126
0.022034
0.0219568
0.021881
0.0218066
0.0217336
0.021662
0.0215918
0.021523
0.0214555
0.0213894
0.0213246
0.0212611
0.0211987
0.0211375
0.0210774
0.0210182
0.0209597
0.020902
0.0208447
0.0207878
0.0207308
0.0206736
0.0206159
0.0205571
0.0204967
0.0204342
0.0203685
0.0202983
0.0202212
0.0201341
0.0200261
0.0199003
0.0196144
0.0833952
0.0716918
0.0632923
0.0569707
0.052057
0.0481431
0.0449638
0.0423388
0.0401413
0.0382798
0.0366866
0.035311
0.0341136
0.0330641
0.0321381
0.0313165
0.0305835
0.0299265
0.0293348
0.0287999
0.0283144
0.0278722
0.0274681
0.0270977
0.0267573
0.0264436
0.0261538
0.0258854
0.0256364
0.0254047
0.0251889
0.0249873
0.0247986
0.0246217
0.0244554
0.0242987
0.0241508
0.0240108
0.0238779
0.0237514
0.0236306
0.023515
0.0234039
0.023297
0.0231936
0.0230935
0.0229962
0.0229015
0.022809
0.0227186
0.02263
0.0225431
0.0224579
0.0223741
0.0222917
0.0222108
0.0221312
0.0220529
0.021976
0.0219004
0.0218261
0.0217532
0.0216817
0.0216114
0.0215426
0.021475
0.0214087
0.0213437
0.0212799
0.0212172
0.0211555
0.0210949
0.0210351
0.020976
0.0209174
0.0208592
0.0208011
0.0207429
0.0206841
0.0206245
0.0205636
0.0205008
0.0204355
0.0203668
0.0202935
0.0202131
0.0201229
0.020012
0.0198838
0.0195971
0.0833939
0.0716892
0.0632884
0.0569657
0.0520509
0.0481359
0.0449556
0.0423295
0.040131
0.0382685
0.0366748
0.0352987
0.0341012
0.0330516
0.0321258
0.0313043
0.0305716
0.0299147
0.0293233
0.0287885
0.0283032
0.0278611
0.0274572
0.027087
0.0267468
0.0264333
0.0261438
0.0258758
0.0256272
0.0253962
0.025181
0.0249803
0.0247926
0.0246167
0.0244517
0.0242964
0.0241499
0.0240115
0.0238803
0.0237556
0.0236366
0.0235229
0.0234137
0.0233086
0.0232071
0.0231088
0.0230132
0.0229202
0.0228294
0.0227405
0.0226534
0.0225679
0.022484
0.0224015
0.0223203
0.0222405
0.022162
0.0220848
0.0220089
0.0219343
0.021861
0.0217891
0.0217185
0.0216492
0.0215812
0.0215146
0.0214492
0.0213851
0.0213221
0.0212603
0.0211995
0.0211397
0.0210807
0.0210224
0.0209645
0.020907
0.0208495
0.0207917
0.0207333
0.0206739
0.020613
0.0205501
0.0204845
0.0204156
0.0203421
0.020262
0.0201727
0.020064
0.019939
0.0196601
0.0833927
0.0716865
0.0632843
0.0569602
0.052044
0.0481276
0.0449458
0.0423184
0.0401186
0.0382551
0.0366607
0.0352845
0.0340871
0.0330379
0.0321124
0.0312913
0.0305588
0.0299021
0.0293108
0.0287761
0.0282907
0.0278486
0.0274446
0.0270744
0.0267343
0.0264209
0.0261317
0.0258641
0.025616
0.0253857
0.0251714
0.0249718
0.0247854
0.0246111
0.0244478
0.0242944
0.0241502
0.0240141
0.0238854
0.0237634
0.0236472
0.0235364
0.0234302
0.0233281
0.0232297
0.0231344
0.0230419
0.0229519
0.0228641
0.0227782
0.0226941
0.0226115
0.0225305
0.0224509
0.0223726
0.0222956
0.02222
0.0221458
0.0220729
0.0220014
0.0219312
0.0218626
0.0217954
0.0217296
0.0216653
0.0216025
0.0215411
0.0214812
0.0214227
0.0213654
0.0213095
0.0212546
0.0212009
0.0211481
0.021096
0.0210445
0.0209934
0.0209423
0.0208909
0.0208387
0.0207852
0.0207301
0.0206729
0.020613
0.0205498
0.0204815
0.0204061
0.0203148
0.0202104
0.0199676
0.0833915
0.0716839
0.0632803
0.0569548
0.052037
0.048119
0.0449354
0.042306
0.040104
0.0382385
0.0366426
0.0352656
0.034068
0.0330189
0.0320939
0.0312732
0.0305412
0.0298849
0.0292938
0.0287593
0.0282741
0.0278321
0.0274283
0.0270583
0.0267184
0.0264055
0.0261168
0.02585
0.025603
0.025374
0.0251614
0.0249637
0.0247796
0.024608
0.0244477
0.0242978
0.0241572
0.0240252
0.0239008
0.0237833
0.023672
0.0235661
0.023465
0.0233677
0.023274
0.0231833
0.0230955
0.0230101
0.022927
0.0228458
0.0227664
0.0226886
0.0226123
0.0225374
0.022464
0.0223918
0.0223211
0.0222517
0.0221838
0.0221174
0.0220525
0.0219891
0.0219274
0.0218673
0.0218089
0.0217522
0.0216973
0.021644
0.0215925
0.0215427
0.0214945
0.021448
0.021403
0.0213595
0.0213173
0.0212763
0.0212363
0.0211969
0.0211578
0.0211185
0.0210783
0.0210368
0.020994
0.0209496
0.0209033
0.0208542
0.0208018
0.0207411
0.020682
0.0205082
0.0833903
0.0716812
0.0632762
0.0569491
0.0520297
0.0481098
0.0449241
0.0422924
0.0400881
0.0382206
0.036624
0.0352476
0.0340512
0.0330033
0.0320791
0.031259
0.030527
0.0298703
0.0292785
0.0287429
0.0282564
0.027813
0.0274079
0.0270366
0.0266957
0.0263821
0.0260931
0.0258265
0.0255803
0.0253526
0.0251418
0.0249466
0.0247652
0.0245965
0.0244396
0.0242933
0.0241567
0.0240289
0.0239089
0.0237959
0.0236889
0.0235873
0.0234902
0.0233972
0.0233074
0.0232206
0.0231363
0.0230542
0.0229741
0.0228956
0.0228186
0.0227431
0.0226691
0.0225965
0.0225253
0.0224556
0.0223873
0.0223206
0.0222555
0.0221919
0.02213
0.0220698
0.0220112
0.0219543
0.0218991
0.0218456
0.0217938
0.0217436
0.021695
0.0216479
0.0216023
0.0215581
0.0215153
0.0214736
0.021433
0.0213933
0.0213542
0.0213153
0.0212763
0.0212363
0.0211946
0.0211509
0.0211055
0.0210586
0.0210099
0.020959
0.0209064
0.0208502
0.0208057
0.0207164
0.0833891
0.0716786
0.0632719
0.0569431
0.0520216
0.0480992
0.0449101
0.0422738
0.0400632
0.0381881
0.0365957
0.035236
0.0340615
0.0330339
0.0321246
0.0313119
0.03058
0.029917
0.0293139
0.0287635
0.0282601
0.0277992
0.0273767
0.0269893
0.026634
0.026308
0.0260088
0.0257342
0.025482
0.0252503
0.0250372
0.0248411
0.0246604
0.0244939
0.0243401
0.0241978
0.0240657
0.0239426
0.0238272
0.0237181
0.0236144
0.0235152
0.0234197
0.0233274
0.0232376
0.0231501
0.0230646
0.0229811
0.0228994
0.0228196
0.0227414
0.0226649
0.0225898
0.0225163
0.0224443
0.0223738
0.0223048
0.0222375
0.0221719
0.0221079
0.0220457
0.0219852
0.0219265
0.0218695
0.0218143
0.0217609
0.0217092
0.0216593
0.0216112
0.0215648
0.02152
0.021477
0.0214356
0.0213958
0.0213574
0.0213205
0.0212847
0.0212499
0.0212154
0.0211798
0.0211412
0.021101
0.0210601
0.021019
0.0209771
0.020934
0.0208894
0.020842
0.0208039
0.0207383
0.0833879
0.0716759
0.0632677
0.0569372
0.0520136
0.0480886
0.0448963
0.042256
0.0400395
0.0381606
0.037609
0.0373413
0.0369296
0.0362993
0.0354921
0.0345763
0.0336137
0.0326503
0.0317173
0.0308345
0.0300132
0.0292587
0.0285724
0.027953
0.0273974
0.0269015
0.0264599
0.0260665
0.0257145
0.0253973
0.0251076
0.0248377
0.0246004
0.0244032
0.0242363
0.0240922
0.0239651
0.0238503
0.0237448
0.0236459
0.0235519
0.0234612
0.0233727
0.0232858
0.0232027
0.0231247
0.0230521
0.0229843
0.0229206
0.0228605
0.0228033
0.0227486
0.022696
0.0226452
0.0225961
0.0225487
0.0225029
0.0224587
0.0224161
0.0223751
0.0223357
0.0222978
0.0222615
0.0222266
0.0221933
0.0221615
0.0221311
0.0221023
0.0220749
0.022049
0.0220246
0.0220017
0.0219804
0.0219607
0.0219427
0.0219262
0.0219112
0.0218974
0.0218843
0.0218688
0.0217579
0.0216267
0.0215004
0.0213862
0.0212845
0.0211936
0.021111
0.0210318
0.0209654
0.0208706
0.0833868
0.0716733
0.0632634
0.0569308
0.0520046
0.0480757
0.0448767
0.0422247
0.0399766
0.0382129
0.11888
0.142486
0.142314
0.13395
0.123719
0.113922
0.105278
0.0979117
0.0917479
0.0866523
0.0824867
0.079124
0.0764515
0.0743682
0.0727833
0.0716132
0.070781
0.0702156
0.0698526
0.0696348
0.0695137
0.069449
0.0694207
0.0694279
0.069466
0.0695231
0.0695876
0.069651
0.0697088
0.0697596
0.0698047
0.0698475
0.0698866
0.0699214
0.0699509
0.0699785
0.0700118
0.0700587
0.0701267
0.0702222
0.0703496
0.0705118
0.0707109
0.0709488
0.0712264
0.0715432
0.0718993
0.0722958
0.072734
0.0732144
0.0737371
0.0743019
0.0749083
0.0755555
0.0762424
0.0769677
0.07773
0.0785275
0.0793581
0.0802199
0.0811104
0.0820265
0.0829654
0.0839246
0.0849028
0.0859007
0.086928
0.0880051
0.08926
0.0904199
0.0578787
0.0420362
0.0334946
0.0285541
0.025559
0.0236844
0.0224849
0.0216972
0.0211794
0.0207594
0.0833856
0.0716707
0.0632593
0.0569251
0.0519968
0.0480654
0.0448633
0.0422074
0.0399538
0.0381849
0.118873
0.14253
0.142297
0.133791
0.123385
0.113401
0.104571
0.0970286
0.0907019
0.0854595
0.0811647
0.0776924
0.0749311
0.0727816
0.0711538
0.0699643
0.0691352
0.0685938
0.0682726
0.0681104
0.0680535
0.0680561
0.0680808
0.0680986
0.0680887
0.0680362
0.0679311
0.0677667
0.0675396
0.0672488
0.066895
0.0664803
0.0660153
0.0655077
0.0649624
0.0643862
0.0637863
0.0631698
0.0625424
0.0619081
0.0612712
0.0606364
0.0600079
0.0593898
0.0587861
0.0582011
0.0576394
0.0571056
0.0566044
0.0561409
0.0557216
0.0553522
0.0550386
0.0547871
0.0546046
0.0544977
0.0544726
0.0545346
0.0546885
0.0549379
0.0552849
0.0557308
0.0562757
0.0569188
0.0576594
0.058497
0.0594363
0.06048
0.0617271
0.0629176
0.0438624
0.033843
0.0280938
0.0245925
0.0223784
0.0209465
0.0200077
0.0193714
0.0189269
0.018471
0.0833845
0.0716682
0.0632553
0.0569194
0.0519891
0.0480552
0.0448498
0.0421893
0.0399295
0.0381523
0.118644
0.142294
0.142115
0.133664
0.123298
0.113336
0.104512
0.0969669
0.0906326
0.0853826
0.0810844
0.0776165
0.0748708
0.0727507
0.0711677
0.0700396
0.0692885
0.0688405
0.0686264
0.0685828
0.0686537
0.0687913
0.068956
0.069117
0.0692516
0.0693443
0.0693847
0.0693664
0.0692864
0.0691443
0.0689412
0.0686797
0.0683636
0.0679974
0.0675868
0.0671379
0.0666572
0.0661511
0.0656255
0.0650859
0.0645373
0.0639835
0.0634277
0.0628722
0.0623181
0.0617655
0.061214
0.0606626
0.0601105
0.0595568
0.059
0.0584397
0.0578759
0.0573082
0.0567359
0.0561589
0.0555771
0.0549913
0.0544026
0.0538132
0.0532254
0.0526424
0.0520682
0.0515077
0.0509674
0.050455
0.0499842
0.0495653
0.0492787
0.0489153
0.034476
0.0271438
0.023048
0.0205752
0.0189819
0.0178947
0.0171119
0.0164989
0.0159899
0.0153549
0.0833834
0.0716658
0.0632516
0.0569143
0.0519825
0.048047
0.0448396
0.042177
0.0399149
0.0381357
0.118565
0.142212
0.142043
0.1336
0.123234
0.113267
0.104435
0.0968815
0.0905389
0.0852818
0.080979
0.0775093
0.0747652
0.0726505
0.0710775
0.069964
0.0692323
0.0688084
0.068623
0.0686124
0.06872
0.0688975
0.0691052
0.069312
0.0694952
0.0696385
0.0697311
0.0697652
0.069737
0.0696447
0.0694886
0.0692708
0.0689948
0.0686654
0.0682895
0.0678756
0.0674329
0.0669706
0.0664972
0.0660207
0.0655481
0.0650852
0.0646537
0.0642559
0.0638882
0.0635465
0.0632276
0.0629293
0.0626502
0.0623908
0.0621526
0.0619369
0.0617439
0.0615731
0.0614246
0.0612983
0.0611939
0.0611107
0.0610477
0.0610035
0.0609768
0.0609659
0.0609694
0.060986
0.0610155
0.0610595
0.0611273
0.0612354
0.0614931
0.0619335
0.0438745
0.0350474
0.0302187
0.0273179
0.0254198
0.0240684
0.0230184
0.0221111
0.0212533
0.0204001
0.0833824
0.0716634
0.0632481
0.0569095
0.0519765
0.0480395
0.0448306
0.0421662
0.0399021
0.0381206
0.118467
0.142089
0.141919
0.133482
0.123123
0.113162
0.104333
0.0967795
0.0904356
0.0851767
0.0808721
0.0774017
0.0746585
0.0725468
0.0709791
0.0698735
0.0691523
0.0687414
0.0685713
0.0685781
0.0687049
0.0689034
0.0691338
0.069365
0.0695739
0.0697438
0.069863
0.0699224
0.0699165
0.0698416
0.0696961
0.0694803
0.0691969
0.0688505
0.0684489
0.0680019
0.0675202
0.0670143
0.0664943
0.065969
0.065446
0.0649314
0.0644299
0.0639452
0.0634796
0.0630346
0.0626105
0.0622078
0.0618259
0.0614761
0.0611569
0.060864
0.0605932
0.0603413
0.0601064
0.0598874
0.0596842
0.0594985
0.059332
0.0591856
0.0590601
0.0589569
0.0588779
0.0588257
0.058804
0.058818
0.0588806
0.0590116
0.0593178
0.0598466
0.0427601
0.0344445
0.0299307
0.0272512
0.0255255
0.0243193
0.0233986
0.0226116
0.0218326
0.0208138
0.0833813
0.0716612
0.0632448
0.0569052
0.0519712
0.0480333
0.0448233
0.042158
0.0398929
0.0381102
0.118399
0.141994
0.14181
0.133365
0.123001
0.113036
0.104205
0.0966489
0.0903038
0.0850447
0.0807408
0.0772723
0.0745322
0.072425
0.0708629
0.0697642
0.0690509
0.0686486
0.0684876
0.0685038
0.0686403
0.068849
0.0690903
0.0693335
0.0695556
0.0697401
0.0698743
0.069948
0.0699531
0.0698834
0.0697341
0.069503
0.0691914
0.0688035
0.0683482
0.0678377
0.0672849
0.0667028
0.0661035
0.0654973
0.0648926
0.0642959
0.0637118
0.0631434
0.0625923
0.0620592
0.0615437
0.0610452
0.0605622
0.0600932
0.0596366
0.0591907
0.0587535
0.0583232
0.0578975
0.0574746
0.0570525
0.0566294
0.0562036
0.0557735
0.0553375
0.0548942
0.0544425
0.053982
0.0535127
0.0530357
0.0525563
0.0520759
0.0516565
0.0510992
0.0363192
0.028981
0.0249672
0.0225675
0.0209957
0.0198614
0.0189603
0.0181633
0.0174218
0.0164634
0.0833803
0.0716591
0.0632417
0.0569014
0.0519667
0.0480282
0.044818
0.0421524
0.0398873
0.0381046
0.118364
0.14193
0.141721
0.133255
0.122872
0.112893
0.10405
0.0964879
0.0901394
0.0848799
0.0805787
0.0771152
0.0743824
0.0722838
0.0707315
0.0696424
0.0689379
0.0685431
0.0683875
0.068407
0.0685452
0.0687545
0.0689967
0.0692426
0.0694706
0.0696649
0.069813
0.0699029
0.0699235
0.069864
0.0697143
0.0694678
0.0691231
0.0686842
0.0681621
0.0675724
0.0669321
0.0662579
0.0655647
0.064865
0.0641685
0.0634823
0.0628111
0.0621575
0.0615227
0.0609063
0.0603073
0.0597239
0.0591543
0.0585964
0.058048
0.0575071
0.0569715
0.0564396
0.0559096
0.0553803
0.0548507
0.0543204
0.0537892
0.0532579
0.0527276
0.0522005
0.0516797
0.0511694
0.0506759
0.0502068
0.0497752
0.0493909
0.0491299
0.048787
0.0345648
0.0274407
0.0235335
0.021226
0.0197717
0.018796
0.0180987
0.0175505
0.0170914
0.0164921
0.0833793
0.071657
0.0632388
0.0568978
0.0519627
0.048024
0.0448136
0.0421482
0.0398832
0.0381001
0.118302
0.141813
0.141566
0.133078
0.122688
0.112709
0.103873
0.0963197
0.0899828
0.0847372
0.0804524
0.0770089
0.0742996
0.0722284
0.0707062
0.0696488
0.068976
0.0686114
0.0684841
0.0685305
0.0686956
0.0689346
0.0692126
0.0695037
0.069789
0.0700539
0.0702848
0.0704654
0.0705769
0.070598
0.0705071
0.0702888
0.0699378
0.0694603
0.0688737
0.0682032
0.0674758
0.066717
0.0659489
0.0651889
0.0644496
0.0637393
0.0630628
0.0624219
0.0618164
0.0612445
0.0607037
0.060192
0.0597076
0.0592487
0.0588137
0.0584012
0.0580102
0.0576402
0.0572912
0.056964
0.0566597
0.0563801
0.0561277
0.0559054
0.0557166
0.0555655
0.055457
0.0553966
0.0553914
0.05545
0.055587
0.0558238
0.0562639
0.0567325
0.0401575
0.0318566
0.0272904
0.0245844
0.0228795
0.0217461
0.0209532
0.0203575
0.0198785
0.0193327
0.0833784
0.071655
0.0632362
0.0568948
0.0519597
0.0480216
0.0448126
0.0421496
0.039889
0.0381119
0.118399
0.141867
0.141541
0.132984
0.122546
0.112548
0.103723
0.0962135
0.0899564
0.0848286
0.0807004
0.0774504
0.0749667
0.0731451
0.0718868
0.0710978
0.0706894
0.0705801
0.0706973
0.0709791
0.0713753
0.0718467
0.072364
0.0729058
0.073455
0.0739956
0.0745072
0.074961
0.0753193
0.0755362
0.0755658
0.0753751
0.0749542
0.0743176
0.0735025
0.0725598
0.0715433
0.0705033
0.0694825
0.0685138
0.0676203
0.0668161
0.0661078
0.0654961
0.0649774
0.0645455
0.0641962
0.0639243
0.0637225
0.0635827
0.0634964
0.0634564
0.0634568
0.0634933
0.0635631
0.0636646
0.0637974
0.0639617
0.0641584
0.0643886
0.0646541
0.0649568
0.0652992
0.0656841
0.0661166
0.0666042
0.0671633
0.067868
0.0688837
0.0702186
0.0488789
0.0381381
0.0321093
0.0284421
0.0260733
0.0244703
0.0233419
0.0225109
0.0218643
0.0212501
0.0833774
0.0716531
0.0632336
0.0568918
0.0519567
0.048019
0.0448112
0.0421499
0.0398923
0.038117
0.118228
0.141577
0.141295
0.132867
0.122684
0.113097
0.104854
0.0980914
0.0927229
0.0885912
0.085523
0.083349
0.0819119
0.0810689
0.0806938
0.0806778
0.08093
0.0813768
0.0819613
0.0826406
0.0833843
0.0841722
0.0849909
0.0858321
0.0866885
0.0875503
0.0883987
0.0891992
0.0898985
0.090421
0.0906792
0.0905979
0.0901341
0.0892867
0.0880967
0.0866354
0.0849884
0.0832452
0.0814907
0.0798003
0.0782366
0.0768482
0.0756686
0.0747174
0.0740004
0.0735143
0.073286
0.0732973
0.0734975
0.0738334
0.0742602
0.0747448
0.0752644
0.0758042
0.0763557
0.0769144
0.0774785
0.0780476
0.0786225
0.0792041
0.0797937
0.080393
0.0810038
0.0816284
0.082271
0.0829388
0.0836506
0.0844406
0.085462
0.0866133
0.0567996
0.042186
0.0342176
0.029529
0.0266158
0.0247315
0.023474
0.0226096
0.0220031
0.0215197
0.0833765
0.0716513
0.0632312
0.0568894
0.051955
0.0480192
0.0448159
0.0421645
0.0399368
0.038045
0.0367427
0.0356281
0.0345075
0.0334828
0.0325377
0.0316662
0.0308653
0.0301319
0.0294627
0.0288539
0.0283016
0.0278017
0.0273503
0.0269435
0.0265775
0.0262488
0.0259541
0.0256905
0.0254554
0.0252465
0.0250619
0.0249
0.0247598
0.0246408
0.0245428
0.0244663
0.0244115
0.0243781
0.0243647
0.0243678
0.024381
0.0243965
0.0244064
0.0244038
0.0243842
0.0243443
0.0242833
0.0242029
0.0241057
0.023995
0.0238744
0.0237475
0.0236177
0.0234883
0.0233618
0.0232404
0.0231258
0.0230193
0.0229215
0.0228326
0.0227522
0.0226798
0.0226146
0.0225559
0.0225028
0.0224546
0.0224105
0.02237
0.0223325
0.0222976
0.0222649
0.0222341
0.0222049
0.0221773
0.0221511
0.0221262
0.0221025
0.0220797
0.0220578
0.0220343
0.0219251
0.0217974
0.0216742
0.0215622
0.0214625
0.0213737
0.0212946
0.021222
0.0211637
0.0210781
0.0833756
0.0716494
0.0632286
0.0568865
0.051952
0.0480166
0.0448143
0.0421644
0.0399397
0.0380497
0.0364321
0.0350374
0.0338236
0.0327581
0.0318158
0.0309768
0.0302256
0.0295494
0.0289382
0.0283838
0.0278793
0.0274192
0.0269988
0.0266143
0.0262624
0.0259404
0.025646
0.0253774
0.0251329
0.0249112
0.0247116
0.0245333
0.0243761
0.0242404
0.0241271
0.0240378
0.0239741
0.0239372
0.0239269
0.0239393
0.0239659
0.0239961
0.0240192
0.0240266
0.0240135
0.0239782
0.0239213
0.0238445
0.0237508
0.0236433
0.0235256
0.0234009
0.0232722
0.0231418
0.023012
0.0228845
0.0227606
0.0226416
0.0225283
0.0224213
0.0223209
0.0222274
0.0221407
0.0220607
0.0219871
0.0219196
0.0218578
0.0218014
0.0217499
0.0217029
0.02166
0.0216209
0.0215853
0.0215527
0.021523
0.0214958
0.0214708
0.0214477
0.021426
0.0214042
0.0213805
0.0213556
0.021331
0.0213069
0.0212832
0.0212595
0.0212357
0.0212097
0.0211911
0.0211303
0.0833747
0.0716475
0.0632261
0.0568836
0.0519491
0.0480141
0.044813
0.0421654
0.0399445
0.0380597
0.0364448
0.035049
0.0338321
0.0327626
0.0318159
0.0309725
0.0302167
0.0295359
0.0289199
0.0283603
0.0278502
0.0273841
0.0269573
0.0265658
0.0262065
0.0258767
0.0255742
0.0252972
0.0250441
0.0248139
0.0246056
0.0244191
0.0242543
0.0241122
0.0239944
0.0239039
0.0238446
0.0238203
0.0238336
0.0238803
0.0239483
0.0240215
0.0240837
0.0241226
0.0241321
0.0241103
0.0240586
0.0239801
0.0238789
0.0237596
0.0236273
0.0234865
0.0233402
0.0231909
0.023042
0.0228963
0.0227558
0.0226223
0.0224968
0.0223801
0.0222726
0.0221745
0.0220858
0.0220063
0.0219356
0.0218733
0.0218189
0.021772
0.021732
0.0216983
0.0216704
0.0216477
0.0216298
0.0216159
0.0216058
0.0215987
0.0215941
0.0215914
0.0215897
0.0215881
0.0215854
0.0215811
0.0215751
0.0215674
0.0215573
0.0215435
0.0215247
0.0214953
0.0214567
0.0213296
0.0833737
0.0716456
0.0632233
0.0568801
0.0519451
0.0480097
0.0448083
0.0421604
0.0399391
0.0380532
0.0364358
0.035036
0.0338145
0.0327403
0.0317889
0.0309409
0.0301806
0.0294953
0.0288747
0.0283105
0.0277956
0.0273246
0.0268927
0.026496
0.0261315
0.0257964
0.0254885
0.0252061
0.0249475
0.0247118
0.024498
0.0243059
0.0241356
0.0239885
0.0238671
0.0237761
0.0237222
0.0237143
0.0237621
0.0238635
0.024002
0.024152
0.0242859
0.0243842
0.0244383
0.0244468
0.0244127
0.0243412
0.024239
0.0241129
0.023973
0.0238233
0.0236689
0.0235137
0.0233612
0.0232144
0.0230756
0.0229468
0.0228293
0.0227243
0.0226324
0.0225538
0.0224886
0.0224362
0.022396
0.0223672
0.0223486
0.0223391
0.0223373
0.0223417
0.0223509
0.0223634
0.0223779
0.0223929
0.0224073
0.0224199
0.0224299
0.0224361
0.0224378
0.022434
0.0224239
0.0224068
0.0223821
0.0223496
0.0223087
0.0222583
0.0221972
0.0221192
0.0220259
0.0218323
0.0833728
0.0716436
0.0632204
0.0568765
0.0519407
0.0480047
0.0448028
0.0421543
0.0399325
0.0380459
0.0364269
0.0350246
0.0337997
0.0327213
0.0317652
0.030912
0.0301461
0.029455
0.0288283
0.0282577
0.0277365
0.0272589
0.0268203
0.0264171
0.026046
0.0257046
0.0253904
0.0251019
0.0248372
0.0245953
0.0243751
0.0241761
0.0239985
0.0238435
0.0237141
0.0236172
0.0235629
0.0235695
0.0236702
0.0238838
0.0241947
0.0245516
0.0248906
0.0251715
0.0253777
0.0255072
0.0255671
0.0255684
0.0255234
0.0254441
0.0253523
0.0252594
0.025172
0.0250948
0.0250314
0.0249839
0.0249531
0.0249385
0.024939
0.0249522
0.0249754
0.0250055
0.0250394
0.025074
0.0251065
0.0251343
0.0251553
0.0251681
0.0251713
0.0251643
0.0251465
0.025118
0.0250789
0.0250295
0.0249704
0.024902
0.024825
0.02474
0.0246475
0.0245478
0.0244413
0.0243281
0.0242085
0.0240825
0.02395
0.0238098
0.0236609
0.0234966
0.0233184
0.0230448
0.0833719
0.0716416
0.0632174
0.0568725
0.0519357
0.0479987
0.0447956
0.0421458
0.0399223
0.0380335
0.0364117
0.0350058
0.0337766
0.0326935
0.0317323
0.0308736
0.030102
0.0294048
0.0287718
0.0281947
0.0276666
0.027182
0.0267364
0.026326
0.0259478
0.0255993
0.0252783
0.0249829
0.0247114
0.0244625
0.0242349
0.0240276
0.0238405
0.0236742
0.0235316
0.0234212
0.0233568
0.0233759
0.0236225
0.0242415
0.0252267
0.0263826
0.0274917
0.0284595
0.0292539
0.029881
0.0303636
0.0307291
0.0310034
0.0312084
0.0313541
0.0314884
0.0316029
0.03169
0.0317436
0.0317603
0.0317392
0.0316811
0.0315886
0.0314649
0.031314
0.0311398
0.030946
0.030736
0.0305128
0.0302792
0.0300373
0.0297894
0.0295368
0.0292813
0.0290239
0.0287657
0.0285076
0.0282503
0.0279945
0.0277407
0.0274891
0.0272401
0.0269938
0.0267501
0.026509
0.0262701
0.0260332
0.0257977
0.0255628
0.0253269
0.0250881
0.024839
0.0245795
0.0242336
0.083371
0.0716396
0.0632144
0.0568684
0.0519305
0.0479923
0.0447878
0.0421365
0.0399111
0.0380201
0.0363955
0.0349862
0.0337531
0.0326654
0.031699
0.0308346
0.0300567
0.0293527
0.0287124
0.0281275
0.0275913
0.0270983
0.026644
0.0262249
0.025838
0.025481
0.0251517
0.0248483
0.0245689
0.0243118
0.0240755
0.0238583
0.023659
0.023477
0.0233126
0.0231751
0.0230784
0.0231052
0.024047
0.0266485
0.0306316
0.0348745
0.0385431
0.0414237
0.0434973
0.0448666
0.0456615
0.0460074
0.0460136
0.0457709
0.0453491
0.0447739
0.0440885
0.0433254
0.0425151
0.0416829
0.0408484
0.0400259
0.0392248
0.0384513
0.0377083
0.0369973
0.0363179
0.0356693
0.0350499
0.034458
0.0338919
0.0333497
0.03283
0.0323313
0.0318521
0.0313913
0.0309478
0.0305206
0.0301087
0.0297114
0.029328
0.0289582
0.0286005
0.0282537
0.0279168
0.0275884
0.0272677
0.0269541
0.0266469
0.0263437
0.0260419
0.0257335
0.0254164
0.0250201
0.0833702
0.0716377
0.0632114
0.0568643
0.0519252
0.0479855
0.0447794
0.0421262
0.0398986
0.0380048
0.036377
0.0349639
0.0337264
0.0326337
0.0316617
0.030791
0.0300063
0.0292948
0.0286464
0.0280528
0.0275074
0.0270047
0.0265405
0.0261113
0.0257145
0.0253477
0.025009
0.0246965
0.0244083
0.0241426
0.0238972
0.0236704
0.0234595
0.0232624
0.0230753
0.0229058
0.0227588
0.0228776
0.0276464
0.0387744
0.0520899
0.0626708
0.069014
0.0717873
0.0719588
0.0704985
0.0681437
0.0653915
0.0625463
0.059775
0.0571481
0.0546898
0.0524256
0.050366
0.0485045
0.0468255
0.0453099
0.0439376
0.0426896
0.0415492
0.0405021
0.0395371
0.0386468
0.0378209
0.0370474
0.0363182
0.0356276
0.0349717
0.0343472
0.0337515
0.0331826
0.0326385
0.0321177
0.0316186
0.03114
0.0306805
0.030239
0.0298141
0.0294049
0.02901
0.0286282
0.0282582
0.0278986
0.0275475
0.0272027
0.0268605
0.026516
0.0261577
0.0257929
0.0253627
0.0833694
0.0716359
0.0632086
0.0568603
0.0519199
0.0479788
0.044771
0.0421157
0.0398858
0.0379892
0.0363581
0.0349411
0.0336991
0.0326012
0.0316233
0.030746
0.0299537
0.0292339
0.0285763
0.0279728
0.0274166
0.0269025
0.0264264
0.0259851
0.0255763
0.0251978
0.024848
0.0245251
0.0242271
0.0239519
0.0236974
0.0234614
0.0232404
0.02303
0.0228191
0.0226076
0.0223552
0.0229175
0.0428708
0.0736037
0.097692
0.108831
0.109247
0.10361
0.0955316
0.0871244
0.0793907
0.0726821
0.067029
0.062326
0.0584294
0.0551937
0.0524914
0.0502109
0.0482621
0.0465777
0.0451135
0.0438307
0.0426746
0.0416136
0.0406286
0.0397075
0.0388416
0.0380244
0.0372508
0.0365168
0.035819
0.0351546
0.0345212
0.0339164
0.0333386
0.032786
0.0322569
0.0317501
0.0312641
0.0307977
0.0303497
0.0299189
0.0295042
0.0291044
0.0287183
0.0283444
0.0279813
0.027627
0.027279
0.0269336
0.0265854
0.0262217
0.0258205
0.0253575
0.0833688
0.0716344
0.0632061
0.0568567
0.0519151
0.0479724
0.0447628
0.0421054
0.0398729
0.0379733
0.0363387
0.0349176
0.0336708
0.0325673
0.031583
0.0306985
0.029898
0.0291689
0.028501
0.027886
0.0273173
0.0267898
0.0262997
0.0258441
0.025421
0.0250289
0.0246664
0.024332
0.0240234
0.0237389
0.0234766
0.0232361
0.0230158
0.0228152
0.0226242
0.022443
0.0222141
0.0228377
0.0447285
0.0782743
0.104349
0.115205
0.115069
0.108687
0.0996225
0.0901459
0.0813968
0.0738016
0.0674198
0.062152
0.057839
0.054321
0.051453
0.0491409
0.0472309
0.0456068
0.0441924
0.042936
0.0418014
0.0407633
0.0398039
0.0389102
0.0380727
0.0372841
0.0365389
0.0358326
0.0351616
0.034523
0.0339143
0.0333335
0.0327787
0.0322482
0.0317406
0.0312545
0.0307887
0.0303419
0.0299131
0.0295009
0.0291044
0.0287222
0.0283531
0.0279957
0.0276485
0.0273092
0.0269754
0.0266428
0.0263063
0.0259524
0.0255577
0.0250642
0.0833683
0.0716332
0.0632041
0.0568536
0.0519107
0.0479665
0.0447552
0.0420956
0.0398606
0.037958
0.0363197
0.0348944
0.0336426
0.0325334
0.0315423
0.03065
0.0298405
0.0291011
0.0284215
0.0277933
0.02721
0.0266666
0.0261595
0.0256865
0.0252462
0.0248377
0.0244604
0.0241128
0.0237926
0.0234978
0.0232279
0.0229856
0.0227757
0.0226095
0.0224886
0.0224286
0.0223344
0.0229629
0.0440378
0.0773548
0.103783
0.115029
0.115122
0.108961
0.100101
0.0908174
0.0822261
0.0747324
0.0683838
0.0630678
0.0586346
0.0549686
0.0519604
0.0494395
0.0472921
0.0454381
0.0438185
0.0423884
0.0411128
0.0399647
0.0389224
0.0379689
0.0370907
0.0362767
0.035518
0.0348076
0.0341395
0.033509
0.032912
0.0323455
0.0318066
0.0312933
0.0308036
0.0303359
0.0298888
0.0294611
0.0290515
0.0286588
0.028282
0.0279196
0.0275705
0.027233
0.0269052
0.026585
0.0262693
0.0259538
0.0256329
0.0252925
0.02491
0.0244256
0.083368
0.0716324
0.0632025
0.0568512
0.0519071
0.0479614
0.0447483
0.0420866
0.039849
0.0379433
0.0363015
0.0348718
0.0336149
0.0324996
0.0315014
0.0306007
0.0297814
0.0290307
0.0283379
0.0276946
0.0270943
0.026532
0.0260047
0.0255106
0.0250494
0.0246215
0.0242273
0.0238655
0.0235331
0.0232277
0.0229505
0.0227112
0.0225284
0.0224445
0.0225001
0.0227705
0.0230157
0.0236672
0.0418402
0.0720976
0.0971393
0.108862
0.109906
0.104718
0.0970281
0.0890244
0.0816376
0.0751447
0.0695222
0.0646522
0.0604114
0.0567567
0.0535773
0.0507793
0.0483039
0.0461091
0.0441614
0.0424312
0.0408914
0.0395171
0.0382859
0.0371774
0.036174
0.0352601
0.0344226
0.0336506
0.0329351
0.0322685
0.0316449
0.0310594
0.030508
0.0299874
0.0294949
0.0290283
0.0285855
0.0281647
0.0277644
0.027383
0.027019
0.026671
0.0263372
0.0260157
0.0257045
0.0254009
0.0251015
0.0248012
0.0244943
0.024165
0.0237916
0.0233036
0.0833678
0.0716319
0.0632014
0.0568493
0.0519041
0.0479571
0.0447423
0.0420785
0.0398384
0.0379297
0.0362842
0.0348503
0.0335882
0.0324667
0.0314612
0.0305516
0.0297219
0.0289587
0.0282512
0.0275907
0.0269705
0.0263858
0.0258337
0.0253135
0.0248263
0.0243746
0.0239612
0.0235852
0.0232419
0.0229288
0.0226505
0.022431
0.02232
0.0224357
0.0229409
0.0240617
0.024987
0.0255163
0.0265134
0.0303263
0.0373458
0.0448523
0.051243
0.0563463
0.0599017
0.0619332
0.0626535
0.0623183
0.0611709
0.0594308
0.057295
0.0549671
0.0525705
0.0501959
0.04791
0.045757
0.0437617
0.0419341
0.040273
0.0387701
0.0374128
0.0361863
0.0350752
0.0340647
0.0331409
0.0322918
0.0315067
0.030777
0.0300954
0.0294564
0.0288554
0.0282892
0.0277551
0.027251
0.0267752
0.0263261
0.0259026