/*--------------------------------*- C++ -*----------------------------------*\
| =========                 |                                                 |
| \\      /  F ield         | OpenFOAM: The Open Source CFD Toolbox           |
|  \\    /   O peration     | Version:  v2012                                 |
|   \\  /    A nd           | Website:  www.openfoam.com                      |
|    \\/     M anipulation  |                                                 |
\*---------------------------------------------------------------------------*/
FoamFile
{
    version     2.0;
    format      ascii;
    class       volScalarField;
    location    "600/air";
    object      nut;
}
// * * * * * * * * * * * * * * * * * * * * * * * * * * * * * * * * * * * * * //

dimensions      [0 2 -1 0 0 0 0];


internalField   nonuniform List<scalar> 
287104
(
0.00648531
0.00601335
0.0056504
0.00536108
0.00512494
0.00492877
0.00476349
0.00462258
0.00450123
0.00439581
0.00430352
0.00422219
0.00415009
0.00408582
0.00402825
0.00397646
0.00392967
0.00388724
0.00384862
0.00381337
0.00378108
0.00375142
0.00372411
0.00369889
0.00367555
0.00365389
0.00363375
0.00361498
0.00359746
0.00358106
0.00356568
0.00355123
0.00353762
0.00352477
0.00351263
0.00350112
0.00349018
0.00347976
0.00346982
0.0034603
0.00345116
0.00344237
0.00343389
0.00342569
0.00341774
0.00341002
0.00340251
0.00339517
0.00338801
0.003381
0.00337413
0.00336739
0.00336077
0.00335427
0.00334788
0.00334161
0.00333543
0.00332937
0.0033234
0.00331754
0.00331178
0.00330612
0.00330057
0.00329511
0.00328976
0.00328451
0.00327935
0.00327428
0.00326931
0.00326442
0.00325962
0.00325489
0.00325022
0.00324562
0.00324106
0.00323654
0.00323204
0.00322754
0.00322302
0.00321847
0.00321384
0.00320909
0.00320418
0.00319901
0.00319347
0.00318736
0.00318043
0.00317174
0.00316155
0.00313782
0.00648518
0.00601308
0.00565
0.00536057
0.00512433
0.00492808
0.00476273
0.00462176
0.00450035
0.00439488
0.00430256
0.0042212
0.00414908
0.00408479
0.00402722
0.00397543
0.00392864
0.00388622
0.00384762
0.00381238
0.00378011
0.00375047
0.00372318
0.00369799
0.00367467
0.00365304
0.00363293
0.0036142
0.00359672
0.00358037
0.00356504
0.00355065
0.00353711
0.00352434
0.00351228
0.00350085
0.00349001
0.00347969
0.00346985
0.00346044
0.00345142
0.00344274
0.00343438
0.00342629
0.00341846
0.00341085
0.00340344
0.00339621
0.00338914
0.00338222
0.00337543
0.00336876
0.00336221
0.00335577
0.00334943
0.00334319
0.00333705
0.00333101
0.00332506
0.00331921
0.00331345
0.00330779
0.00330223
0.00329676
0.00329139
0.00328611
0.00328093
0.00327584
0.00327083
0.00326591
0.00326107
0.0032563
0.00325159
0.00324694
0.00324234
0.00323776
0.00323321
0.00322865
0.00322407
0.00321945
0.00321474
0.00320992
0.00320491
0.00319966
0.00319404
0.00318785
0.00318085
0.00317214
0.00316194
0.00313851
0.00648513
0.00601296
0.00564983
0.00536034
0.00512406
0.00492776
0.00476236
0.00462135
0.0044999
0.0043944
0.00430205
0.00422067
0.00414853
0.00408424
0.00402667
0.00397488
0.0039281
0.00388569
0.0038471
0.00381187
0.00377961
0.00374999
0.00372271
0.00369753
0.00367424
0.00365263
0.00363256
0.00361386
0.00359641
0.0035801
0.00356483
0.00355049
0.00353701
0.00352431
0.00351232
0.00350097
0.00349021
0.00347999
0.00347025
0.00346094
0.00345202
0.00344345
0.0034352
0.00342723
0.00341951
0.00341201
0.00340472
0.0033976
0.00339064
0.00338383
0.00337715
0.00337059
0.00336414
0.0033578
0.00335157
0.00334543
0.0033394
0.00333346
0.00332761
0.00332186
0.00331621
0.00331066
0.0033052
0.00329985
0.00329459
0.00328942
0.00328435
0.00327937
0.00327449
0.00326969
0.00326496
0.00326032
0.00325574
0.00325121
0.00324673
0.00324228
0.00323785
0.00323342
0.00322896
0.00322444
0.00321984
0.00321512
0.00321021
0.00320505
0.00319953
0.00319344
0.00318656
0.00317801
0.00316802
0.00314518
0.00648507
0.00601284
0.00564963
0.00536007
0.0051237
0.00492733
0.00476186
0.00462077
0.00449925
0.00439369
0.00430129
0.00421987
0.00414771
0.00408341
0.00402583
0.00397403
0.00392725
0.00388483
0.00384624
0.00381101
0.00377875
0.00374913
0.00372185
0.00369668
0.00367338
0.00365179
0.00363172
0.00361304
0.00359562
0.00357934
0.0035641
0.00354981
0.00353638
0.00352374
0.00351182
0.00350056
0.00348989
0.00347976
0.00347011
0.00346091
0.0034521
0.00344365
0.00343551
0.00342765
0.00342004
0.00341265
0.00340545
0.00339843
0.00339156
0.00338483
0.00337823
0.00337174
0.00336536
0.00335908
0.00335289
0.0033468
0.0033408
0.00333489
0.00332906
0.00332334
0.0033177
0.00331215
0.0033067
0.00330135
0.00329608
0.00329091
0.00328583
0.00328084
0.00327593
0.0032711
0.00326635
0.00326167
0.00325704
0.00325247
0.00324793
0.00324341
0.00323889
0.00323435
0.00322977
0.00322512
0.00322035
0.00321544
0.00321032
0.00320492
0.00319915
0.00319281
0.00318568
0.0031769
0.0031667
0.0031438
0.00648503
0.00601273
0.00564946
0.00535983
0.0051234
0.00492696
0.00476142
0.00462026
0.00449867
0.00439304
0.00430059
0.00421914
0.00414695
0.00408264
0.00402505
0.00397326
0.00392648
0.00388407
0.00384548
0.00381026
0.003778
0.00374838
0.00372111
0.00369594
0.00367266
0.00365107
0.00363103
0.00361237
0.00359498
0.00357873
0.00356354
0.00354931
0.00353595
0.00352339
0.00351156
0.00350039
0.00348983
0.00347981
0.00347029
0.00346121
0.00345254
0.00344422
0.00343622
0.0034285
0.00342103
0.00341377
0.00340671
0.00339982
0.00339308
0.00338647
0.00337998
0.0033736
0.00336732
0.00336113
0.00335504
0.00334904
0.00334312
0.0033373
0.00333156
0.00332591
0.00332035
0.00331488
0.00330951
0.00330423
0.00329904
0.00329394
0.00328894
0.00328402
0.00327919
0.00327443
0.00326975
0.00326513
0.00326058
0.00325606
0.00325158
0.00324712
0.00324265
0.00323816
0.00323362
0.00322898
0.00322423
0.0032193
0.00321417
0.00320876
0.00320298
0.00319668
0.00318963
0.00318103
0.00317111
0.00314886
0.00648498
0.00601261
0.00564927
0.00535957
0.00512306
0.00492654
0.0047609
0.00461965
0.00449798
0.00439227
0.00429977
0.00421829
0.0041461
0.00408179
0.00402421
0.00397243
0.00392566
0.00388325
0.00384467
0.00380943
0.00377717
0.00374754
0.00372026
0.00369508
0.0036718
0.00365022
0.00363018
0.00361155
0.00359419
0.00357799
0.00356286
0.0035487
0.00353544
0.00352298
0.00351128
0.00350025
0.00348984
0.00348
0.00347066
0.00346178
0.00345331
0.00344521
0.00343743
0.00342994
0.00342269
0.00341567
0.00340884
0.00340217
0.00339566
0.00338927
0.00338301
0.00337685
0.0033708
0.00336484
0.00335897
0.00335319
0.0033475
0.0033419
0.0033364
0.00333099
0.00332568
0.00332047
0.00331536
0.00331036
0.00330546
0.00330067
0.00329598
0.00329139
0.00328691
0.00328252
0.00327822
0.003274
0.00326986
0.00326579
0.00326177
0.00325779
0.00325383
0.00324987
0.00324588
0.00324183
0.00323767
0.00323338
0.00322892
0.00322425
0.0032193
0.00321396
0.00320804
0.00320086
0.00319263
0.0031734
0.00648493
0.0060125
0.00564909
0.00535932
0.00512272
0.0049261
0.00476035
0.00461897
0.00449716
0.00439132
0.0042987
0.00421716
0.00414494
0.00408062
0.00402305
0.00397128
0.00392453
0.00388213
0.00384355
0.00380832
0.00377606
0.00374643
0.00371915
0.00369398
0.00367071
0.00364915
0.00362915
0.00361057
0.00359328
0.00357717
0.00356215
0.00354813
0.00353503
0.00352276
0.00351127
0.00350049
0.00349035
0.0034808
0.00347178
0.00346324
0.00345512
0.00344739
0.00343998
0.00343285
0.00342595
0.00341928
0.00341279
0.00340648
0.00340032
0.0033943
0.0033884
0.0033826
0.00337691
0.00337132
0.00336582
0.00336041
0.0033551
0.00334988
0.00334477
0.00333976
0.00333486
0.00333007
0.00332539
0.00332083
0.0033164
0.00331209
0.0033079
0.00330384
0.00329991
0.0032961
0.00329242
0.00328885
0.0032854
0.00328206
0.00327883
0.00327567
0.00327259
0.00326956
0.00326655
0.00326351
0.00326041
0.0032572
0.00325389
0.00325045
0.00324686
0.00324305
0.00323897
0.00323424
0.00322965
0.00321605
0.00648488
0.00601239
0.00564891
0.00535905
0.00512236
0.00492562
0.00475975
0.00461823
0.00449627
0.00439029
0.00429761
0.00421608
0.00414391
0.00407965
0.00402213
0.00397038
0.00392362
0.00388119
0.00384255
0.00380724
0.00377488
0.00374515
0.00371777
0.0036925
0.00366915
0.00364754
0.00362751
0.00360893
0.00359168
0.00357566
0.00356077
0.00354692
0.003534
0.00352194
0.00351069
0.00350017
0.00349031
0.00348107
0.00347237
0.00346415
0.00345635
0.00344893
0.00344183
0.00343501
0.00342842
0.00342203
0.00341581
0.00340975
0.00340381
0.00339799
0.00339228
0.00338666
0.00338114
0.00337573
0.00337041
0.00336519
0.00336007
0.00335506
0.00335016
0.00334538
0.00334071
0.00333616
0.00333173
0.00332743
0.00332324
0.00331918
0.00331524
0.00331142
0.00330772
0.00330413
0.00330065
0.00329728
0.003294
0.00329081
0.0032877
0.00328466
0.00328165
0.00327867
0.00327567
0.00327259
0.00326938
0.00326601
0.00326251
0.00325888
0.00325511
0.00325117
0.00324709
0.00324273
0.00323927
0.00323232
0.00648484
0.00601228
0.00564872
0.00535877
0.00512196
0.00492508
0.00475901
0.00461722
0.00449487
0.00438842
0.00429595
0.00421539
0.00414454
0.00408155
0.00402498
0.00397374
0.00392702
0.00388422
0.00384487
0.0038086
0.00377513
0.00374422
0.00371565
0.00368927
0.00366491
0.00364241
0.00362164
0.00360247
0.00358477
0.00356844
0.00355335
0.00353941
0.00352651
0.00351458
0.00350353
0.00349328
0.00348373
0.00347481
0.00346642
0.00345848
0.00345091
0.00344366
0.00343666
0.00342988
0.00342327
0.00341682
0.00341051
0.00340433
0.00339827
0.00339234
0.00338653
0.00338083
0.00337523
0.00336973
0.00336434
0.00335905
0.00335387
0.00334881
0.00334386
0.00333904
0.00333433
0.00332976
0.00332531
0.00332099
0.00331679
0.00331273
0.0033088
0.003305
0.00330132
0.00329777
0.00329436
0.00329106
0.00328789
0.00328484
0.00328189
0.00327905
0.00327631
0.00327362
0.00327097
0.00326822
0.00326525
0.00326214
0.00325899
0.00325581
0.00325257
0.00324922
0.00324577
0.00324208
0.00323912
0.00323401
0.00648479
0.00601217
0.00564853
0.00535849
0.00512157
0.00492454
0.00475828
0.00461624
0.00449354
0.00438684
0.00435502
0.0043395
0.00431551
0.00427852
0.00423068
0.00417575
0.00411721
0.00405778
0.00399938
0.00394333
0.00389046
0.00384125
0.00379593
0.00375456
0.00371707
0.00368327
0.00365292
0.00362566
0.0036011
0.00357882
0.00355835
0.00353917
0.00352222
0.00350807
0.00349606
0.00348565
0.00347644
0.00346811
0.00346042
0.00345322
0.00344634
0.0034397
0.00343321
0.00342682
0.0034207
0.00341495
0.00340958
0.00340456
0.00339984
0.00339538
0.00339113
0.00338706
0.00338314
0.00337936
0.00337569
0.00337215
0.00336872
0.00336541
0.00336222
0.00335915
0.00335619
0.00335334
0.00335061
0.00334799
0.00334548
0.00334308
0.00334079
0.00333861
0.00333654
0.00333459
0.00333274
0.00333101
0.0033294
0.00332791
0.00332655
0.0033253
0.00332417
0.00332312
0.00332213
0.00332096
0.00331253
0.00330253
0.00329288
0.00328412
0.00327631
0.0032693
0.00326293
0.00325681
0.00325166
0.0032443
0.00648475
0.00601206
0.00564834
0.00535819
0.00512112
0.00492388
0.00475724
0.00461453
0.00449001
0.00438985
0.00774281
0.00847676
0.00847167
0.00821893
0.00789883
0.00757965
0.0072864
0.00702687
0.0068021
0.00661051
0.00644966
0.00631683
0.00620923
0.00612405
0.00605844
0.00600955
0.00597453
0.00595062
0.00593522
0.00592596
0.0059208
0.00591805
0.00591684
0.00591715
0.00591877
0.0059212
0.00592394
0.00592663
0.00592909
0.00593125
0.00593317
0.00593499
0.00593665
0.00593813
0.00593938
0.00594055
0.00594196
0.00594395
0.00594683
0.00595087
0.00595627
0.00596312
0.00597153
0.00598156
0.00599325
0.00600656
0.00602148
0.00603805
0.00605632
0.00607628
0.00609792
0.00612123
0.00614615
0.00617264
0.00620063
0.00623005
0.00626082
0.00629285
0.00632605
0.0063603
0.00639551
0.00643153
0.00646824
0.00650553
0.00654334
0.00658169
0.00662094
0.00666184
0.00670918
0.00675264
0.00540261
0.00460423
0.00410993
0.00379473
0.00359021
0.00345605
0.0033674
0.0033079
0.00326819
0.00323563
0.0064847
0.00601195
0.00564816
0.00535792
0.00512074
0.00492335
0.00475653
0.00461359
0.00448873
0.00438824
0.00774258
0.00847809
0.00847114
0.00821407
0.00788816
0.00756229
0.00726189
0.00699511
0.00676321
0.00656485
0.00639777
0.00625942
0.00614718
0.00605837
0.00599024
0.00593996
0.00590466
0.0058815
0.00586771
0.00586074
0.00585829
0.0058584
0.00585947
0.00586023
0.00585981
0.00585755
0.00585303
0.00584594
0.00583614
0.00582357
0.00580823
0.0057902
0.00576992
0.00574769
0.00572372
0.00569828
0.00567168
0.00564421
0.00561611
0.00558755
0.00555874
0.00552987
0.00550114
0.00547273
0.00544485
0.00541768
0.00539147
0.00536644
0.00534284
0.00532091
0.00530099
0.00528337
0.00526837
0.00525631
0.00524753
0.00524237
0.00524113
0.0052441
0.00525146
0.0052634
0.00527997
0.0053012
0.00532702
0.00535735
0.00539208
0.00543108
0.0054745
0.00552235
0.00557898
0.00563251
0.00470289
0.004131
0.00376381
0.00352148
0.00335923
0.00324998
0.00317632
0.00312541
0.00308935
0.00305192
0.00648466
0.00601184
0.00564798
0.00535765
0.00512036
0.00492283
0.00475581
0.0046126
0.00448736
0.00438637
0.00773513
0.00847107
0.00846572
0.00821018
0.00788538
0.00756011
0.00725986
0.00699289
0.00676063
0.0065619
0.0063946
0.00625636
0.00614471
0.00605708
0.00599082
0.00594316
0.0059112
0.00589206
0.00588289
0.00588102
0.00588407
0.00588996
0.00589701
0.00590389
0.00590964
0.00591359
0.00591532
0.00591454
0.00591113
0.00590507
0.00589639
0.0058852
0.00587164
0.0058559
0.00583819
0.00581877
0.00579791
0.00577586
0.00575287
0.00572917
0.00570498
0.00568045
0.00565573
0.00563091
0.00560605
0.00558114
0.00555617
0.0055311
0.00550588
0.00548047
0.0054548
0.00542885
0.00540261
0.00537606
0.00534917
0.00532192
0.0052943
0.00526635
0.00523812
0.00520969
0.00518119
0.00515276
0.00512461
0.00509699
0.00507021
0.00504468
0.00502111
0.00500003
0.00498556
0.00496715
0.00417007
0.00370019
0.00340964
0.00322156
0.00309433
0.0030044
0.00293794
0.0028848
0.00283992
0.00278292
0.00648462
0.00601174
0.00564781
0.00535741
0.00512004
0.00492241
0.00475527
0.00461193
0.00448654
0.00438541
0.00773254
0.00846863
0.0084636
0.00820819
0.00788332
0.00755781
0.00725719
0.00698981
0.00675713
0.00655803
0.00639044
0.00625204
0.00614037
0.00605291
0.00598702
0.00593994
0.0059088
0.00589069
0.00588275
0.00588229
0.00588691
0.0058945
0.00590338
0.00591221
0.00592002
0.00592612
0.00593006
0.00593152
0.00593031
0.00592639
0.00591975
0.00591047
0.00589868
0.00588459
0.00586846
0.00585065
0.00583154
0.00581152
0.00579094
0.00577016
0.00574947
0.00572914
0.00571011
0.00569252
0.00567621
0.00566101
0.00564679
0.00563345
0.00562095
0.0056093
0.00559858
0.00558886
0.00558015
0.00557243
0.00556571
0.00555999
0.00555526
0.00555149
0.00554863
0.00554664
0.00554543
0.00554496
0.00554513
0.00554591
0.00554727
0.0055493
0.00555241
0.00555735
0.00556906
0.005589
0.00470409
0.00420433
0.00390398
0.00371189
0.00358064
0.00348419
0.00340737
0.00333958
0.0032741
0.00320768
0.00648458
0.00601164
0.00564766
0.00535719
0.00511974
0.00492202
0.00475479
0.00461134
0.00448582
0.00438455
0.00772937
0.00846496
0.0084599
0.00820458
0.0078798
0.00755431
0.00725364
0.00698612
0.00675327
0.00655398
0.00638623
0.0062477
0.00613599
0.00604859
0.00598288
0.0059361
0.00590539
0.00588782
0.00588053
0.00588082
0.00588626
0.00589475
0.0059046
0.00591447
0.00592337
0.0059306
0.00593567
0.00593819
0.00593794
0.00593476
0.00592858
0.0059194
0.00590732
0.00589251
0.0058753
0.00585609
0.00583531
0.00581342
0.00579082
0.0057679
0.00574499
0.00572236
0.00570022
0.00567874
0.00565803
0.00563816
0.00561916
0.00560106
0.00558384
0.00556802
0.00555354
0.00554022
0.00552788
0.00551638
0.00550563
0.00549558
0.00548625
0.0054777
0.00547002
0.00546326
0.00545746
0.00545267
0.005449
0.00544657
0.00544553
0.00544615
0.00544902
0.00545503
0.00546912
0.00549339
0.00464349
0.00416761
0.00388495
0.00370696
0.00358764
0.00350181
0.00343485
0.00337653
0.00331779
0.0032395
0.00648454
0.00601155
0.00564751
0.00535699
0.00511948
0.0049217
0.00475441
0.00461089
0.00448531
0.00438395
0.00772715
0.00846211
0.00845664
0.00820099
0.00787589
0.00755011
0.00724917
0.00698141
0.00674835
0.0065489
0.00638104
0.00624248
0.0061308
0.00604351
0.00597798
0.00593146
0.00590105
0.00588384
0.00587694
0.00587763
0.00588349
0.00589243
0.00590274
0.00591312
0.00592259
0.00593044
0.00593615
0.00593928
0.00593949
0.00593654
0.0059302
0.00592036
0.00590708
0.0058905
0.00587098
0.00584902
0.00582514
0.00579989
0.00577378
0.00574724
0.00572065
0.00569429
0.00566837
0.00564302
0.00561834
0.00559436
0.00557108
0.00554847
0.00552647
0.00550503
0.00548408
0.00546353
0.00544332
0.00542335
0.00540352
0.00538375
0.00536394
0.00534401
0.00532388
0.00530347
0.0052827
0.00526149
0.0052398
0.00521758
0.00519485
0.00517164
0.0051482
0.00512461
0.00510391
0.0050763
0.0042796
0.00382284
0.00354821
0.00337334
0.00325372
0.00316458
0.00309194
0.00302625
0.00296383
0.00288114
0.0064845
0.00601146
0.00564737
0.0053568
0.00511926
0.00492145
0.00475412
0.00461058
0.00448499
0.00438362
0.00772598
0.00846022
0.008454
0.00819758
0.00787176
0.00754531
0.0072438
0.00697559
0.00674221
0.00654255
0.00637463
0.00623613
0.00612463
0.00603762
0.00597243
0.00592628
0.00589623
0.00587932
0.00587264
0.00587348
0.00587941
0.00588838
0.00589875
0.00590925
0.00591897
0.00592724
0.00593354
0.00593736
0.00593824
0.00593572
0.00592936
0.00591887
0.00590416
0.00588539
0.00586299
0.00583757
0.00580985
0.00578052
0.0057502
0.00571944
0.00568865
0.00565816
0.00562817
0.00559881
0.00557015
0.00554217
0.00551485
0.00548811
0.00546188
0.00543606
0.00541057
0.0053853
0.00536017
0.00533509
0.00530999
0.00528481
0.00525949
0.00523402
0.00520839
0.00518262
0.00515678
0.00513097
0.00510534
0.00508011
0.00505559
0.00503218
0.00501055
0.00499121
0.00497806
0.00496072
0.00417552
0.00372044
0.00344542
0.00327219
0.00315813
0.00307924
0.00302162
0.00297552
0.00293637
0.00288447
0.00648446
0.00601137
0.00564724
0.00535664
0.00511906
0.00492123
0.00475389
0.00461035
0.00448476
0.00438336
0.00772396
0.00845674
0.00844936
0.00819216
0.00786585
0.00753918
0.00723762
0.00696951
0.00673635
0.00653705
0.00636963
0.00623183
0.00612122
0.0060353
0.00597137
0.00592655
0.00589786
0.00588225
0.00587679
0.00587878
0.00588586
0.00589609
0.00590797
0.00592038
0.00593252
0.00594377
0.00595356
0.00596121
0.00596593
0.00596682
0.00596298
0.00595374
0.00593887
0.00591856
0.00589352
0.00586477
0.00583341
0.00580052
0.00576704
0.00573372
0.00570112
0.00566962
0.00563945
0.00561072
0.00558344
0.00555755
0.00553296
0.0055096
0.00548739
0.00546626
0.00544616
0.00542704
0.00540885
0.00539159
0.00537526
0.00535991
0.0053456
0.00533242
0.0053205
0.00530999
0.00530106
0.00529391
0.00528878
0.00528594
0.00528573
0.00528857
0.00529514
0.00530644
0.00532736
0.00534953
0.00450073
0.00400866
0.00371026
0.00352152
0.00339722
0.00331201
0.00325107
0.00320452
0.0031666
0.00312283
0.00648442
0.00601129
0.00564712
0.0053565
0.00511891
0.0049211
0.00475384
0.00461043
0.00448509
0.00438404
0.00772714
0.00845834
0.00844862
0.00818925
0.00786131
0.00753378
0.00723238
0.00696567
0.00673536
0.00654057
0.00637944
0.00624967
0.00614864
0.00607348
0.00602102
0.00598788
0.00597066
0.00596604
0.005971
0.00598289
0.00599957
0.00601935
0.00604098
0.00606355
0.00608635
0.00610871
0.00612979
0.00614844
0.00616312
0.00617199
0.0061732
0.00616541
0.00614818
0.00612202
0.00608836
0.0060492
0.00600668
0.00596286
0.00591954
0.00587814
0.00583968
0.00580485
0.005774
0.00574722
0.00572442
0.00570536
0.0056899
0.00567784
0.00566887
0.00566265
0.00565881
0.00565704
0.00565707
0.00565871
0.00566184
0.00566639
0.00567232
0.00567965
0.00568841
0.00569864
0.00571041
0.00572379
0.00573888
0.0057558
0.00577474
0.00579601
0.00582029
0.00585078
0.00589443
0.00595128
0.00496527
0.00438591
0.00402434
0.00378755
0.0036264
0.00351315
0.00343118
0.00336954
0.0033208
0.00327382
0.00648438
0.00601121
0.00564701
0.00535636
0.00511877
0.00492098
0.00475376
0.00461044
0.00448527
0.00438434
0.00772154
0.00844969
0.00844128
0.00818564
0.00786572
0.00755215
0.00727173
0.00703332
0.00683815
0.00668406
0.00656729
0.00648329
0.00642715
0.006394
0.00637919
0.00637856
0.00638852
0.00640614
0.0064291
0.00645569
0.00648468
0.00651524
0.00654685
0.00657917
0.00661192
0.0066447
0.00667682
0.00670699
0.00673323
0.00675278
0.00676242
0.00675939
0.00674207
0.00671031
0.00666545
0.00660995
0.00654683
0.00647934
0.0064107
0.00634387
0.00628141
0.00622542
0.00617745
0.00613849
0.00610896
0.00608885
0.00607938
0.00607984
0.00608814
0.00610204
0.00611966
0.00613961
0.00616092
0.006183
0.00620547
0.00622815
0.00625097
0.00627392
0.006297
0.00632027
0.00634378
0.00636757
0.00639173
0.00641633
0.00644154
0.00646763
0.00649532
0.00652591
0.00656524
0.0066093
0.00535224
0.00461261
0.0041542
0.0038591
0.00366379
0.00353171
0.00344075
0.0033768
0.0033312
0.0032944
0.00648435
0.00601114
0.0056469
0.00535624
0.00511868
0.00492098
0.00475402
0.00461124
0.00448778
0.00438019
0.00430457
0.00423878
0.00417159
0.00410918
0.00405077
0.00399616
0.0039453
0.00389815
0.00385461
0.00381458
0.0037779
0.00374439
0.00371386
0.00368614
0.00366102
0.00363831
0.00361783
0.00359941
0.0035829
0.00356817
0.0035551
0.0035436
0.00353361
0.00352511
0.00351809
0.0035126
0.00350867
0.00350627
0.00350531
0.00350553
0.00350648
0.00350759
0.0035083
0.00350812
0.00350671
0.00350384
0.00349945
0.00349365
0.00348664
0.00347862
0.00346987
0.00346064
0.00345117
0.0034417
0.00343242
0.00342349
0.00341504
0.00340716
0.00339992
0.00339331
0.00338733
0.00338194
0.00337707
0.00337268
0.00336871
0.0033651
0.0033618
0.00335876
0.00335594
0.00335332
0.00335086
0.00334854
0.00334635
0.00334428
0.00334231
0.00334043
0.00333865
0.00333693
0.00333529
0.00333352
0.00332525
0.00331556
0.00330618
0.00329763
0.00329
0.00328319
0.00327712
0.00327152
0.00326703
0.00326041
0.00648431
0.00601106
0.00564679
0.00535611
0.00511854
0.00492085
0.00475393
0.00461124
0.00448794
0.00438046
0.00428634
0.0042035
0.00413004
0.00406447
0.00400558
0.00395242
0.0039042
0.00386028
0.00382015
0.00378338
0.00374961
0.00371853
0.00368992
0.00366355
0.00363925
0.00361687
0.00359629
0.0035774
0.00356013
0.0035444
0.00353017
0.00351741
0.00350612
0.00349635
0.00348817
0.0034817
0.00347709
0.00347442
0.00347367
0.00347457
0.0034765
0.00347869
0.00348036
0.0034809
0.00347995
0.0034774
0.00347327
0.00346769
0.00346087
0.00345304
0.00344443
0.00343529
0.00342583
0.00341622
0.00340663
0.00339717
0.00338797
0.0033791
0.00337063
0.00336261
0.00335508
0.00334804
0.0033415
0.00333545
0.00332988
0.00332477
0.00332008
0.00331579
0.00331187
0.0033083
0.00330503
0.00330205
0.00329933
0.00329685
0.00329458
0.00329251
0.0032906
0.00328884
0.00328718
0.00328551
0.0032837
0.0032818
0.00327991
0.00327806
0.00327624
0.00327442
0.00327259
0.00327059
0.00326916
0.00326446
0.00648428
0.00601098
0.00564667
0.00535597
0.00511839
0.00492072
0.00475386
0.00461129
0.00448821
0.00438104
0.00428709
0.00420419
0.00413056
0.00406475
0.00400559
0.00395214
0.00390362
0.0038594
0.00381894
0.00378181
0.00374765
0.00371616
0.00368708
0.00366021
0.00363537
0.00361243
0.00359125
0.00357175
0.00355384
0.00353746
0.00352259
0.00350921
0.00349735
0.00348709
0.00347856
0.003472
0.00346768
0.00346592
0.00346689
0.00347028
0.00347522
0.00348053
0.00348503
0.00348785
0.00348853
0.00348696
0.00348323
0.00347754
0.0034702
0.00346152
0.00345187
0.00344157
0.00343084
0.00341985
0.00340885
0.00339805
0.00338761
0.00337766
0.00336827
0.00335952
0.00335144
0.00334405
0.00333735
0.00333134
0.00332598
0.00332125
0.00331712
0.00331356
0.00331051
0.00330795
0.00330582
0.0033041
0.00330273
0.00330169
0.00330092
0.00330039
0.00330005
0.00329985
0.00329973
0.00329962
0.00329943
0.0032991
0.00329866
0.00329808
0.00329731
0.00329626
0.00329483
0.00329258
0.00328962
0.00327986
0.00648424
0.0060109
0.00564655
0.0053558
0.00511819
0.0049205
0.00475361
0.00461102
0.0044879
0.00438067
0.00428656
0.00420341
0.00412949
0.00406337
0.00400389
0.00395013
0.00390129
0.00385674
0.00381596
0.00377849
0.00374397
0.00371211
0.00368266
0.0036554
0.00363017
0.00360681
0.00358523
0.00356531
0.00354698
0.00353018
0.00351488
0.00350107
0.00348878
0.00347814
0.00346932
0.0034627
0.00345878
0.0034582
0.00346168
0.00346906
0.00347912
0.00348997
0.00349963
0.00350671
0.0035106
0.00351121
0.00350876
0.00350363
0.00349627
0.00348717
0.00347704
0.00346617
0.00345492
0.00344357
0.00343239
0.00342159
0.00341135
0.00340181
0.00339309
0.00338527
0.00337842
0.00337254
0.00336765
0.00336373
0.00336071
0.00335855
0.00335716
0.00335645
0.00335631
0.00335665
0.00335735
0.00335831
0.0033594
0.00336055
0.00336165
0.00336261
0.00336337
0.00336386
0.003364
0.00336374
0.003363
0.00336172
0.00335989
0.00335745
0.00335439
0.00335061
0.00334601
0.00334012
0.00333307
0.00331839
0.00648421
0.00601081
0.00564642
0.00535563
0.00511798
0.00492024
0.00475332
0.00461069
0.00448754
0.00438024
0.00428603
0.00420273
0.00412858
0.00406219
0.0040024
0.00394828
0.00389906
0.00385411
0.00381289
0.00377497
0.00373999
0.00370765
0.0036777
0.00364995
0.00362423
0.00360039
0.00357833
0.00355793
0.00353913
0.00352185
0.00350605
0.00349171
0.00347886
0.0034676
0.00345818
0.00345111
0.00344714
0.00344762
0.00345498
0.00347054
0.00349305
0.00351872
0.00354294
0.00356288
0.00357745
0.00358657
0.00359079
0.00359089
0.00358774
0.00358217
0.0035757
0.00356915
0.00356297
0.00355751
0.00355301
0.00354964
0.00354744
0.0035464
0.00354643
0.00354736
0.003549
0.00355114
0.00355354
0.00355599
0.00355829
0.00356025
0.00356175
0.00356266
0.0035629
0.00356241
0.00356117
0.00355917
0.00355642
0.00355294
0.00354876
0.00354392
0.00353846
0.00353242
0.00352583
0.00351871
0.00351109
0.00350296
0.00349435
0.00348525
0.00347565
0.00346547
0.00345461
0.00344259
0.0034295
0.0034093
0.00648417
0.00601073
0.00564629
0.00535544
0.00511773
0.00491993
0.00475294
0.00461022
0.00448696
0.00437953
0.00428514
0.0042016
0.00412717
0.00406046
0.00400032
0.00394583
0.00389621
0.00385082
0.00380915
0.00377075
0.00373527
0.00370242
0.00367194
0.00364365
0.00361739
0.00359301
0.00357041
0.00354949
0.00353015
0.00351233
0.00349595
0.00348097
0.00346738
0.00345527
0.00344485
0.00343676
0.00343203
0.00343343
0.00345149
0.00349643
0.00356678
0.00364759
0.00372348
0.00378847
0.00384099
0.00388196
0.0039132
0.0039367
0.00395424
0.00396731
0.00397656
0.00398506
0.00399229
0.00399778
0.00400115
0.00400219
0.00400085
0.00399717
0.00399131
0.00398348
0.0039739
0.00396282
0.00395046
0.00393703
0.00392271
0.00390767
0.00389204
0.00387595
0.00385951
0.00384279
0.00382589
0.00380886
0.00379176
0.00377464
0.00375753
0.00374048
0.00372351
0.00370663
0.00368985
0.00367317
0.00365659
0.00364009
0.00362364
0.00360722
0.00359075
0.00357414
0.00355723
0.00353951
0.00352095
0.00349605
0.00648413
0.00601065
0.00564615
0.00535525
0.00511748
0.0049196
0.00475253
0.00460971
0.00448633
0.00437876
0.00428418
0.00420042
0.00412573
0.00405871
0.00399823
0.00394334
0.00389328
0.00384741
0.00380522
0.00376626
0.00373019
0.00369671
0.00366559
0.00363665
0.00360973
0.0035847
0.00356146
0.00353992
0.00351996
0.0035015
0.00348443
0.00346868
0.00345416
0.00344085
0.00342878
0.00341865
0.00341152
0.00341349
0.00348237
0.00366592
0.00393036
0.00419376
0.00440884
0.00457064
0.00468366
0.00475682
0.00479879
0.00481694
0.00481726
0.00480453
0.00478234
0.00475191
0.00471538
0.00467439
0.00463045
0.00458489
0.00453875
0.0044928
0.0044476
0.00440351
0.00436075
0.00431944
0.00427959
0.00424121
0.00420422
0.00416859
0.00413421
0.00410103
0.00406898
0.00403797
0.00400797
0.0039789
0.00395072
0.00392338
0.00389685
0.00387108
0.00384606
0.00382176
0.0037981
0.00377502
0.00375244
0.0037303
0.00370854
0.00368713
0.00366603
0.00364509
0.00362411
0.00360255
0.00358024
0.00355216
0.0064841
0.00601056
0.00564602
0.00535506
0.00511721
0.00491926
0.00475208
0.00460915
0.00448563
0.00437788
0.0042831
0.00419909
0.0041241
0.00405674
0.00399587
0.00394055
0.00389001
0.00384361
0.00380084
0.00376126
0.00372451
0.00369032
0.00365847
0.00362877
0.00360109
0.00357531
0.00355134
0.00352908
0.00350843
0.00348928
0.00347151
0.003455
0.00343957
0.00342509
0.00341128
0.00339874
0.00338781
0.00339664
0.00373392
0.00442201
0.00512536
0.00562188
0.00589953
0.0060169
0.00602409
0.00596265
0.00586222
0.00574261
0.00561628
0.00549045
0.00536845
0.00525172
0.00514185
0.00503983
0.00494581
0.00485944
0.00478014
0.00470718
0.00463984
0.00457744
0.0045194
0.00446524
0.00441471
0.00436731
0.00432244
0.00427971
0.00423885
0.00419967
0.00416203
0.00412581
0.00409091
0.00405725
0.00402477
0.00399339
0.00396307
0.00393373
0.00390532
0.0038778
0.00385108
0.00382513
0.00379986
0.0037752
0.00375107
0.00372735
0.0037039
0.00368048
0.00365674
0.00363187
0.00360641
0.00357613
0.00648407
0.00601049
0.00564589
0.00535487
0.00511695
0.00491891
0.00475163
0.00460858
0.00448491
0.00437698
0.00428198
0.00419772
0.00412243
0.00405472
0.00399345
0.00393766
0.0038866
0.00383962
0.00379619
0.00375589
0.00371836
0.00368333
0.00365059
0.00361999
0.00359139
0.00356472
0.0035399
0.00351682
0.00349539
0.00347548
0.00345697
0.00343971
0.00342346
0.00340794
0.00339229
0.00337653
0.00335763
0.0033996
0.0046497
0.00609248
0.00701898
0.00740834
0.00742246
0.00722845
0.00694093
0.00662849
0.00632746
0.00605422
0.00581401
0.00560634
0.00542826
0.00527582
0.00514504
0.00503203
0.0049334
0.00484654
0.00476975
0.00470146
0.00463905
0.00458103
0.00452651
0.00447492
0.00442587
0.00437909
0.00433434
0.00429145
0.00425028
0.0042107
0.00417261
0.00413592
0.00410056
0.00406645
0.00403352
0.00400171
0.00397097
0.00394124
0.00391246
0.00388458
0.00385755
0.00383129
0.00380575
0.00378085
0.0037565
0.00373258
0.00370893
0.00368528
0.0036613
0.00363607
0.00360804
0.00357548
0.00648405
0.00601043
0.00564578
0.0053547
0.00511671
0.00491858
0.0047512
0.00460801
0.00448418
0.00437607
0.00428084
0.0041963
0.0041207
0.00405262
0.0039909
0.00393462
0.00388298
0.00383535
0.00379118
0.00375005
0.00371162
0.00367561
0.00364183
0.00361015
0.00358048
0.00355276
0.00352694
0.00350294
0.00348066
0.00345999
0.00344082
0.00342315
0.00340688
0.00339201
0.00337778
0.00336422
0.00334702
0.00339368
0.00474937
0.0062828
0.00725417
0.00762217
0.00761769
0.0074034
0.00708796
0.00674241
0.00640687
0.00610063
0.00583091
0.00559848
0.00540074
0.00523392
0.00509388
0.00497811
0.00488041
0.00479577
0.00472083
0.00465325
0.00459137
0.00453403
0.00448038
0.00442982
0.00438192