/*--------------------------------*- C++ -*----------------------------------*\
| =========                 |                                                 |
| \\      /  F ield         | OpenFOAM: The Open Source CFD Toolbox           |
|  \\    /   O peration     | Version:  v2012                                 |
|   \\  /    A nd           | Website:  www.openfoam.com                      |
|    \\/     M anipulation  |                                                 |
\*---------------------------------------------------------------------------*/
FoamFile
{
    version     2.0;
    format      ascii;
    class       volScalarField;
    location    "600/air";
    object      qin;
}
// * * * * * * * * * * * * * * * * * * * * * * * * * * * * * * * * * * * * * //

dimensions      [1 0 -3 0 0 0 0];


internalField   uniform 0;

boundaryField
{
    inlet
    {
        type            calculated;
        value           nonuniform List<scalar> 
3200
(
582.299
586.457
584.767
583.472
582.392
581.36
580.342
579.33
578.323
577.323
576.332
575.356
574.395
573.45
572.52
571.601
570.693
569.798
568.919
568.055
567.203
566.358
565.518
564.682
563.852
563.034
562.245
561.507
560.852
560.311
559.908
559.658
559.554
559.56
559.612
559.649
559.652
559.634
559.616
559.599
559.578
559.55
559.525
559.511
559.502
559.491
559.477
559.46
559.439
559.415
559.39
559.363
559.336
559.311
559.288
559.259
559.212
559.13
559.001
558.825
558.621
558.421
558.259
558.153
558.096
558.052
557.971
557.82
557.598
557.35
557.149
557.069
557.146
557.36
557.627
557.818
557.757
557.199
555.734
550.099
572.951
584.697
584.347
582.706
581.319
580.104
578.995
577.944
576.923
575.929
574.972
574.059
573.183
572.321
571.445
570.54
569.614
568.69
567.787
566.909
566.052
565.212
564.385
563.571
562.773
561.998
561.258
560.573
559.967
559.465
559.087
558.849
558.75
558.755
558.802
558.84
558.856
558.861
558.861
558.858
558.849
558.834
558.825
558.825
558.83
558.833
558.832
558.827
558.818
558.806
558.792
558.775
558.759
558.742
558.727
558.711
558.692
558.665
558.626
558.577
558.523
558.476
558.45
558.447
558.454
558.439
558.361
558.182
557.887
557.493
557.035
556.558
556.084
555.597
555.031
554.255
553.116
551.598
549.497
542.935
564.139
579.669
582.301
581.393
580.221
579.077
577.976
576.937
575.966
575.058
574.206
573.393
572.59
571.768
570.911
570.019
569.113
568.213
567.328
566.453
565.578
564.701
563.83
562.977
562.157
561.386
560.676
560.044
559.505
559.078
558.774
558.595
558.528
558.537
558.574
558.604
558.616
558.617
558.612
558.604
558.592
558.577
558.567
558.566
558.57
558.573
558.576
558.577
558.576
558.574
558.573
558.572
558.574
558.577
558.583
558.59
558.598
558.602
558.598
558.58
558.543
558.482
558.396
558.275
558.098
557.831
557.434
556.876
556.156
555.311
554.411
553.537
552.742
552.013
551.251
550.325
549.263
548.302
546.596
539.802
557.729
574.088
579.526
579.865
579.283
578.512
577.585
576.586
575.595
574.643
573.751
572.89
572.011
571.098
570.164
569.231
568.318
567.426
566.537
565.636
564.69
563.706
562.732
561.807
560.963
560.217
559.584
559.072
558.685
558.425
558.282
558.234
558.252
558.298
558.341
558.364
558.37
558.365
558.355
558.342
558.329
558.318
558.313
558.317
558.327
558.34
558.355
558.371
558.386
558.399
558.409
558.414
558.411
558.395
558.361
558.305
558.222
558.109
557.961
557.774
557.54
557.251
556.901
556.482
555.986
555.404
554.731
553.976
553.174
552.381
551.656
551.031
550.475
549.894
549.183
548.376
547.756
547.338
545.234
538.037
553.155
568.834
576.406
577.943
577.832
577.424
576.766
575.888
574.878
573.807
572.747
571.707
570.665
569.611
568.557
567.524
566.532
565.585
564.665
563.754
562.815
561.871
560.978
560.187
559.528
559.009
558.614
558.323
558.117
557.984
557.915
557.898
557.915
557.946
557.975
557.996
558.01
558.017
558.02
558.021
558.022
558.026
558.036
558.05
558.066
558.081
558.091
558.091
558.079
558.049
557.999
557.923
557.816
557.673
557.485
557.249
556.962
556.623
556.236
555.805
555.336
554.835
554.311
553.775
553.243
552.726
552.236
551.78
551.358
550.959
550.55
550.079
549.487
548.752
547.967
547.402
547.292
546.939
543.895
536.72
549.5
563.571
572.602
575.302
575.52
575.33
574.941
574.296
573.429
572.407
571.233
569.932
568.618
567.364
566.162
565.002
563.908
562.902
561.988
561.126
560.346
559.693
559.149
558.712
558.419
558.27
558.206
558.151
558.052
557.904
557.738
557.597
557.507
557.471
557.474
557.498
557.532
557.564
557.59
557.608
557.619
557.624
557.623
557.613
557.589
557.545
557.476
557.378
557.246
557.077
556.868
556.619
556.327
555.994
555.62
555.208
554.764
554.3
553.827
553.359
552.911
552.496
552.13
551.829
551.602
551.445
551.33
551.206
551.004
550.654
550.108
549.372
548.516
547.694
547.141
547.082
547.311
546.457
542.415
535.766
546.262
558.245
568.119
572.079
572.707
572.677
572.544
572.211
571.659
570.966
569.922
568.434
566.803
565.3
563.945
562.687
561.537
560.522
559.659
558.855
558.251
557.964
557.839
557.744
557.724
557.819
557.957
558.017
557.923
557.686
557.382
557.106
556.919
556.829
556.811
556.83
556.861
556.887
556.899
556.89
556.859
556.806
556.73
556.627
556.493
556.324
556.118
555.875
555.595
555.282
554.94
554.575
554.195
553.805
553.413
553.027
552.656
552.31
552.001
551.74
551.535
551.394
551.323
551.316
551.352
551.384
551.34
551.136
550.703
550.025
549.158
548.232
547.422
546.914
546.86
547.219
547.319
545.588
540.862
535.082
543.487
553.264
563.361
568.619
569.854
570.01
570.146
570.171
569.993
569.747
569.072
567.656
565.863
564.177
562.713
561.403
560.234
559.228
558.405
557.613
557.071
557.013
557.18
557.273
557.301
557.376
557.477
557.486
557.328
557.018
556.648
556.318
556.089
555.964
555.908
555.879
555.85
555.808
555.744
555.652
555.528
555.374
555.192
554.982
554.747
554.486
554.204
553.905
553.594
553.281
552.972
552.675
552.396
552.141
551.913
551.716
551.554
551.433
551.356
551.325
551.338
551.385
551.446
551.49
551.469
551.322
550.987
550.43
549.666
548.777
547.9
547.186
546.764
546.717
547.042
547.446
547.003
544.37
539.409
534.619
541.31
549.018
558.762
565.234
567.292
567.671
568.059
568.473
568.652
568.736
568.425
567.284
565.582
563.881
562.404
561.097
559.927
558.91
558.085
557.275
556.691
556.654
556.928
557.082
557.033
556.93
556.836
556.691
556.432
556.07
555.674
555.32
555.051
554.865
554.73
554.611
554.489
554.353
554.201
554.029
553.836
553.625
553.399
553.167
552.935
552.706
552.484
552.275
552.081
551.908
551.759
551.636
551.539
551.466
551.416
551.391
551.392
551.42
551.472
551.536
551.591
551.604
551.54
551.357
551.022
550.519
549.857
549.082
548.278
547.551
546.998
546.686
546.649
546.89
547.301
547.425
546.269
542.945
538.138
534.296
539.676
545.643
554.568
562.06
565.165
565.827
566.345
567.102
567.642
567.914
567.776
566.884
565.382
563.792
562.403
561.187
560.082
559.088
558.256
557.446
556.781
556.605
556.808
556.946
556.815
556.53
556.219
555.892
555.514
555.087
554.652
554.257
553.928
553.666
553.452
553.262
553.08
552.901
552.725
552.55
552.376
552.204
552.043
551.898
551.774
551.67
551.584
551.518
551.469
551.437
551.419
551.415
551.423
551.444
551.477
551.522
551.578
551.634
551.674
551.667
551.575
551.362
551
550.487
549.848
549.133
548.411
547.756
547.23
546.867
546.676
546.654
546.806
547.115
547.395
547.065
545.208
541.474
537.081
534.063
538.463
543.105
550.846
559.008
563.34
564.43
564.894
565.791
566.689
567.191
567.142
566.362
564.973
563.452
562.153
561.095
560.177
559.336
558.59
557.834
557.109
556.718
556.713
556.756
556.563
556.156
555.675
555.19
554.704
554.215
553.743
553.317
552.953
552.656
552.417
552.22
552.052
551.905
551.78
551.671
551.575
551.5
551.455
551.44
551.444
551.456
551.47
551.486
551.502
551.515
551.523
551.528
551.538
551.561
551.595
551.632
551.652
551.626
551.52
551.302
550.942
550.435
549.804
549.1
548.398
547.775
547.286
546.954
546.766
546.685
546.682
546.762
546.951
547.204
547.232
546.374
543.922
540.058
536.222
533.874
537.619
541.312
547.596
555.901
561.486
563.264
563.585
564.299
565.424
566.303
566.502
565.83
564.435
562.816
561.452
560.492
559.833
559.303
558.792
558.188
557.479
556.907
556.647
556.527
556.268
555.795
555.215
554.634
554.089
553.582
553.117
552.706
552.358
552.078
551.864
551.705
551.586
551.499
551.436
551.39
551.364
551.368
551.407
551.468
551.526
551.568
551.594
551.611
551.621
551.622
551.611
551.591
551.573
551.558
551.537
551.484
551.363
551.143
550.798
550.321
549.726
549.053
548.367
547.741
547.242
546.908
546.734
546.679
546.684
546.704
546.74
546.835
547.006
547.132
546.816
545.412
542.522
538.764
535.534
533.703
537.092
540.123
544.821
552.661
559.296
562.06
562.377
562.648
563.698
564.952
565.611
565.241
563.904
562.115
560.512
559.479
559.003
558.813
558.621
558.248
557.66
557.031
556.579
556.294
555.974
555.486
554.881
554.273
553.727
553.25
552.833
552.469
552.161
551.911
551.721
551.586
551.496
551.438
551.397
551.373
551.38
551.416
551.446
551.441
551.395
551.333
551.283
551.258
551.254
551.266
551.286
551.307
551.309
551.262
551.136
550.906
550.561
550.105
549.554
548.939
548.306
547.711
547.209
546.844
546.635
546.564
546.585
546.637
546.673
546.689
546.725
546.823
546.941
546.861
546.133
544.227
541.091
537.624
534.978
533.531
536.733
539.341
542.531
549.372
556.631
560.566
561.246
561.087
561.749
563.119
564.242
564.364
563.313
561.482
559.608
558.338
557.844
557.832
557.88
557.745
557.374
556.856
556.368
556.011
555.686
555.243
554.677
554.088
553.564
553.126
552.759
552.442
552.165
551.926
551.732
551.585
551.487
551.421
551.365
551.338
551.359
551.364
551.245
550.966
550.615
550.315
550.137
550.066
550.063
550.115
550.226
550.376
550.489
550.469
550.255
549.852
549.316
548.725
548.141
547.61
547.16
546.813
546.581
546.462
546.44
546.479
546.535
546.574
546.587
546.604
546.664
546.757
546.758
546.388
545.22
542.907
539.712
536.651
534.522
533.347
536.353
538.776
540.72
546.211
553.523
558.591
560.102
559.874
560.058
561.175
562.485
563.082
562.518
560.925
558.978
557.479
556.784
556.677
556.726
556.698
556.522
556.193
555.804
555.5
555.268
554.956
554.498
553.962
553.454
553.027
552.682
552.391
552.133
551.899
551.695
551.531
551.417
551.332
551.264
551.246
551.251
551.109
550.645
549.892
549.104
548.548
548.296
548.233
548.236
548.296
548.472
548.766
549.055
549.164
548.985
548.546
547.975
547.421
546.983
546.693
546.538
546.486
546.503
546.557
546.619
546.666
546.689
546.694
546.713
546.781
546.884
546.924
546.707
545.945
544.291
541.618
538.461
535.811
534.083
533.106
535.856
538.317
539.372
543.376
550.147
556.051
558.738
558.975
558.833
559.402
560.472
561.309
561.317
560.333
558.778
557.358
556.485
556.063
555.807
555.595
555.381
555.103
554.783
554.57
554.495
554.403
554.15
553.737
553.265
552.833
552.479
552.193
551.953
551.744
551.561
551.414
551.304
551.208
551.146
551.145
551.056
550.585
549.576
548.241
547.062
546.419
546.295
546.375
546.411
546.415
546.553
546.9
547.336
547.632
547.634
547.354
546.942
546.567
546.331
546.244
546.26
546.323
546.391
546.443
546.47
546.472
546.46
546.463
546.513
546.612
546.683
546.577
546.096
544.991
543.006
540.21
537.308
535.131
533.736
532.892
535.27
537.926
538.445
541.015
546.748
552.992
556.898
558.018
557.817
557.703
558.147
558.862
559.335
559.199
558.505
557.614
556.799
556.07
555.37
554.768
554.274
553.834
553.442
553.234
553.275
553.418
553.442
553.25
552.898
552.503
552.15
551.869
551.656
551.495
551.359
551.242
551.129
551.001
550.927
550.904
550.612
549.654
548.002
546.137
544.756
544.273
544.5
544.881
545.022
544.961
544.973
545.236
545.684
546.107
546.334
546.339
546.22
546.099
546.047
546.065
546.12
546.176
546.214
546.228
546.22
546.201
546.193
546.229
546.32
546.41
546.372
546.05
545.284
543.87
541.643
538.856
536.299
534.559
533.404
532.656
534.637
537.536
537.802
539.128
543.522
549.55
554.436
556.656
556.736
556.068
555.723
555.967
556.561
557.105
557.332
557.182
556.682
555.884
554.932
554.045
553.286
552.631
552.078
551.755
551.773
552.039
552.309
552.388
552.251
551.987
551.703
551.47
551.307
551.184
551.049
550.882
550.671
550.428
550.269
550.142
549.576
548.133
545.965
543.788
542.414
542.205
542.818
543.523
543.823
543.748
543.627
543.713
544.025
544.437
544.829
545.16
545.436
545.665
545.831
545.925
545.956
545.949
545.93
545.911
545.894
545.888
545.918
546
546.102
546.114
545.893
545.326
544.299
542.631
540.254
537.59
535.431
534.067
533.07
532.398
533.908
537.008
537.219
537.582
540.581
545.95
551.436
554.815
555.587
554.795
553.83
553.451
553.77
554.513
555.274
555.697
555.591
554.998
554.139
553.263
552.44
551.673
550.976
550.472
550.321
550.53
550.9
551.19
551.285
551.217
551.083
550.963
550.86
550.706
550.425
550.025
549.56
549.116
548.826
548.56
547.766
546.038
543.677
541.505
540.286
540.265
541.041
541.883
542.281
542.23
542.035
541.966
542.102
542.418
542.9
543.542
544.278
544.967
545.46
545.696
545.723
545.649
545.566
545.517
545.507
545.541
545.626
545.741
545.796
545.653
545.21
544.418
543.177
541.315
538.877
536.439
534.695
533.624
532.723
532.119
532.971
536.208
536.501
536.222
537.976
542.412
548.08
552.532
554.364
553.999
552.813
551.914
551.758
552.272
553.068
553.689
553.857
553.588
553.063
552.442
551.757
551.013
550.243
549.569
549.188
549.203
549.506
549.862
550.095
550.183
550.204
550.203
550.109
549.779
549.149
548.328
547.518
546.919
546.62
546.35
545.5
543.758
541.54
539.647
538.659
538.661
539.284
539.961
540.289
540.248
540.08
540.002
540.08
540.338
540.86
541.723
542.853
543.999
544.871
545.322
545.402
545.286
545.141
545.059
545.066
545.156
545.295
545.398
545.329
544.979
544.324
543.359
541.954
539.946
537.534
535.405
534.066
533.207
532.356
531.819
531.664
535.028
535.534
534.932
535.632
538.829
544.054
549.251
552.427
553.139
552.294
551.169
550.561
550.615
551.043
551.441
551.593
551.543
551.413
551.217
550.918
550.439
549.78
549.061
548.494
548.256
548.342
548.569
548.737
548.793
548.807
548.766
548.47
547.698
546.476
545.136
544.123
543.741
543.928
544.111
543.538
542.002
540.077
538.55
537.792
537.698
537.942
538.195
538.284
538.282
538.381
538.649
538.989
539.339
539.82
540.624
541.778
543.052
544.106
544.717
544.889
544.792
544.632
544.546
544.582
544.708
544.823
544.782
544.472
543.882
543.066
541.977
540.411
538.299
536.058
534.38
533.448
532.721
531.901
531.453
530.315
533.77
534.527
533.864
533.83
535.705
539.843
545.052
549.333
551.456
551.475
550.538
549.704
549.343
549.298
549.269
549.142
549.03
549.07
549.216
549.423
549.456
549.17
548.634
548.038
547.594
547.402
547.371
547.317
547.173
546.997
546.718
546.029
544.677
542.842
541.128
540.204
540.421
541.5
542.509
542.472
541.225
539.513
538.2
537.575
537.4
537.34
537.22
537.107
537.249
537.835
538.737
539.589
540.143
540.491
540.927
541.636
542.531
543.357
543.896
544.1
544.074
543.985
543.96
544.027
544.104
544.046
543.73
543.151
542.398
541.5
540.287
538.548
536.429
534.537
533.396
532.797
532.124
531.343
531.013
529.289
532.71
533.655
533.066
532.683
533.547
536.383
540.893
545.596
548.921
550.04
549.666
548.906
548.323
547.937
547.566
547.137
546.773
546.655
546.797
547.288
547.783
547.954
547.761
547.325
546.833
546.451
546.19
545.924
545.583
545.196
544.649
543.593
541.8
539.579
537.705
536.969
537.713
539.506
541.203
541.687
540.772
539.257
538.066
537.517
537.36
537.235
537.002
536.848
537.158
538.147
539.56
540.83
541.555
541.776
541.823
541.979
542.292
542.641
542.893
543.005
543.029
543.051
543.117
543.184
543.134
542.849
542.311
541.619
540.854
539.91
538.532
536.645
534.657
533.215
532.534
532.116
531.437
530.717
530.516
528.424
531.691
532.775
532.305
531.839
532.091
533.768
537.208
541.677
545.747
547.954
548.4
547.985
547.36
546.769
546.199
545.588
544.979
544.534
544.349
544.738
545.391
545.868
546.033
545.908
545.591
545.226
544.879
544.485
543.993
543.422
542.66
541.386
539.408
537.071
535.184
534.553
535.5
537.551
539.558
540.424
539.931
538.78
537.826
537.414
537.362
537.342
537.193
537.092
537.448
538.513
540.039
541.429
542.221
542.393
542.229
542.003
541.825
541.687
541.576
541.515
541.541
541.647
541.768
541.783
541.585
541.158
540.595
540.002
539.322
538.298
536.719
534.766
533.042
532.063
531.705
531.328
530.623
529.987
529.908
527.536
530.605
531.835
531.513
531.124
531.116
531.961
534.275
538.023
542.269
545.31
546.668
546.818
546.326
545.625
544.931
544.242
543.504
542.781
542.173
542.19
542.663
543.169
543.56
543.793
543.839
543.72
543.45
542.982
542.317
541.535
540.612
539.313
537.466
535.335
533.618
533.052
533.935
535.847
537.797
538.862
538.825
538.197
537.634
537.436
537.521
537.65
537.656
537.616
537.855
538.646
539.875
541.076
541.825
542.019
541.815
541.403
540.897
540.383
539.972
539.767
539.788
539.934
540.032
539.934
539.612
539.176
538.765
538.369
537.743
536.572
534.828
532.956
531.602
531.029
530.838
530.412
529.686
529.145
529.163
526.601
529.508
530.923
530.772
530.514
530.461
530.799
532.134
534.905
538.791
542.242
544.398
545.244
545.071
544.37
543.582
542.853
542.107
541.289
540.412
540.056
540.195
540.504
540.91
541.382
541.793
541.99
541.847
541.292
540.405
539.405
538.426
537.351
535.987
534.425
533.134
532.7
533.396
534.92
536.537
537.576
537.873
537.739
537.581
537.597
537.777
538.001
538.13
538.133
538.192
538.561
539.289
540.132
540.758
540.987
540.817
540.324
539.624
538.892
538.338
538.105
538.164
538.315
538.322
538.075
537.666
537.289
537.032
536.719
535.988
534.613
532.814
531.192
530.267
530.009
529.867
529.362
528.647
528.213
528.298
525.713
528.516
530.144
530.159
529.996
529.962
530.024
530.62
532.392
535.545
538.936
541.611
543.158
543.491
542.972
542.165
541.413
540.726
539.995
539.106
538.574
538.44
538.471
538.695
539.158
539.701
540.041
539.918
539.232
538.156
537.064
536.247
535.677
535.106
534.397
533.734
533.503
533.958
534.955
536.046
536.828
537.205
537.345
537.44
537.576
537.768
537.994
538.171
538.213
538.163
538.209
538.499
538.982
539.451
539.685
539.552
539.039
538.27
537.487
536.957
536.807
536.93
537.056
536.947
536.578
536.124
535.778
535.509
535.023
533.989
532.399
530.681
529.43
528.922
528.877
528.72
528.163
527.514
527.207
527.353
524.928
527.663
529.496
529.643
529.493
529.446
529.371
529.491
530.424
532.695
535.641
538.478
540.611
541.593
541.493
540.833
540.104
539.483
538.911
538.188
537.692
537.446
537.244
537.173
537.367
537.711
537.89
537.604
536.771
535.646
534.701
534.298
534.429
534.765
534.959
534.936
534.9
535.092
535.537
536.048
536.432
536.654
536.8
536.934
537.064
537.197
537.355
537.515
537.596
537.561
537.5
537.558
537.792
538.109
538.31
538.21
537.743
537.028
536.329
535.909
535.848
535.988
536.053
535.863
535.459
535.02
534.634
534.147
533.258
531.82
530.073
528.549
527.694
527.514
527.573
527.37
526.808
526.279
526.12
526.355
524.218
526.891
528.891
529.123
528.912
528.802
528.669
528.554
528.91
530.357
532.641
535.307
537.816
539.48
540.001
539.683
539.053
538.464
537.994
537.455
537.093
536.866
536.529
536.157
535.939
535.844
535.632
535.066
534.132
533.129
532.53
532.661
533.465
534.539
535.416
535.863
535.966
535.959
535.994
536.057
536.082
536.065
536.054
536.071
536.103
536.145
536.218
536.332
536.442
536.49
536.479
536.485
536.589
536.779
536.926
536.861
536.497
535.92
535.355
535.015
534.948
535.011
534.995
534.8
534.476
534.103
533.614
532.786
531.433
529.657
527.889
526.633
526.115
526.124
526.175
525.898
525.357
524.972
524.963
525.319
523.521
526.12
528.24
528.523
528.221
528.028
527.891
527.73
527.785
528.597
530.176
532.427
535.039
537.259
538.457
538.607
538.141
537.533
537.047
536.596
536.353
536.204
535.826
535.225
534.604
534.03
533.396
532.582
531.644
530.871
530.649
531.198
532.396
533.826
535.019
535.715
535.951
535.938
535.856
535.755
535.61
535.423
535.239
535.096
535.005
534.961
534.972
535.045
535.163
535.274
535.333
535.348
535.377
535.457
535.539
535.502
535.254
534.824
534.353
533.999
533.815
533.738
533.668
533.556
533.387
533.082
532.444
531.272
529.571
527.666
526.058
525.116
524.846
524.911
524.866
524.486
523.958
523.691
523.796
524.265
522.813
525.323
527.52
527.848
527.471
527.211
527.108
527.016
526.984
527.39
528.353
530.053
532.477
534.969
536.693
537.293
537.012
536.364
535.783
535.328
535.157
535.101
534.751
534.022
533.114
532.187
531.269
530.355
529.526
528.996
529.014
529.691
530.884
532.251
533.434
534.243
534.698
534.938
535.07
535.102
535.004
534.782
534.498
534.235
534.044
533.941
533.919
533.969
534.072
534.183
534.24
534.22
534.164
534.133
534.135
534.097
533.919
533.569
533.111
532.665
532.33
532.146
532.1
532.134
532.112
531.809
530.98
529.541
527.7
525.914
524.627
524.02
523.93
523.976
523.799
523.31
522.773
522.572
522.725
523.243
522.121
524.526
526.768
527.157
526.747
526.453
526.398
526.414
526.419
526.617
527.114
528.228
530.202
532.586
534.513
535.405
535.295
534.653
534.013
533.56
533.458
533.504
533.224
532.455
531.395
530.291
529.286
528.436
527.792
527.449
527.515
528.026
528.891
529.92
530.93
531.828
532.612
533.3
533.856
534.203
534.287
534.131
533.834
533.517
533.273
533.136
533.1
533.138
533.211
533.265
533.244
533.125
532.951
532.797
532.697
532.601
532.408
532.044
531.535
530.997
530.584
530.411
530.484
530.673
530.714
530.301
529.248
527.644
525.863
524.377
523.493
523.207
523.253
523.268
522.985
522.418
521.875
521.697
521.838
522.309
521.486
523.77
526.039
526.512
526.111
525.809
525.793
525.899
525.977
526.099
526.286
526.853
528.195
530.108
531.862
532.821
532.864
532.351
531.806
531.466
531.487
531.649
531.451
530.692
529.581
528.439
527.486
526.797
526.356
526.128
526.109
526.311
526.737
527.374
528.206
529.214
530.348
531.495
532.482
533.152
533.439
533.396
533.149
532.846
532.595
532.447
532.401
532.423
532.458
532.436
532.303
532.055
531.747
531.458
531.228
531.015
530.722
530.276
529.706
529.149
528.794
528.762
529.011
529.305
529.289
528.669
527.395
525.731
524.139
523.018
522.512
522.482
522.625
522.624
522.289
521.704
521.19
521.031
521.136
521.49
520.93
523.073
525.356
525.933
525.572
525.271
525.268
525.416
525.55
525.659
525.663
525.771
526.416
527.623
528.912
529.751
529.952
529.73
529.49
529.418
529.625
529.903
529.775
529.042
527.937
526.832
525.985
525.463
525.183
525.017
524.892
524.829
524.921
525.283
526.005
527.097
528.455
529.878
531.115
531.979
532.416
532.493
532.346
532.118
531.91
531.774
531.721
531.722
531.716
531.623
531.389
531.021
530.581
530.15
529.764
529.391
528.956
528.419
527.839
527.372
527.197
527.38
527.785
528.085
527.908
527.048
525.616
523.998
522.652
521.859
521.623
521.737
521.916
521.894
521.546
520.997
520.559
520.445
520.532
520.761
520.44
522.425
524.716
525.407
525.1
524.796
524.779
524.923
525.071
525.179
525.081
524.845
524.856
525.312
526.02
526.654
527.042
527.247
527.478
527.785
528.209
528.575
528.484
527.783
526.723
525.693
524.952
524.547
524.359
524.225
524.056
523.887
523.852
524.112
524.778
525.85
527.199
528.606
529.829
530.709
531.213
531.407
531.401
531.303
531.187
531.097
531.052
531.039
531
530.855
530.546
530.075
529.506
528.92
528.362
527.822
527.267
526.698
526.2
525.919
525.977
526.349
526.81
526.999
526.601
525.546
524.072
522.605
521.52
520.967
520.863
520.997
521.13
521.049
520.681
520.185
519.848
519.806
519.909
520.06
519.978
521.798
524.093
524.901
524.652
524.337
524.286
524.393
524.515
524.603
524.449
523.992
523.531
523.368
523.562
524.014
524.61
525.291
526.048
526.752
527.367
527.773
527.689
527.034
526.065
525.146
524.504
524.161
524.003
523.888
523.748
523.627
523.641
523.917
524.525
525.44
526.548
527.675
528.658
529.404
529.902
530.192
530.342
530.408
530.425
530.421
530.419
530.419
530.375
530.206
529.842
529.275
528.564
527.802
527.067
526.393
525.791
525.295
524.981
524.94
525.203
525.653
526.022
525.991
525.367
524.215
522.838
521.613
520.786
520.391
520.309
520.367
520.377
520.181
519.753
519.284
519.033
519.064
519.199
519.334
519.519
521.178
523.475
524.396
524.206
523.875
523.781
523.835
523.903
523.949
523.761
523.197
522.472
521.924
521.78
522.122
522.913
524.012
525.225
526.261
527.006
527.409
527.322
526.741
525.914
525.148
524.612
524.307
524.144
524.037
523.96
523.954
524.084
524.4
524.909
525.566
526.299
527.013
527.645
528.181
528.617
528.962
529.237
529.458
529.623
529.739
529.828
529.893
529.888
529.727
529.324
528.654
527.778
526.821
525.915
525.159
524.609
524.295
524.24
524.44
524.82
525.201
525.333
525.01
524.192
523.051
521.888
520.966
520.389
520.104
519.994
519.933
519.782
519.426
518.894
518.408
518.198
518.271
518.428
518.581
519.029
520.537
522.827
523.859
523.729
523.378
523.235
523.23
523.231
523.215
523.004
522.429
521.638
520.953
520.667
520.964
521.876
523.235
524.742
525.992
526.812
527.206
527.142
526.675
526.034
525.456
525.043
524.776
524.598
524.482
524.445
524.519
524.72
525.026
525.394
525.774
526.14
526.466
526.773
527.1
527.439
527.771
528.097
528.413
528.697
528.938
529.145
529.31
529.38
529.256
528.834
528.074
527.044
525.912
524.879
524.111
523.693
523.624
523.838
524.218
524.594
524.767
524.568
523.939
522.989
521.952
521.071
520.471
520.13
519.948
519.823
519.665
519.366
518.852
518.207
517.678
517.467
517.537
517.683
517.85
518.599
519.99
522.276
523.399
523.32
522.955
522.774
522.725
522.67
522.598
522.376
521.844
521.106
520.442
520.141
520.425
521.378
522.852
524.508
525.874
526.734
527.124
527.092
526.74
526.276
525.878
525.592
525.376
525.195
525.064
525.03
525.121
525.319
525.564
525.786
525.942
526.041
526.09
526.166
526.337
526.579
526.849
527.151
527.494
527.856
528.215
528.56
528.861
529.043
528.983
528.556
527.711
526.531
525.233
524.091
523.335
523.067
523.244
523.7
524.203
524.508
524.425
523.886
522.986
521.957
521.057
520.447
520.128
519.987
519.899
519.785
519.572
519.164
518.52
517.772
517.189
516.948
516.983
517.092
517.247
517.838
519.065
521.305
522.562
522.578
522.189
521.931
521.795
521.641
521.472
521.229
520.809
520.286
519.846
519.665
519.905
520.682
521.955
523.482
524.839
525.778
526.304
526.466
526.349
526.122
525.924
525.777
525.627
525.44
525.241
525.088
525.023
525.041
525.097
525.141
525.149
525.133
525.106
525.133
525.235
525.347
525.45
525.59
525.813
526.119
526.482
526.858
527.194
527.411
527.396
527.032
526.264
525.171
523.973
522.963
522.382
522.32
522.675
523.197
523.574
523.553
523.029
522.091
520.988
520.011
519.368
519.094
519.085
519.193
519.303
519.337
519.199
518.79
518.113
517.36
516.8
516.558
516.54
516.581
516.676
)
;
    }
    outlet
    {
        type            calculated;
        value           nonuniform List<scalar> 
3200
(
620.363
620.401
616.378
613.558
610.944
608.003
604.495
600.618
597.709
596.37
596.725
598.791
600.256
595.418
593.777
595.617
593.835
589.809
586.251
583.926
582.498
581.724
581.644
580.497
578.366
576.156
574.329
572.879
571.758
570.981
570.624
570.777
571.569
573.091
575.683
577.419
575.633
573.837
572.443
571.343
570.553
570.081
569.873
569.82
569.777
569.626
569.359
569.036
568.685
568.338
568.077
568.042
568.438
569.551
571.658
574.336
575.675
576.021
576.191
576.291
576.324
576.322
576.311
576.312
576.333
576.383
576.461
576.554
576.619
576.614
576.532
576.375
576.175
576
575.926
576.011
576.249
576.645
577.509
577.75
601.435
613.986
612.585
610.048
607.545
604.795
601.649
598.305
595.765
594.546
594.748
596.339
597.386
593.736
592.052
592.978
591.491
588.06
584.762
582.455
580.999
580.104
579.727
578.584
576.63
574.545
572.759
571.331
570.244
569.517
569.214
569.398
570.155
571.516
573.623
575.17
573.903
572.274
570.881
569.766
568.958
568.454
568.198
568.089
567.992
567.806
567.517
567.177
566.819
566.485
566.258
566.268
566.694
567.762
569.66
571.997
573.291
573.715
573.888
573.968
573.987
573.973
573.95
573.939
573.95
573.99
574.058
574.137
574.189
574.177
574.097
573.963
573.819
573.722
573.695
573.672
573.528
573.299
572.634
567.173
586.946
606.078
608.623
607.334
605.391
602.965
600.116
597.114
594.718
593.419
593.29
594.298
594.887
592.129
590.507
590.704
589.432
586.62
583.66
581.377
579.878
578.856
578.22
577.082
575.334
573.438
571.76
570.402
569.377
568.701
568.408
568.528
569.128
570.244
571.888
573.213
572.464
571.165
569.89
568.809
567.991
567.443
567.126
566.951
566.803
566.592
566.309
565.999
565.695
565.434
565.276
565.323
565.73
566.693
568.349
570.357
571.593
572.115
572.351
572.459
572.492
572.483
572.457
572.433
572.426
572.445
572.492
572.558
572.615
572.634
572.606
572.522
572.372
572.123
571.7
571.045
570.322
569.824
568.09
560.202
576.803
597.838
603.668
603.828
602.797
601.053
598.674
595.989
593.695
592.352
591.883
592.286
592.456
590.322
588.904
588.684
587.514
585.136
582.457
580.195
578.734
577.734
576.98
575.863
574.306
572.625
571.11
569.857
568.877
568.175
567.778
567.74
568.166
569.097
570.415
571.528
571.12
570.133
569.016
568.005
567.199
566.621
566.249
566.018
565.836
565.63
565.385
565.136
564.902
564.695
564.557
564.585
564.945
565.821
567.29
569.04
570.201
570.782
571.08
571.237
571.308
571.32
571.298
571.267
571.25
571.267
571.326
571.418
571.511
571.55
571.478
571.231
570.747
569.992
569.006
568.034
567.522
567.218
564.27
555.472
569.732
590.423
598.738
600.066
599.688
598.599
596.828
594.664
592.696
591.489
590.655
590.353
590.167
588.556
587.312
586.738
585.554
583.496
581.1
578.89
577.543
576.722
575.998
574.924
573.504
571.961
570.522
569.287
568.277
567.503
567.014
566.9
567.272
568.101
569.154
570.047
569.84
569.096
568.118
567.186
566.426
565.864
565.486
565.243
565.064
564.883
564.676
564.458
564.24
564.026
563.864
563.871
564.222
565.048
566.366
567.903
568.989
569.594
569.928
570.123
570.234
570.282
570.289
570.283
570.292
570.338
570.421
570.51
570.534
570.4
570.024
569.355
568.406
567.287
566.253
565.718
565.825
565.233
560.763
552.127
564.564
583.802
594.021
596.372
596.274
595.548
594.302
592.759
591.349
590.513
589.487
588.584
588.112
586.874
585.687
584.76
583.506
581.733
579.688
577.615
576.387
575.783
575.182
574.182
572.856
571.377
569.932
568.645
567.574
566.754
566.253
566.161
566.533
567.248
568.029
568.689
568.587
568.03
567.182
566.336
565.651
565.154
564.827
564.619
564.464
564.296
564.078
563.821
563.553
563.3
563.127
563.161
563.542
564.326
565.497
566.855
567.876
568.488
568.836
569.054
569.205
569.306