/*--------------------------------*- C++ -*----------------------------------*\
| =========                 |                                                 |
| \\      /  F ield         | OpenFOAM: The Open Source CFD Toolbox           |
|  \\    /   O peration     | Version:  v2012                                 |
|   \\  /    A nd           | Website:  www.openfoam.com                      |
|    \\/     M anipulation  |                                                 |
\*---------------------------------------------------------------------------*/
FoamFile
{
    version     2.0;
    format      ascii;
    class       volScalarField;
    location    "600/air";
    object      qr;
}
// * * * * * * * * * * * * * * * * * * * * * * * * * * * * * * * * * * * * * //

dimensions      [1 0 -3 0 0 0 0];


internalField   uniform 0;

boundaryField
{
    inlet
    {
        type            calculated;
        value           nonuniform List<scalar> 
3200
(
73.7877
77.9454
76.2561
74.9608
73.8805
72.8484
71.8307
70.8191
69.8119
68.8112
67.821
66.8444
65.8834
64.9386
64.0085
63.09
62.1822
61.2872
60.4077
59.5436
58.6912
57.8466
57.007
56.171
55.3405
54.523
53.7333
52.9955
52.3404
51.7994
51.3968
51.1462
51.0422
51.0487
51.1008
51.138
51.1403
51.1232
51.1043
51.0877
51.0667
51.0389
51.014
50.9997
50.9906
50.9796
50.9657
50.9482
50.9275
50.904
50.8783
50.8513
50.8246
50.7999
50.7763
50.7475
50.7003
50.6183
50.4892
50.3136
50.1096
49.9095
49.7472
49.6418
49.5849
49.5403
49.46
49.3087
49.0868
48.8384
48.6375
48.5572
48.6349
48.8486
49.1157
49.3063
49.2452
48.6873
47.2226
41.5877
64.4394
76.1854
75.8353
74.1946
72.8081
71.5929
70.4838
69.4331
68.4115
67.4175
66.4608
65.5481
64.6717
63.8093
62.9333
62.0284
61.1025
60.1787
59.2759
58.3976
57.5406
56.7004
55.8739
55.0602
54.2618
53.4862
52.7463
52.0616
51.4561
50.9538
50.5758
50.338
50.2389
50.2437
50.2906
50.3286
50.3449
50.3492
50.3494
50.3465
50.3374
50.3229
50.3133
50.3141
50.3188
50.3212
50.3207
50.3159
50.3071
50.2949
50.2803
50.2641
50.2474
50.2311
50.2156
50.1998
50.1804
50.1532
50.1147
50.0653
50.0113
49.9649
49.9383
49.9352
49.9425
49.9281
49.8496
49.6705
49.3759
48.9812
48.5241
48.0468
47.5722
47.0856
46.5197
45.744
44.6045
43.0868
40.9862
34.4233
55.628
71.1579
73.7897
72.8818
71.7101
70.5661
69.4648
68.4262
67.4545
66.5463
65.6948
64.8818
64.0783
63.2565
62.3993
61.508
60.6015
59.7014
58.8166
57.9419
57.067
56.1896
55.3183
54.4655
53.6459
52.8743
52.1648
51.5324
50.9941
50.567
50.2628
50.084
50.0168
50.0258
50.0631
50.0925
50.1046
50.1054
50.1008
50.0927
50.0802
50.0655
50.0558
50.0549
50.0583
50.062
50.0647
50.0654
50.0644
50.0627
50.0612
50.061
50.0624
50.0659
50.0715
50.0788
50.0863
50.0909
50.0871
50.0689
50.0313
49.971
49.8847
49.7634
49.5864
49.3195
48.9222
48.3647
47.6447
46.7995
45.8996
45.0255
44.2307
43.5017
42.7395
41.8134
40.7513
39.7904
38.0851
31.2908
49.2177
65.5765
71.0145
71.3534
70.7721
70.0003
69.0738
68.0751
67.0841
66.1315
65.2392
64.3786
63.5001
62.5867
61.6523
60.7202
59.8071
58.9143
58.0257
57.125
56.1785
55.1949
54.2203
53.2962
52.4514
51.7059
51.0728
50.5603
50.1737
49.9135
49.7703
49.7231
49.7407
49.7867
49.8293
49.8527
49.8582
49.8532
49.8432
49.8311
49.818
49.8067
49.8019
49.8056
49.8153
49.8286
49.8439
49.8596
49.8747
49.8879
49.898
49.9027
49.8992
49.8832
49.8497
49.7937
49.7108
49.5975
49.4498
49.2624
49.0282
48.7396
48.3894
47.9707
47.4749
46.8927
46.2192
45.4646
44.6625
43.8693
43.1446
42.5193
41.9638
41.3828
40.672
39.8643
39.2444
38.8271
36.7223
29.5253
44.6436
60.3229
67.8948
69.4314
69.321
68.9131
68.2551
67.3764
66.3669
65.2955
64.2353
63.1957
62.1533
61.1
60.0458
59.0128
58.0207
57.0732
56.1535
55.2423
54.3041
53.3597
52.4666
51.6754
51.0172
50.4977
50.103
49.8116
49.6052
49.4723
49.4036
49.3868
49.4038
49.4345
49.4636
49.4847
49.4982
49.5057
49.509
49.5099
49.5109
49.5151
49.5246
49.5387
49.5548
49.5696
49.5792
49.5798
49.5674
49.5381
49.4878
49.4119
49.3051
49.1612
48.974
48.738
48.4503
48.1114
47.7244
47.2939
46.825
46.3239
45.7995
45.2641
44.7315
44.215
43.7251
43.269
42.8471
42.4476
42.0389
41.5678
40.9756
40.2408
39.456
38.8902
38.7808
38.4278
35.3838
28.2091
40.9882
55.0593
64.0904
66.7909
67.0082
66.8186
66.4297
65.7849
64.9176
63.8957
62.7218
61.4204
60.1063
58.8528
57.6504
56.4906
55.3964
54.391
53.4764
52.615
51.8349
51.1818
50.6377
50.2006
49.9073
49.7582
49.6946
49.6392
49.5406
49.3926
49.2269
49.0857
48.9961
48.9599
48.9626
48.9872
49.0203
49.0529
49.079
49.0968
49.1073
49.1127
49.112
49.1018
49.0774
49.0334
48.9646
48.8663
48.7344
48.5655
48.3571
48.1076
47.8161
47.4827
47.1083
46.6962
46.2528
45.7883
45.3155
44.8481
44.3997
43.9847
43.6188
43.3175
43.0906
42.9334
42.8187
42.695
42.4929
42.1424
41.5971
40.8603
40.0046
39.1828
38.6293
38.5702
38.8
37.9457
33.9041
27.2551
37.7511
49.7341
59.6077
63.5672
64.1958
64.1655
64.0323
63.6995
63.148
62.4542
61.4106
59.9229
58.2916
56.7884
55.4332
54.1759
53.0255
52.011
51.1475
50.3438
49.7394
49.4529
49.3278
49.2331
49.2127
49.3076
49.4459
49.506
49.412
49.1742
48.8704
48.5946
48.4074
48.3181
48.3002
48.319
48.3494
48.3757
48.3873
48.3783
48.3473
48.2944
48.2184
48.1155
47.9815
47.8127
47.6068
47.3634
47.0837
46.7706
46.4288
46.0641
45.6834
45.2937
44.902
44.516
44.1448
43.7989
43.4898
43.2282
43.0234
42.883
42.8114
42.8044
42.8404
42.8726
42.8286
42.6242
42.1916
41.5134
40.6464
39.7202
38.9102
38.4023
38.3491
38.7078
38.8076
37.0762
32.3507
26.5702
34.9758
44.7527
54.8498
60.1076
61.3432
61.4985
61.6346
61.6598
61.4821
61.2359
60.561
59.1443
57.3518
55.6657
54.2016
52.8919
51.7231
50.7165
49.8938
49.1017
48.5601
48.5012
48.669
48.7614
48.7896
48.8649
48.9652
48.9751
48.8163
48.5068
48.1366
47.807
47.5781
47.4529
47.3964
47.3673
47.3388
47.2971
47.2331
47.1404
47.0166
46.8628
46.6805
46.471
46.2353
45.9749
45.6926
45.3932
45.083
44.7696
44.4606
44.1637
43.8851
43.6299
43.4019
43.2049
43.043
42.9214
42.8445
42.814
42.827
42.8736
42.935
42.9791
42.9581
42.8106
42.476
41.9187
41.1546
40.2661
39.3887
38.6746
38.2525
38.2061
38.5311
38.9349
38.4918
35.8583
30.8982
26.1073
32.7985
40.5067
50.2504
56.723
58.7803
59.1594
59.5472
59.9615
60.1406
60.2247
59.9137
58.7732
57.0703
55.3695
53.8925
52.5856
51.4157
50.3992
49.5733
48.764
48.1794
48.1424
48.4163
48.5706
48.5212
48.4182
48.3249
48.1797
47.9204
47.5583
47.1626
46.8091
46.5399
46.3532
46.2182
46.1
45.9773
45.842
45.6899
45.5179
45.325
45.1133
44.888
44.656
44.4233
44.1944
43.973
43.7632
43.5696
43.3966
43.248
43.1251
43.0277
42.9546
42.9051
42.8799
42.8808
42.9087
42.9604
43.0245
43.0793
43.0932
43.0282
42.8452
42.511
42.0079
41.3455
40.5705
39.7668
39.0395
38.4865
38.1746
38.1377
38.3782
38.7897
38.9132
37.7582
34.4333
29.6267
25.7851
31.1648
37.1319
46.0563
53.5487
56.6538
57.3154
57.8337
58.591
59.1306
59.4029
59.2651
58.3725
56.8706
55.2804
53.8917
52.6757
51.5706
50.5763
49.7451
48.9344
48.2701
48.0935
48.2964
48.4346
48.3039
48.0189
47.7081
47.3809
47.003
46.5759
46.1408
45.7453
45.4165
45.1546
44.9405
44.7503
44.5683
44.3895
44.2136
44.0391
43.8646
43.6931
43.5317
43.3872
43.2626
43.1582
43.0731
43.0065
42.9578
42.9255
42.9081
42.904
42.9121
42.9325
42.9655
43.011
43.0664
43.1231
43.1628
43.1557
43.064
42.8502
42.4885
41.9758
41.3365
40.6215
39.8998
39.2449
38.7183
38.3555
38.1646
38.1425
38.2945
38.6034
38.8841
38.5535
36.6969
32.9631
28.5699
25.5519
29.9514
34.5932
42.3342
50.4962
54.8289
55.9187
56.3831
57.2794
58.1772
58.6794
58.6312
57.8506
56.4613
54.9405
53.6415
52.5837
51.6656
50.8251
50.0783
49.3224
48.5979
48.2062
48.2017
48.2447
48.0517
47.6444
47.1633
46.679
46.1928
45.7037
45.2321
44.8056
44.4421
44.1451
43.9059
43.7091
43.5406
43.3942
43.2686
43.1592
43.0635
42.9885
42.9435
42.9283
42.9322
42.9443
42.9587
42.9747
42.9909
43.0038
43.0113
43.0162
43.0265
43.0492
43.0841
43.1211
43.1404
43.1143
43.0091
42.7902
42.4309
41.9242
41.2924
40.5887
39.887
39.2632
38.7743
38.4431
38.2552
38.174
38.1707
38.2506
38.4396
38.6931
38.7208
37.8626
35.411
31.5463
27.7103
25.3631
29.1079
32.8008
39.0846
47.3894
52.9746
54.7526
55.0739
55.7878
56.9124
57.792
57.9904
57.3187
55.9232
54.305
52.9411
51.9811
51.3215
50.7913
50.2812
49.6767
48.9681
48.3957
48.1353
48.0154
47.7566
47.2836
46.7035
46.1228
45.5779
45.0708
44.6059
44.1944
43.8467
43.567
43.3526
43.1934
43.0749
42.9877
42.9248
42.879
42.8524
42.8568
42.8961
42.9563
43.0148
43.057
43.0829
43.0996
43.1101
43.111
43.0995
43.0799
43.0613
43.0471
43.0262
42.9726
42.852
42.6313
42.2864
41.8093
41.2143
40.5419
39.8556
39.2299
38.731
38.3963
38.2226
38.1681
38.173
38.193
38.2291
38.3233
38.4946
38.6203
38.3042
36.9006
34.011
30.253
27.0222
25.1921
28.5807
31.6114
36.3101
44.1501
50.7852
53.5482
53.8655
54.1368
55.1865
56.4407
57.1001
56.7293
55.3931
53.6037
52.0011
50.9679
50.4921
50.3021
50.1101
49.7367
49.1488
48.5199
48.0673
47.7823
47.4628
46.9744
46.3692
45.7617
45.2158
44.739
44.3215
43.9578
43.6494
43.3994
43.2094
43.0746
42.9849
42.9269
42.8857
42.8612
42.8686
42.9042
42.9351
42.9292
42.8837
42.822
42.7718
42.7462
42.7429
42.7544
42.7747
42.7955
42.7975
42.7512
42.6247
42.3945
42.0496
41.5933
41.0423
40.4277
39.7948
39.1992
38.6974
38.333
38.1235
38.0526
38.0734
38.1253
38.1614
38.1774
38.2138
38.3119
38.4298
38.3493
37.6214
35.7157
32.5793
29.1123
26.4669
25.0196
28.2218
30.8294
34.0199
40.861
48.12
52.0543
52.735
52.5752
53.2378
54.6074
55.7305
55.8528
54.8019
52.9703
51.0966
49.8267
49.3327
49.3209
49.3685
49.2334
48.8627
48.3447
47.8566
47.4994
47.1748
46.7316
46.1652
45.5768
45.0525
44.615
44.248
43.9309
43.6533
43.4146
43.2203
43.0741
42.976
42.9093
42.8535
42.827
42.848
42.8531
42.7332
42.4551
42.1035
41.8041
41.6253
41.5545
41.5519
41.6036
41.715
41.8643
41.9772
41.9578
41.744
41.3403
40.8048
40.2133
39.6298
39.0985
38.6489
38.3019
38.0695
37.9509
37.9283
37.9673
38.0241
38.0627
38.0754
38.0923
38.153
38.2458
38.2466
37.8768
36.709
34.3952
31.201
28.1399
26.0111
24.8352
27.8419
30.2643
32.2089
37.7001
45.0121
50.0794
51.5907
51.3632
51.5463
52.6641
53.9732
54.5712
54.007
52.4137
50.4672
48.9672
48.273
48.1655
48.2151
48.1864
48.0102
47.6814
47.2925
46.989
46.7567
46.4446
45.9869
45.4511
44.9423
44.5159
44.1703
43.8797
43.6212
43.3875
43.1833
43.0201
42.9059
42.8207
42.7525
42.7342
42.7393
42.5976
42.1339
41.3806
40.5927
40.0368
39.7847
39.722
39.7249
39.7844
39.9609
40.2543
40.5435
40.6527
40.4741
40.0346
39.464
38.9102
38.4717
38.1813
38.0263
37.9748
37.992
38.0457
38.1076
38.1552
38.1772
38.1824
38.202
38.2695
38.3729
38.4129
38.1957
37.4333
35.7794
33.1063
29.9492
27.2993
25.5717
24.5949
27.3444
29.8053
30.8607
34.8647
41.6353
47.5397
50.2271
50.4638
50.322
50.8907
51.9611
52.7977
52.8057
51.8218
50.2667
48.8466
47.9735
47.5521
47.2953
47.084
46.8693
46.5913
46.2719
46.0587
45.984
45.8919
45.6391
45.2253
44.7538
44.3219
43.9675
43.6818
43.4416
43.2327
43.0498
42.9025
42.7926
42.6966
42.6347
42.6333
42.5451
42.074
41.0647
39.7294
38.5506
37.9078
37.7833
37.8642
37.8995
37.9038
38.0418
38.3891
38.8243
39.1212
39.1229
38.8431
38.4305
38.0558
37.8197
37.7325
37.7485
37.8114
37.8797
37.9318
37.9587
37.9606
37.9488
37.9513
38.0018
38.1002
38.1715
38.0656
37.5849
36.4793
34.4948
31.6991
28.7967
26.6199
25.225
24.3804
26.759
29.4148
29.9338
32.5032
38.2366
44.4803
48.3868
49.5068
49.306
49.1913
49.6358
50.3506
50.8241
50.6882
49.9939
49.1029
48.2881
47.5587
46.8589
46.2564
45.763
45.3229
44.9306
44.7229
44.7641
44.9062
44.931
44.7385
44.3867
43.9922
43.6386
43.3572
43.1449
42.9838
42.8477
42.7306
42.6178
42.4895
42.416
42.3927
42.101
41.1424
39.4911
37.6256
36.2447
35.7613
35.9887
36.3692
36.5107
36.4499
36.462
36.7248
37.173
37.5962
37.8227
37.8277
37.7086
37.5878
37.5353
37.5536
37.6084
37.6646
37.7026
37.7166
37.709
37.6898
37.6821
37.7182
37.8086
37.8988
37.8607
37.5388
36.7732
35.3585
33.1317
30.3443
27.7872
26.048
24.893
24.1449
26.1254
29.0249
29.2911
30.6166
35.0103
41.0388
45.925
48.1451
48.2248
47.5568
47.2117
47.4561
48.05
48.5932
48.8205
48.671
48.1703
47.3725
46.421
45.5339
44.7744
44.1194
43.5664
43.2442
43.2618
43.5273
43.7973
43.877
43.7398
43.4755
43.1913
42.9585
42.7954
42.6732
42.5378
42.3706
42.16
41.9164
41.7578
41.6302
41.0649
39.6221
37.4537
35.2768
33.9029
33.6938
34.3062
35.0114
35.3121
35.2368
35.1152
35.2013
35.5139
35.9259
36.3181
36.6486
36.9251
37.1533
37.3201
37.414
37.4443
37.4373
37.4185
37.3993
37.3822
37.3765
37.4062
37.4891
37.591
37.6025
37.3815
36.8147
35.7875
34.12
31.7426
29.0791
26.92
25.5553
24.559
23.8871
25.3971
28.4966
28.708
29.0711
32.0702
37.4388
42.9247
46.3039
47.0761
46.2835
45.3188
44.9401
45.2583
46.0013
46.7632
47.1854
47.0796
46.4865
45.6277
44.7515
43.9282
43.1619
42.465
41.961
41.81
42.0186
42.3887
42.6786
42.7737
42.7053
42.5717
42.4519
42.3488
42.1944
41.9136
41.5137
41.049
40.6045
40.3144
40.0491
39.2548
37.5263
35.1655
32.9939
31.7749
31.7541
32.5299
33.3718
33.7702
33.7185
33.5239
33.4547
33.5907
33.9072
34.389
35.0304
35.7666
36.4553
36.949
37.185
37.2121
37.1378
37.055
37.0056
36.996
37.0298
37.1151
37.23
37.2844
37.1421
36.6992
35.9062
34.666
32.8041
30.3661
27.9273
26.1833
25.113
24.2114
23.6072
24.4601
27.6962
27.9894
27.7106
29.465
33.901
39.5685
44.0207
45.8532
45.4881
44.3017
43.4024
43.2465
43.7602
44.5565
45.1772
45.3461
45.0765
44.5519
43.9311
43.2454
42.5019
41.7312
41.0573
40.6764
40.6921
40.9951
41.3505
41.5836
41.6718
41.6923
41.6918
41.5973
41.2677
40.638
39.8162
39.0072
38.4074
38.1086
37.8386
36.9889
35.2464
33.0289
31.1361
30.1481
30.1494
30.7729
31.45
31.7774
31.7363
31.5691
31.4909
31.5687
31.8266
32.3486
33.2118
34.342
35.4876
36.3599
36.8102
36.8907
36.7746
36.6295
36.5478
36.5546
36.6443
36.7836
36.8865
36.8182
36.4679
35.8131
34.8481
33.4428
31.4343
29.0226
26.894
25.5546
24.6952
23.8443
23.3077
23.1528
26.5169
27.0224
26.4206
27.1211
30.3175
35.543
40.7395
43.9158
44.6281
43.783
42.6576
42.0493
42.1037
42.5314
42.9297
43.0817
43.0314
42.9016
42.7058
42.4062
41.9276
41.2684
40.5499
39.9832
39.7446
39.8307
40.0578
40.2257
40.282
40.2954
40.2543
39.9585
39.1867
37.9642
36.6244
35.6112
35.2295
35.4164
35.5993
35.0268
33.4902
31.5654
30.0383
29.2805
29.1862
29.4307
29.6836
29.7724
29.7707
29.8697
30.1378
30.4781
30.828
31.3088
32.113
33.2668
34.5405
35.5948
36.2061
36.3777
36.281
36.1205
36.0346
36.0708
36.1968
36.3112
36.2703
35.9603
35.371
34.5551
33.4652
31.8999
29.7877
27.5464
25.8691
24.9362
24.2098
23.3893
22.9414
21.8038
25.2584
26.0158
25.3526
25.3183
27.1938
31.332
36.5407
40.8214
42.9442
42.9632
42.0262
41.1924
40.832
40.7865
40.7579
40.6303
40.5187
40.5589
40.7043
40.912
40.9449
40.6589
40.1222
39.5264
39.0827
38.8911
38.8599
38.8057
38.6618
38.4857
38.2071
37.5174
36.1652
34.3305
32.6163
31.6923
31.9095
32.9889
33.9974
33.9604
32.7135
31.0015
29.6889
29.0632
28.8888
28.8284
28.7084
28.5952
28.738
29.3234
30.2253
31.0779
31.6315
31.9793
32.4159
33.1246
34.0196
34.8457
35.3851
35.5883
35.5624
35.474
35.449
35.5154
35.593
35.5349
35.2191
34.6394
33.8869
32.9888
31.7754
30.0368
27.9174
26.026
24.8843
24.2857
23.6129
22.8313
22.5016
20.7772
24.1984
25.144
24.5549
24.1716
25.0359
27.8719
32.3816
37.0844
40.4098
41.529
41.1544
40.3949
39.8115
39.4253
39.0545
38.6253
38.2621
38.1442
38.2856
38.7763
39.2714
39.4422
39.2496
38.8137
38.322
37.9393
37.6782
37.4122
37.0714
36.6844
36.1374
35.0813
33.2891
31.0674
29.1937
28.4578
29.2016
30.9946
32.692
33.176
32.2609
30.7455
29.5551
29.0058
28.8486
28.7234
28.4902
28.3364
28.6469
29.6354
31.0482
32.319
33.0441
33.2644
33.3117
33.4673
33.7806
34.13
34.382
34.494
34.518
34.5399
34.6054
34.6727
34.6229
34.3378
33.7998
33.1072
32.3424
31.3992
30.0205
28.1341
26.1452
24.7033
24.0232
23.6042
22.9259
22.2059
22.0049
19.9131
23.1792
24.2641
23.7936
23.3277
23.5793
25.2568
28.6968
33.1655
37.2357
39.4424
39.8888
39.474
38.8489
38.2579
37.688
37.0763
36.4676
36.0227
35.8373
36.227
36.8798
37.3564
37.5215
37.3971
37.0797
36.7143
36.3674
35.9739
35.482
34.9107
34.1489
32.8742
30.897
28.56
26.6724
26.0418
26.9886
29.0401
31.047
31.9129
31.4197
30.2682
29.3151
28.9023
28.8511
28.8304
28.6815
28.5803
28.937
30.0014
31.5276
32.9172
33.7093
33.8815
33.7172
33.4917
33.3136
33.1756
33.0643
33.0041
33.0293
33.1361
33.2562
33.2712
33.0738
32.6465
32.0839
31.4906
30.8103
29.787
28.2078
26.2552
24.5303
23.5517
23.1933
22.8171
22.1118
21.4755
21.397
19.0245
22.0933
23.324
23.0018
22.6127
22.6051
23.4496
25.7639
29.5121
33.7573
36.7986
38.1563
38.3068
37.8147
37.1138
36.4195
35.7303
34.993
34.2699
33.6612
33.6788
34.1517
34.658
35.0487
35.2818
35.3278
35.209
34.9387
34.471
33.8052
33.0234
32.1009
30.8019
28.9544
26.8232
25.1067
24.5403
25.4234
27.3355
29.286
30.3507
30.3139
29.6855
29.1222
28.925
29.01
29.1391
29.1445
29.1043
29.3434
30.135
31.3632
32.5645
33.3135
33.5079
33.3041
32.8915
32.3855
31.8719
31.461
31.2559
31.2763
31.4225
31.5204
31.4223
31.1009
30.6651
30.254
29.8577
29.2312
28.0608
26.3168
24.4447
23.0905
22.5177
22.3264
21.9006
21.1742
20.634
20.6517
18.0893
20.9967
22.412
22.2609
22.0023
21.9501
22.2876
23.6224
26.394
30.2796
33.7303
35.887
36.7328
36.56
35.859
35.0703
34.3416
33.5953
32.7781
31.9011
31.5448
31.6833
31.9927
32.3984
32.871
33.2813
33.4783
33.3357
32.7812
31.8936
30.8935
29.9151
28.8393
27.476
25.9138
24.6229
24.1883
24.8847
26.409
28.0253
29.0651
29.3617
29.2278
29.0694
29.0861
29.2656
29.4897
29.6186
29.622
29.6803
30.0496
30.7782
31.6202
32.2463
32.476
32.3054
31.8124
31.1127
30.3802
29.8263
29.5938
29.6524
29.8035
29.8104
29.5641
29.1546
28.7774
28.5208
28.208
27.4762
26.1017
24.3029
22.6807
21.7557
21.4976
21.3553
20.8506
20.1354
19.7019
19.7865
17.2014
20.0049
21.6323
21.6479
21.4842
21.4502
21.5132
22.1087
23.8805
27.0339
30.4243
33.0996
34.6468
34.9801
34.4604
33.6539
32.902
32.2143
31.4834
30.595
30.0625
29.9283
29.9598
30.1837
30.6464
31.1895
31.5295
31.4063
30.7208
29.6447
28.5526
27.7353
27.1653
26.5947
25.8859
25.2222
24.9919
25.4463
26.4435
27.535
28.3167
28.6938
28.8333
28.9282
29.0645
29.2566
29.4825
29.6601
29.7013
29.6514
29.6977
29.9877
30.4711
30.9393
31.1732
31.0405
30.528
29.7584
28.976
28.446
28.2956
28.4185
28.5442
28.4362
28.0663
27.6128
27.2666
26.9982
26.5113
25.4781
23.8874
22.1697
20.9182
20.4108
20.366
20.2089
19.6521
19.0027
18.6954
18.8418
16.4163
19.152
20.9844
21.1316
20.9814
20.9344
20.8597
20.9797
21.9122
24.1839
27.1293
29.9664
32.1
33.0818
32.9818
32.3212
31.5926
30.9719
30.3992
29.677
29.1807
28.9343
28.7325
28.6619
28.856
29.1992
29.3789
29.0922
28.2595
27.1352
26.1898
25.7867
25.9181
26.2533
26.4478
26.4248
26.3892
26.5807
27.026
27.5366
27.9203
28.1432
28.2886
28.4225
28.5524
28.6852
28.8438
29.004
29.0843
29.0494
28.9885
29.0465
29.281
29.5972
29.7987
29.6986
29.2317
28.5165
27.8179
27.3973
27.3362
27.4766
27.5417
27.3518
26.9479
26.5085
26.1225
25.6355
24.7465
23.3087
21.5615
20.0377
19.1823
19.0026
19.0617
18.8586
18.2967
17.7677
17.6091
17.8442
15.7064
18.3794
20.3798
20.6115
20.4007
20.2905
20.1574
20.0428
20.3989
21.8459
24.1292
26.7955
29.3048
30.9683
31.4898
31.1714
30.5415
29.9523
29.4828
28.9436
28.5818
28.3548
28.0178
27.6459
27.4273
27.3322
27.121
26.555
25.6202
24.6179
24.0187
24.1494
24.9533
26.0275
26.9049
27.3519
27.4544
27.4478
27.4823
27.5455
27.5709
27.554
27.5422
27.5597
27.5919
27.6333
27.7071
27.821
27.9308
27.9788
27.9674
27.9742
28.0781
28.2675
28.4148
28.3493
27.9852
27.4087
26.8435
26.5033
26.4364
26.4993
26.4841
26.2888
25.9651
25.5912
25.1029
24.275
22.9216
21.1455
19.3777
18.1222
17.6041
17.6125
17.6637
17.3869
16.8459
16.4602
16.4522
16.8078
15.0097
17.6087
19.7288
20.0121
19.7101
19.5167
19.3797
19.2191
19.2738
20.0856
21.6649
23.9157
26.5281
28.748
29.9458
30.0961
29.6293
29.0213
28.536
28.0844
27.8413
27.6925
27.3146
26.7132
26.0923
25.519
24.8844
24.0703
23.1323
22.3601
22.1379
22.6868
23.8846
25.3143
26.5074
27.2033
27.4394
27.4266
27.345
27.2435
27.0986
26.9121
26.7276
26.5848
26.4932
26.4498
26.4605
26.5334
26.6513
26.763
26.8222
26.837
26.8657
26.9457
27.0275
26.9906
26.7431
26.3124
25.8421
25.4873
25.3032
25.2265
25.1569
25.0447
24.8754
24.5703
23.9331
22.7612
21.06
19.1544
17.5462
16.6043
16.3349
16.3996
16.3543
15.9752
15.4464
15.1796
15.2851
15.7539
14.3021
16.8117
19.0084
19.3369
18.9595
18.6997
18.5963
18.5047
18.4731
18.879
19.8414
21.5416
23.9659
26.4579
28.1812
28.7819
28.5005
27.8522
27.2713
26.8166
26.6457
26.5895
26.2395
25.511
24.6025
23.6753
22.7581
21.8436
21.0144
20.4842
20.5028
21.1798
22.3727
23.7396
24.9231
25.7313
26.1866
26.427
26.5584
26.5909
26.4926
26.2702
25.9871
25.7233
25.5324
25.4292
25.4074
25.4574
25.5608
25.6713
25.7288
25.7091
25.6526
25.6218
25.6241
25.5852
25.4076
25.0574
24.5996
24.1537
23.8186
23.6347
23.5891
23.6225
23.601
23.2976
22.4691
21.0293
19.1891
17.4023
16.1156
15.5088
15.4183
15.4643
15.2879
14.7987
14.262
14.0608
14.2141
14.7312
13.6095
16.0145
18.2569
18.6461
18.2353
17.9417
17.8867
17.9029
17.9078
18.1059
18.6026
19.7164
21.6905
24.0751
26.0021
26.8939
26.7841
26.1421
25.5012
25.0485
24.9467
24.9929
24.7125
23.9439
22.8839
21.7801
20.7744
19.9245
19.2812
18.9379
19.0032
19.5146
20.3795
21.4087
22.4188
23.3171
24.101
24.7883
25.3447
25.6916
25.7753
25.6199
25.3229
25.0062
24.7612
24.6244
24.5885
24.6263
24.6994
24.7541
24.7326
24.6138
24.4399
24.2857
24.1855
24.0897
23.8962
23.533
23.0236
22.4856
22.0731
21.8992
21.9725
22.1613
22.2026
21.7898
20.7367
19.1325
17.3513
15.8653
14.9814
14.6953
14.7414
14.7565
14.474
13.9066
13.3639
13.186
13.3267
13.7973
12.975
15.2584
17.5272
18.0006
17.5999
17.2979
17.2818
17.3873
17.4657
17.5878
17.7751
18.3418
19.6833
21.597
23.3508
24.3093
24.3523
23.8394
23.2945
22.9551
22.9754
23.1375
22.9399
22.1811
21.0698
19.9278
18.9745
18.2858
17.8445
17.6169
17.5976
17.7997
18.226
18.8628
19.6942
20.7025
21.8366
22.9837
23.9709
24.6402
24.9278
24.8843
24.6377
24.3342
24.0834
23.9352
23.8894
23.9122
23.9465
23.9243
23.7918
23.544
23.2359
22.9471
22.7167
22.5034
22.2104
21.765
21.1942
20.6377
20.2824
20.2507
20.4999
20.7932
20.7776
20.158
18.8835
17.2201
15.6273
14.5069
14.001
13.9705
14.1137
14.1122
13.7779
13.1925
12.679
12.5194
12.6246
12.9785
12.4191
14.5618
16.8451
17.4218
17.0607
16.7593
16.7568
16.9051
17.0386
17.148
17.1519
17.26
17.9049
19.1121
20.4008
21.2392
21.4403
21.2185
20.9786
20.9062
21.1139
21.3919
21.2632
20.5308
19.4257
18.3205
17.4739
16.952
16.6715
16.5052
16.3808
16.318
16.4093
16.7716
17.4937
18.5853
19.9436
21.3664
22.6037
23.4679
23.9043
23.9815
23.8351
23.6067
23.3988
23.2632
23.2097
23.2111
23.2043
23.1112
22.8778
22.5094
22.0696
21.6382
21.2525
20.8793
20.4447
19.9079
19.3272
18.8608
18.6854
18.8685
19.2736
19.5738
19.3967
18.5372
17.1042
15.4867
14.1407
13.3478
13.1113
13.2256
13.4043
13.3831
13.0347
12.4856
12.0481
11.9337
12.0209
12.2498
11.9284
13.914
16.2051
16.8959
16.5886
16.2843
16.2679
16.4121
16.5597
16.6674
16.5702
16.334
16.3446
16.8003
17.5084
18.143
18.5304
18.7357
18.9671
19.2739
19.6981
20.0641
19.9726
19.2714
18.2118
17.1815
16.4409
16.0357
15.8475
15.7138
15.5452
15.3762
15.3405
15.6005
16.2668
17.3384
18.6876
20.0942
21.3174
22.1977
22.7018
22.8952
22.8893
22.7914
22.676
22.5861
22.541
22.5272
22.4885
22.344
22.0347
21.5637
20.9946
20.4084
19.8504
19.3109
18.7554
18.1863
17.6882
17.4082
17.466
17.838
18.2986
18.4872
18.09
17.0349
15.5607
14.0934
13.0085
12.4558
12.3514
12.4858
12.6182
12.5381
12.1702
11.6736
11.3367
11.295
11.3976
11.5484
11.4669
13.2869
15.5817
16.3894
16.1404
15.8253
15.7749
15.8819
16.0033
16.0918
15.9379
15.4806
15.0195
14.8568
15.0508
15.5024
16.099
16.7801
17.5363
18.2411
18.8557
19.2615
19.178
18.5226
17.554
16.635
15.9923
15.6499
15.4917
15.3764
15.237
15.1152
15.1292
15.4056
16.0142
16.9291
18.0365
19.1637
20.1464
20.8927
21.3904
21.6809
21.8305
21.8964
21.9136
21.9093
21.9074
21.9077
21.8637
21.6942
21.3304
20.7632
20.0524
19.2912
18.5558
17.8814
17.2801
16.784
16.4695
16.4291
16.6918
17.1419
17.5109
17.4801
16.856
15.7032
14.3265
13.1014
12.2745
11.8796
11.7979
11.8552
11.8657
11.6693
11.2418
10.7726
10.5213
10.5526
10.6881
10.8226
11.0081
12.667
14.9632
15.8851
15.6946
15.3632
15.2692
15.3238
15.3921
15.4378
15.2493
14.6857
13.9603
13.4132
13.2688
13.6106
14.4018
15.5003
16.7133
17.7494
18.4945
18.8976
18.811
18.2293
17.4025
16.6369
16.1005
15.7956
15.6328
15.5257
15.4491
15.4424
15.5723
15.8887
16.3976
17.0546
17.7878
18.5016
19.1339
19.6692
20.1059
20.4506
20.7261
20.9469
21.1116
21.2281
21.317
21.3816
21.3769
21.2154
20.8123
20.1425
19.2668
18.3092
17.4032
16.6475
16.0972
15.7834
15.7286
15.9291
16.3091
16.6895
16.8219
16.499
15.6803
14.5393
13.3767
12.4551
11.8774
11.5924
11.4828
11.4217
11.2705
10.9145
10.3831
9.89672
9.68662
9.75958
9.91629
10.0697
10.5173
12.0258
14.3161
15.3479
15.2175
14.8666
14.7234
14.7189
14.7194
14.704
14.4924
13.9178
13.1263
12.442
12.1553
12.4526
13.3644
14.7239
16.2311
17.4811
18.301
18.6951
18.6305
18.1637
17.5226
16.9442
16.5313
16.2644
16.0869
15.9711
15.9336
16.0081
16.2088
16.5149
16.8824
17.2623
17.6289
17.9545
18.2617
18.5882
18.9278
19.2596
19.5857
19.9018
20.1857
20.4271
20.6334
20.7982
20.8685
20.7442
20.3222
19.5624
18.533
17.4005
16.3676
15.6
15.1814
15.1122
15.3267
15.7063
16.0823
16.2559
16.0569
15.4281
14.4775
13.4406
12.5593
11.9594
11.6189
11.4363
11.3116
11.1539
10.8549
10.3409
9.69591
9.1667
8.95528
9.02553
9.17166
9.33894
10.088
11.4787
13.7651
14.8881
14.8089
14.4432
14.2629
14.2141
14.1582
14.0871
13.8647
13.3328
12.5943
11.9311
11.6292
11.9135
12.8669
14.3412
15.9963
17.363
18.223
18.6129
18.5811
18.2291
17.765
17.3667
17.0804
16.8646
16.6839
16.553
16.5182
16.6096
16.8081
17.0522
17.2742
17.4307
17.5293
17.5789
17.6552
17.826
18.0679
18.3372
18.6393
18.9824
19.3448
19.704
20.0485
20.3498
20.5319
20.4717
20.0445
19.1994
18.0196
16.7213
15.5794
14.8233
14.5557
14.7323
15.1884
15.6912
15.9962
15.9132
15.3743
14.475
13.4454
12.5453
11.9356
11.6168
11.4755
11.3881
11.2739
11.0608
10.653
10.0088
9.2606
8.67746
8.43639
8.47146
8.5809
8.73615
9.32714
10.5541
12.7938
14.0503
14.0664
13.6775
13.4199
13.2836
13.1294
12.961
12.7176
12.2977
11.7743
11.3348
11.154
11.3936
12.171
13.4435
14.9706
16.328
17.2664
17.7925
17.9545
17.8377
17.6103
17.4127
17.2654
17.1155
16.9287
16.7297
16.5769
16.512
16.5295
16.5852
16.6295
16.6381
16.6221
16.5946
16.6216
16.7232
16.836
16.9382
17.079
17.3015
17.6078
17.9705
18.3469
18.6827
18.8994
18.8849
18.521
17.7529
16.6592
15.4615
14.4512
13.8707
13.8084
14.1639
14.6853
15.0631
15.0419
14.5175
13.5797
12.4762
11.5001
10.8562
10.5824
10.574
10.6814
10.7913
10.8253
10.6882
10.2788
9.60173
8.84852
8.28893
8.04676
8.02882
8.06969
8.16437
)
;
    }
    outlet
    {
        type            calculated;
        value           nonuniform List<scalar> 
3200
(
53.0839
54.531
51.8293
49.7713
48.3462
48.1117
50.0739
55.8082
59.229
57.6995
51.6873
44.2192
37.4632
41.3553
40.6681
34.1681
36.2001
39.3373
42.0659
43.8338
44.6671
42.6677
36.9789
36.0072
37.8621
39.7411
40.6862
41.1697
41.4628
41.6664
41.7994
41.865
41.699
41.1212
38.8629
40.1295
42.6602
43.3958
43.5709
43.5776
43.4297
43.1512
42.7645
42.2953
41.8424
41.5718
41.5606
41.711
41.8761
41.8966
41.6638
41.1638
40.4223
39.3023
36.9791
33.0296
31.065
30.6461
30.2856
30.0828
30.0868
30.1842
30.282
30.3377
30.3747
30.422
30.4949
30.5711
30.6371
30.6743
30.5928
30.4162
30.205
30.0186
29.9271
29.9983
30.2947
30.8627
31.7694
31.5284
63.445
76.4931
75.904
73.5425
71.4899
70.5705
71.7063
74.0863
74.2539
72.4461
67.7795
57.3822
48.6039
55.9903
54.3314
46.5351
47.5589
52.794
56.4833
58.7094
59.4106
58.0365
54.385
52.2043
51.5413
51.0632
50.462
49.9339
49.5592
49.3455
49.2728
49.3265
49.3688
48.9823
46.6156
46.7941
50.0664
50.956
50.9753
50.7044
50.3694
50.0547
49.7539
49.4307
49.0663
48.6951
48.3811
48.1797
48.0551
47.9168
47.7103
47.47
47.2912
47.2221
47.1275
47.011
46.7353
46.6662
46.4835
46.371
46.4085
46.5053
46.5835
46.6178
46.6382
46.6745
46.7371
46.799
46.8525
46.8799
46.8018
46.648
46.494
46.3857
46.3425
46.3048
46.2317
46.2103
45.6864
40.0683
61.6805
80.9533
83.9401
82.7543
81.1322
79.9492
79.6837
79.2848
77.9881
75.6819
70.824
59.1225
52.7913
62.3927
60.3596
52.77
51.843
57.2407
61.6024
63.6214
63.515
62.2274
59.8502
57.5082
55.7289
54.3118
53.1587
52.2883
51.6858
51.3143
51.125
51.0582
50.9937
50.5773
48.6535
48.2403
51.2992
52.345
52.4141
52.1392
51.8008
51.4906
51.2098
50.9197
50.5829
50.2091
49.8594
49.5973
49.4265
49.2898
49.1478
49.0306
49.0471
49.3483
50.1107
51.5413
52.613
52.9277
52.962
52.9726
53.0258
53.0862
53.12
53.1226
53.1193
53.1338
53.1758
53.2293
53.2864
53.3282
53.3008
53.2032
53.0464
52.7897
52.3587
51.7001
51.0398
50.6928
49.0957
41.1818
57.5603
78.6211
84.6735
84.9406
84.1883
83.264
82.2412
80.783
78.8916
76.2577
70.6066
57.999
55.8536
66.2839
64.4499
57.7925
55.0907
59.7093
63.8986
65.1326
64.5586
63.3529
61.5513
59.4101
57.4168
55.767
54.4717
53.4965
52.7805
52.2608
51.8861
51.618
51.3969
50.94
49.3798
48.6796
51.2872
52.479
52.68
52.4876
52.1948
51.9017
51.6264
51.3451
51.0296
50.6873
50.3721
50.1397
49.9892
49.8696
49.746
49.6622
49.761
50.2393
51.3196
53.1142
54.6282
55.2715
55.4849
55.5959
55.6772
55.7249
55.7341
55.7173
55.7025
55.7161
55.7715
55.8577
55.9503
56.0005
55.93
55.6759
55.1897
54.4321
53.4464
52.4814
52.0187
51.8147
48.9722
40.1973
53.604
74.2849
82.7103
84.1358
83.9869
83.4288
82.399
80.8772
78.9642
76.2401
69.5925
57.5339
58.6732
68.6347
67.2927
61.9023
58.2667
61.6745
64.8643
65.2631
64.5514
63.5629
62.1134
60.2194
58.2838
56.5862
55.2023
54.1138
53.261
52.5856
52.0601
51.6833
51.4185
50.9759
49.6537
48.811
50.8781
52.1382
52.4647
52.3786
52.1724
51.9437
51.7148
51.4736
51.2044
50.9138
50.6392
50.4215
50.2581
50.109
49.9629
49.8992
50.0821
50.6839
51.869
53.6382
55.1682
55.9596
56.2842
56.4608
56.5777
56.6443
56.6678
56.6694
56.6801
56.7251
56.8071
56.893
56.918
56.791
56.4178
55.7477
54.8002
53.6829
52.6541
52.1313
52.2772
51.7569
47.3688
38.7699
50.2743
69.4917
79.7624
82.1905
82.2701
81.8905
81.0809
79.8844
78.32
75.8083
69.5788
58.9418
61.5846
69.8446
68.939
64.8533
61.2416
63.383
65.1747
64.8898
64.1496
63.4166
62.2761
60.6187
58.798
57.0878
55.6014
54.3718
53.3804
52.596
52.0127
51.6338
51.3827
50.9281
49.7135
48.7903
50.3031
51.5515
51.9851
52.0122
51.9222
51.8076
51.6787
51.5189
51.313
51.0597
50.7808
50.5152
50.2836
50.0805
49.9276
49.9233
50.2092
50.8862
52.0611
53.6962
55.1307
55.9621
56.3435
56.5594
56.7145
56.8259
56.901
56.9534