/*--------------------------------*- C++ -*----------------------------------*\
| =========                 |                                                 |
| \\      /  F ield         | OpenFOAM: The Open Source CFD Toolbox           |
|  \\    /   O peration     | Version:  v2012                                 |
|   \\  /    A nd           | Website:  www.openfoam.com                      |
|    \\/     M anipulation  |                                                 |
\*---------------------------------------------------------------------------*/
FoamFile
{
    version     2.0;
    format      ascii;
    class       volScalarField;
    location    "600/air";
    object      rho;
}
// * * * * * * * * * * * * * * * * * * * * * * * * * * * * * * * * * * * * * //

dimensions      [1 -3 0 0 0 0 0];


internalField   nonuniform List<scalar> 
287104
(
0.999041
0.998146
0.997345
0.996614
0.99594
0.995313
0.994727
0.994176
0.993656
0.993163
0.992693
0.992245
0.991816
0.991404
0.991006
0.990623
0.990251
0.989891
0.989541
0.9892
0.988867
0.988542
0.988225
0.987913
0.987608
0.987309
0.987015
0.986725
0.986441
0.986161
0.985885
0.985613
0.985345
0.98508
0.984819
0.984562
0.984307
0.984056
0.983808
0.983562
0.98332
0.983081
0.982844
0.98261
0.982379
0.98215
0.981924
0.981701
0.98148
0.981261
0.981046
0.980833
0.980622
0.980414
0.980208
0.980004
0.979804
0.979605
0.979409
0.979215
0.979024
0.978835
0.978648
0.978464
0.978282
0.978102
0.977924
0.977748
0.977574
0.977402
0.977233
0.977065
0.976899
0.976734
0.976572
0.976411
0.976251
0.976093
0.975937
0.975781
0.975627
0.975474
0.975322
0.97517
0.975019
0.974867
0.974714
0.974558
0.97439
0.974195
0.999053
0.998171
0.997381
0.99666
0.995996
0.995379
0.994801
0.994259
0.993747
0.993262
0.992801
0.992361
0.99194
0.991535
0.991145
0.990769
0.990405
0.990052
0.989709
0.989375
0.98905
0.988732
0.988421
0.988117
0.987819
0.987527
0.98724
0.986958
0.98668
0.986407
0.986138
0.985874
0.985613
0.985355
0.985101
0.984851
0.984603
0.984359
0.984118
0.98388
0.983645
0.983412
0.983182
0.982955
0.982731
0.982509
0.98229
0.982073
0.981859
0.981647
0.981438
0.981231
0.981027
0.980825
0.980626
0.980429
0.980234
0.980042
0.979852
0.979664
0.979479
0.979296
0.979115
0.978936
0.978759
0.978585
0.978412
0.978242
0.978073
0.977907
0.977742
0.977579
0.977418
0.977259
0.977101
0.976945
0.97679
0.976637
0.976485
0.976334
0.976185
0.976036
0.975888
0.975741
0.975594
0.975446
0.975297
0.975146
0.974982
0.97479
0.999066
0.998196
0.997416
0.996706
0.99605
0.995441
0.994872
0.994337
0.993832
0.993354
0.992899
0.992465
0.99205
0.991651
0.991267
0.990896
0.990538
0.99019
0.989852
0.989524
0.989203
0.988891
0.988585
0.988286
0.987993
0.987706
0.987424
0.987147
0.986875
0.986607
0.986343
0.986084
0.985828
0.985576
0.985327
0.985082
0.98484
0.984601
0.984365
0.984132
0.983902
0.983675
0.983451
0.98323
0.983011
0.982795
0.982581
0.98237
0.982162
0.981956
0.981753
0.981552
0.981354
0.981158
0.980964
0.980773
0.980585
0.980398
0.980215
0.980033
0.979854
0.979677
0.979502
0.97933
0.97916
0.978992
0.978826
0.978662
0.9785
0.97834
0.978182
0.978025
0.977871
0.977718
0.977567
0.977417
0.977269
0.977122
0.976977
0.976833
0.976689
0.976547
0.976405
0.976264
0.976123
0.975982
0.975839
0.975692
0.975534
0.975347
0.999079
0.99822
0.997451
0.99675
0.996104
0.995503
0.994941
0.994413
0.993916
0.993444
0.992995
0.992567
0.992157
0.991763
0.991384
0.991019
0.990665
0.990322
0.989989
0.989665
0.989349
0.989041
0.988739
0.988444
0.988155
0.987872
0.987594
0.987321
0.987053
0.986789
0.986529
0.986273
0.986021
0.985773
0.985528
0.985287
0.985049
0.984814
0.984582
0.984353
0.984126
0.983903
0.983683
0.983465
0.98325
0.983037
0.982827
0.98262
0.982415
0.982213
0.982013
0.981816
0.981621
0.981429
0.981239
0.981051
0.980866
0.980683
0.980503
0.980325
0.980149
0.979975
0.979804
0.979635
0.979467
0.979302
0.979139
0.978978
0.978819
0.978661
0.978506
0.978352
0.978199
0.978048
0.977899
0.977751
0.977604
0.977458
0.977313
0.977169
0.977026
0.976883
0.976741
0.976599
0.976456
0.976313
0.976168
0.97602
0.975859
0.97567
0.999091
0.998244
0.997486
0.996795
0.996157
0.995564
0.99501
0.994489
0.993998
0.993532
0.99309
0.992667
0.992263
0.991874
0.9915
0.991139
0.99079
0.990452
0.990123
0.989803
0.989492
0.989188
0.98889
0.9886
0.988315
0.988035
0.987761
0.987492
0.987228
0.986968
0.986712
0.98646
0.986213
0.985968
0.985727
0.98549
0.985256
0.985025
0.984797
0.984573
0.984351
0.984132
0.983916
0.983702
0.983492
0.983284
0.983078
0.982876
0.982676
0.982478
0.982283
0.982091
0.981901
0.981713
0.981529
0.981346
0.981166
0.980988
0.980813
0.98064
0.980469
0.980301
0.980134
0.97997
0.979808
0.979648
0.97949
0.979334
0.97918
0.979028
0.978877
0.978728
0.978581
0.978435
0.978291
0.978148
0.978006
0.977865
0.977726
0.977587
0.977449
0.977313
0.977177
0.977041
0.976907
0.976772
0.976636
0.976498
0.97635
0.976175
0.999104
0.998269
0.99752
0.996838
0.996209
0.995624
0.995077
0.994564
0.994079
0.993619
0.993183
0.992766
0.992366
0.991983
0.991614
0.991258
0.990913
0.990579
0.990255
0.989939
0.989632
0.989332
0.989038
0.988752
0.988471
0.988195
0.987925
0.98766
0.9874
0.987144
0.986892
0.986644
0.9864
0.98616
0.985924
0.985691
0.985462
0.985236
0.985013
0.984793
0.984576
0.984363
0.984152
0.983945
0.98374
0.983539
0.98334
0.983145
0.982952
0.982762
0.982575
0.982391
0.982209
0.982031
0.981855
0.981682
0.981512
0.981344
0.98118
0.981018
0.980858
0.980702
0.980547
0.980396
0.980247
0.980101
0.979957
0.979816
0.979677
0.979541
0.979407
0.979276
0.979147
0.979021
0.978897
0.978775
0.978657
0.97854
0.978426
0.978315
0.978207
0.978102
0.978
0.977902
0.977808
0.977717
0.977628
0.977541
0.977445
0.977326
0.999116
0.998292
0.997554
0.996881
0.996261
0.995683
0.995144
0.994637
0.994159
0.993705
0.993274
0.992862
0.992468
0.99209
0.991725
0.991374
0.991033
0.990703
0.990383
0.990071
0.989767
0.98947
0.989181
0.988898
0.988621
0.988349
0.988083
0.987823
0.987567
0.987315
0.987068
0.986826
0.986588
0.986354
0.986124
0.985898
0.985676
0.985458
0.985244
0.985034
0.984827
0.984625
0.984426
0.984233
0.984045
0.983862
0.983684
0.983511
0.983342
0.983177
0.983016
0.982858
0.982705
0.982555
0.982409
0.982267
0.982128
0.981992
0.98186
0.981732
0.981607
0.981485
0.981367
0.981252
0.981141
0.981034
0.980931
0.980831
0.980735
0.980644
0.980557
0.980474
0.980396
0.980323
0.980254
0.980191
0.980133
0.98008
0.980033
0.979991
0.979955
0.979925
0.979901
0.979882
0.979869
0.979858
0.979846
0.979822
0.979749
0.979663
0.999128
0.998316
0.997588
0.996924
0.996311
0.995742
0.99521
0.99471
0.994238
0.99379
0.993364
0.992958
0.992569
0.992195
0.991835
0.991488
0.991151
0.990824
0.990507
0.990198
0.989898
0.989604
0.989318
0.989038
0.988765
0.988497
0.988236
0.98798
0.98773
0.987485
0.987246
0.987012
0.986786
0.986567
0.986356
0.986152
0.985955
0.985765
0.985582
0.985405
0.985235
0.985071
0.984913
0.984761
0.984616
0.984476
0.984342
0.984214
0.984091
0.983974
0.983864
0.98376
0.983663
0.983572
0.983487
0.983409
0.983337
0.983272
0.983212
0.983159
0.983111
0.98307
0.983034
0.983005
0.982981
0.982964
0.982952
0.982946
0.982945
0.982951
0.982962
0.982979
0.983002
0.98303
0.983063
0.983102
0.983146
0.983195
0.98325
0.983309
0.983373
0.98344
0.983511
0.983583
0.983655
0.983726
0.983792
0.983846
0.983859
0.983809
0.99914
0.998339
0.997621
0.996966
0.996362
0.9958
0.995275
0.994781
0.994315
0.993873
0.993453
0.993051
0.992664
0.992291
0.991929
0.991578
0.991236
0.990904
0.990581
0.990265
0.989958
0.989659
0.989368
0.989084
0.988813
0.988553
0.988306
0.988069
0.987843
0.987627
0.987421
0.987225
0.987039
0.986862
0.986694
0.986536
0.986387
0.986248
0.986117
0.985994
0.985879
0.985771
0.985672
0.985581
0.985498
0.985423
0.985357
0.985299
0.985249
0.985207
0.985171
0.985141
0.985117
0.985099
0.985086
0.985079
0.985077
0.98508
0.985087
0.9851
0.985117
0.985138
0.985164
0.985194
0.985227
0.985264
0.985305
0.985349
0.985396
0.985446
0.985498
0.985554
0.985611
0.985671
0.985732
0.985795
0.98586
0.985926
0.985993
0.986062
0.986132
0.986202
0.98627
0.986337
0.986401
0.986462
0.986518
0.986565
0.986585
0.986564
0.999152
0.998362
0.997654
0.997008
0.996412
0.995857
0.995339
0.994852
0.994392
0.993956
0.993528
0.9931
0.992668
0.992235
0.991804
0.991378
0.990959
0.99055
0.990152
0.989767
0.989395
0.989038
0.988695
0.988367
0.988058
0.987768
0.987496
0.987238
0.986995
0.986764
0.986546
0.98634
0.986141
0.985947
0.985757
0.985572
0.985391
0.985217
0.98505
0.984892
0.984742
0.984602
0.984472
0.984353
0.984246
0.984149
0.984061
0.983983
0.983913
0.983851
0.983798
0.983754
0.983718
0.983691
0.983672
0.983662
0.98366
0.983667
0.983682
0.983705
0.983735
0.983773
0.983818
0.98387
0.983929
0.983993
0.984064
0.98414
0.984221
0.984307
0.984397
0.984492
0.98459
0.984691
0.984795
0.984902
0.98501
0.98512
0.985233
0.985352
0.985492
0.98564
0.985789
0.985936
0.986075
0.986204
0.986319
0.986414
0.986472
0.986477
0.999164
0.998384
0.997686
0.997049
0.996461
0.995914
0.995402
0.994921
0.994466
0.994024
0.9932
0.992318
0.991428
0.99055
0.989696
0.988874
0.988088
0.987346
0.986651
0.986007
0.985417
0.984883
0.984404
0.98398
0.983607
0.983281
0.982998
0.982751
0.982532
0.982337
0.982159
0.981992
0.981836
0.981689
0.981548
0.981409
0.98127
0.981131
0.980993
0.980853
0.980711
0.980566
0.980419
0.980274
0.980129
0.979987
0.979846
0.979709
0.979576
0.979448
0.979325
0.97921
0.979101
0.979
0.978908
0.978825
0.978751
0.978688
0.978636
0.978594
0.978565
0.978548
0.978543
0.97855
0.97857
0.978603
0.978648
0.978706
0.978775
0.978856
0.978948
0.97905
0.979162
0.979284
0.979414
0.979553
0.979699
0.979853
0.980016
0.980309
0.980815
0.981286
0.981724
0.982132
0.98251
0.982855
0.983163
0.983423
0.983611
0.983691
0.999175
0.998407
0.997718
0.997089
0.996509
0.99597
0.995465
0.99499
0.994541
0.994105
0.993298
0.992435
0.991562
0.990697
0.989851
0.989032
0.988248
0.987502
0.986802
0.986151
0.985552
0.985009
0.984522
0.984091
0.983714
0.983387
0.983104
0.982861
0.98265
0.982465
0.982299
0.982146
0.982002
0.981861
0.98172
0.981577
0.981428
0.981278
0.981124
0.980964
0.980797
0.980624
0.980443
0.980259
0.980073
0.979882
0.979687
0.979488
0.979286
0.97908
0.978871
0.978659
0.978443
0.978224
0.978003
0.977779
0.977554
0.977328
0.977102
0.976877
0.976655
0.976437
0.976225
0.976021
0.975827
0.975645
0.975478
0.975327
0.975195
0.975085
0.974999
0.974937
0.974902
0.974894
0.974913
0.97496
0.975033
0.975133
0.975257
0.975426
0.975754
0.976177
0.976649
0.977139
0.977626
0.978098
0.978543
0.97895
0.979302
0.979577
0.999187
0.998429
0.997749
0.997129
0.996557
0.996025
0.995527
0.995058
0.994615
0.994184
0.99339
0.99254
0.991681
0.990829
0.989996
0.989189
0.988415
0.98768
0.98699
0.986348
0.98576
0.985227
0.984752
0.984334
0.983972
0.983661
0.983398
0.983175
0.982986
0.982824
0.982683
0.982556
0.982437
0.982323
0.98221
0.982093
0.981972
0.98185
0.981726
0.981598
0.981466
0.981327
0.981184
0.981042
0.9809
0.980757
0.980613
0.980469
0.980325
0.980181
0.980038
0.979895
0.979752
0.979609
0.979466
0.979322
0.979178
0.979033
0.978886
0.978737
0.978585
0.978431
0.978273
0.978111
0.977946
0.977777
0.977603
0.977426
0.977244
0.977058
0.976869
0.976677
0.976482
0.976285
0.976087
0.975889
0.975693
0.9755
0.975313
0.97515
0.9751
0.975134
0.975221
0.97534
0.975477
0.975623
0.975771
0.975911
0.976023
0.97609
0.999198
0.99845
0.99778
0.997169
0.996604
0.996079
0.995588
0.995125
0.994688
0.994263
0.993481
0.992645
0.991799
0.99096
0.99014
0.989345
0.988583
0.987859
0.987178
0.986546
0.985967
0.985442
0.984975
0.984564
0.984209
0.983905
0.983648
0.983431
0.983248
0.983092
0.982957
0.982837
0.982725
0.982617
0.98251
0.9824
0.982284
0.982169
0.982052
0.981932
0.981807
0.981677
0.981541
0.981408
0.981278
0.981147
0.981018
0.980889
0.980763
0.98064
0.980519
0.980401
0.980293
0.980192
0.980097
0.980008
0.979922
0.97984
0.979763
0.979689
0.97962
0.979555
0.979495
0.979439
0.979387
0.97934
0.979298
0.979259
0.979225
0.979194
0.979168
0.979144
0.979123
0.979105
0.979088
0.979072
0.979059
0.97905
0.979061
0.979196
0.979479
0.979713
0.979899
0.980041
0.98014
0.980194
0.980199
0.980141
0.979992
0.979821
0.999209
0.998472
0.997811
0.997208
0.996651
0.996133
0.995648
0.995192
0.994761
0.994341
0.993572
0.992749
0.991915
0.991089
0.990281
0.989499
0.988748
0.988035
0.987364
0.986742
0.986171
0.985655
0.985195
0.984791
0.984442
0.984143
0.98389
0.983678
0.983498
0.983345
0.983212
0.983094
0.982984
0.982878
0.982772
0.982662
0.982545
0.982429
0.982312
0.98219
0.982064
0.981931
0.981793
0.981657
0.981524
0.981391
0.981259
0.981128
0.980999
0.980872
0.980748
0.980627
0.98051
0.980396
0.980286
0.980179
0.980074
0.979972
0.979873
0.97978
0.979692
0.979608
0.979527
0.979449
0.979373
0.9793
0.979231
0.979165
0.979102
0.979045
0.978991
0.978943
0.9789
0.978862
0.97883
0.978806
0.978789
0.978785
0.978808
0.97896
0.979259
0.979521
0.979748
0.979946
0.980117
0.98026
0.980368
0.980429
0.980389
0.980191
0.99922
0.998493
0.997841
0.997247
0.996697
0.996187
0.995708
0.995258
0.994832
0.994418
0.993662
0.992851
0.992031
0.991218
0.990422
0.989651
0.988912
0.98821
0.98755
0.986937
0.986375
0.985867
0.985414
0.985017
0.984674
0.98438
0.984132
0.983922
0.983744
0.983591
0.983459
0.98334
0.983229
0.983122
0.983015
0.982901
0.98278
0.982659
0.982537
0.98241
0.982278
0.982139
0.981992
0.981848
0.981708
0.981567
0.981427
0.981287
0.981148
0.981011
0.980878
0.980747
0.980619
0.980494
0.980372
0.980251
0.980131
0.980013
0.979895
0.979778
0.97966
0.979542
0.979424
0.979304
0.979183
0.97906
0.978935
0.978808
0.978678
0.978545
0.978409
0.97827
0.978127
0.97798
0.977828
0.977671
0.977509
0.977342
0.977169
0.977003
0.97691
0.976868
0.976854
0.976851
0.97685
0.976846
0.976834
0.976809
0.976755
0.976653
0.999231
0.998514
0.997871
0.997285
0.996743
0.996239
0.995768
0.995324
0.994904
0.994495
0.993751
0.992953
0.992146
0.991345
0.990562
0.989803
0.989075
0.988384
0.987734
0.987131
0.986578
0.986079
0.985634
0.985244
0.984906
0.984618
0.984373
0.984165
0.983988
0.983834
0.983699
0.983577
0.983462
0.983351
0.983238
0.983119
0.982991
0.982862
0.982733
0.982597
0.982456
0.982307
0.98215
0.981996
0.981846
0.981695
0.981544
0.981393
0.981243
0.981095
0.980951
0.98081
0.980673
0.980537
0.980403
0.98027
0.980138
0.980005
0.979872
0.979738
0.979603
0.979466
0.979328
0.979187
0.979044
0.978898
0.978749
0.978599
0.978445
0.97829
0.978133
0.977975
0.977815
0.977656
0.977499
0.977343
0.977191
0.977044
0.976905
0.976785
0.976766
0.976831
0.976955
0.97712
0.977312
0.97752
0.977735
0.977948
0.97814
0.978295
0.999242
0.998535
0.997901
0.997322
0.996788
0.996291
0.995826
0.995388
0.994974
0.994571
0.993838
0.993054
0.992259
0.991471
0.990699
0.989952
0.989236
0.988555
0.987917
0.987324
0.986782
0.986292
0.985856
0.985475
0.985146
0.984865
0.984626
0.984422
0.984246
0.984093
0.983956
0.983831
0.983713
0.983599
0.983483
0.98336
0.983229
0.983097
0.982964
0.982825
0.98268
0.982527
0.982364
0.982205
0.982049
0.981893
0.981737
0.981581
0.981429
0.981281
0.981139
0.981003
0.980873
0.980747
0.980623
0.980503
0.980385
0.980268
0.980153
0.980039
0.979927
0.979815
0.979705
0.979596
0.979488
0.979382
0.979279
0.979178
0.979081
0.978989
0.978902
0.978822
0.978748
0.978683
0.978628
0.978583
0.97855
0.978532
0.978535
0.978583
0.978763
0.979026
0.979334
0.979663
0.979995
0.980322
0.980634
0.980924
0.981173
0.981361
0.999252
0.998555
0.99793
0.99736
0.996833
0.996343
0.995884
0.995452
0.995044
0.994647
0.993926
0.993153
0.99237
0.991594
0.990834
0.9901
0.989397
0.988731
0.988109
0.987535
0.987013
0.986547
0.986137
0.985783
0.985481
0.985227
0.985012
0.98483
0.984673
0.984534
0.984409
0.984293
0.984184
0.984078
0.983972
0.983858
0.983734
0.983608
0.98348
0.983344
0.983197
0.983039
0.982868
0.982698
0.982531
0.982361
0.982192
0.982025
0.981866
0.981716
0.981578
0.981452
0.981337
0.981232
0.981135
0.981046
0.980964
0.98089
0.980823
0.980762
0.980707
0.980656
0.980611
0.98057
0.980533
0.980501
0.980473
0.98045
0.980433
0.980422
0.980417
0.980419
0.980428
0.980445
0.980471
0.980505
0.98055
0.980629
0.980758
0.981052
0.981503
0.981918
0.982302
0.98266
0.982994
0.983303
0.983584
0.983829
0.984008
0.984078
0.999262
0.998575
0.997959
0.997396
0.996877
0.996393
0.995941
0.995515
0.995112
0.99472
0.994006
0.993239
0.992464
0.991703
0.99097
0.990274
0.989626
0.989031
0.988497
0.988024
0.987613
0.987262
0.986965
0.986717
0.986509
0.986334
0.986185
0.986053
0.985933
0.98582
0.98571
0.985604
0.985499
0.985396
0.985289
0.985175
0.98505
0.984919
0.984783
0.984633
0.984468
0.984285
0.984084
0.983875
0.983663
0.983444
0.983222
0.983002
0.98279
0.982593
0.982416
0.98226
0.982126
0.982014
0.981924
0.981858
0.981829
0.981828
0.981846
0.981877
0.981916
0.981961
0.982008
0.982058
0.982109
0.982161
0.982215
0.982271
0.982329
0.98239
0.982454
0.982522
0.982594
0.98267
0.982751
0.982837
0.982931
0.983036
0.983169
0.983439
0.983845
0.984197
0.98451
0.984792
0.985049
0.985283
0.985493
0.985675
0.985805
0.985856
0.999273
0.998595
0.997987
0.997432
0.99692
0.996444
0.995997
0.995578
0.995182
0.994806
0.994447
0.994099
0.993764
0.993437
0.993119
0.99281
0.992509
0.992217
0.991934
0.991659
0.991392
0.991134
0.990884
0.990643
0.990409
0.990182
0.989963
0.98975
0.989542
0.989338
0.989139
0.988945
0.988755
0.988571
0.98839
0.988212
0.988034
0.987859
0.987688
0.987518
0.987347
0.987176
0.987003
0.986832
0.986664
0.9865
0.986343
0.986195
0.986058
0.985933
0.985821
0.985722
0.985636
0.985562
0.9855
0.98545
0.98541
0.985381
0.985362
0.985351
0.985347
0.985351
0.985361
0.985377
0.985398
0.985423
0.985453
0.985486
0.985523
0.985564
0.985607
0.985653
0.985702
0.985753
0.985807
0.985863
0.985922
0.985983
0.986049
0.986121
0.986207
0.986298
0.986391
0.986485
0.986577
0.986665
0.986746
0.986815
0.986853
0.986844
0.999283
0.998615
0.998015
0.997468
0.996963
0.996493
0.996053
0.99564
0.995249
0.994878
0.994525
0.994188
0.993864
0.993553
0.993252
0.992962
0.992681
0.992409
0.992146
0.99189
0.991641
0.991399
0.991163
0.990934
0.990711
0.990493
0.990281
0.990073
0.989868
0.989667
0.989468
0.989272
0.98908
0.988891
0.988705
0.988522
0.988339
0.98816
0.987985
0.987813
0.987643
0.987475
0.987309
0.987148
0.986994
0.986845
0.986702
0.986566
0.986439
0.986322
0.986217
0.986122
0.986036
0.985958
0.98589
0.98583
0.985778
0.985734
0.985697
0.985668
0.985645
0.985628
0.985616
0.98561
0.985609
0.985612
0.98562
0.985632
0.985647
0.985666
0.985689
0.985715
0.985744
0.985775
0.98581
0.985847
0.985887
0.98593
0.985976
0.986026
0.986079
0.986131
0.986182
0.98623
0.986276
0.986316
0.986351
0.986373
0.986365
0.986307
0.999293
0.998634
0.998043
0.997504
0.997006
0.996543
0.996109
0.995701
0.995316
0.994951
0.994603
0.994271
0.993952
0.993647
0.993352
0.993067
0.992792
0.992525
0.992266
0.992014
0.991768
0.991528
0.991295
0.991066
0.990842
0.990623
0.990408
0.990197
0.98999
0.989785
0.989582
0.989381
0.989183
0.988989
0.988797
0.988608
0.98842
0.988235
0.988054
0.987875
0.987697
0.987519
0.98734
0.987163
0.986988
0.986812
0.986637
0.986464
0.986294
0.986129
0.985968
0.985813
0.985664
0.985524
0.985393
0.985271
0.985157
0.98505
0.984951
0.984859
0.984773
0.984693
0.984619
0.98455
0.984486
0.984427
0.984373
0.984323
0.984277
0.984236
0.984199
0.984165
0.984136
0.98411
0.984087
0.984068
0.984052
0.984039
0.984029
0.984021
0.984015
0.984011
0.984008
0.984007
0.984005
0.984001
0.983992
0.983972
0.983927
0.983869
0.999303
0.998654
0.998071
0.99754
0.997049
0.996592
0.996164
0.995762
0.995383
0.995022
0.99468
0.994352
0.994038
0.993737
0.993446
0.993166
0.992894
0.992631
0.992375
0.992127
0.991884
0.991648
0.991417
0.991191
0.990969
0.990752
0.990539
0.99033
0.990124
0.98992
0.989718
0.989519
0.989321
0.989126
0.988935
0.988745
0.988558
0.988374
0.988195
0.98802
0.98785
0.987683
0.987518
0.987354
0.987193
0.987031
0.986869
0.986707
0.986548
0.986392
0.986241
0.986095
0.985953
0.985816
0.985685
0.98556
0.985442
0.985331
0.985228
0.985132
0.985044
0.984963
0.98489
0.984824
0.984765
0.984712
0.984665
0.984624
0.984588
0.984556
0.984528
0.984502
0.984479
0.984458
0.984437
0.984417
0.984398
0.984378
0.984357
0.984336
0.984313
0.984288
0.984262
0.984232
0.9842
0.984165
0.984125
0.984081
0.984026
0.983951
0.999313
0.998673
0.998099
0.997575
0.997091
0.996641
0.996219
0.995823
0.995449
0.995094
0.994756
0.994433
0.994124
0.993827
0.993541
0.993265
0.992997
0.992738
0.992486
0.992241
0.992002
0.991768
0.99154
0.991317
0.991098
0.990883
0.990672
0.990464
0.99026
0.990057
0.989857
0.989658
0.989461
0.989266
0.989075
0.988886
0.9887
0.988519
0.988352
0.988202
0.988073
0.987961
0.987856
0.987758
0.987663
0.987567
0.987471
0.987376
0.987282
0.987191
0.987104
0.987025
0.986955
0.986893
0.986841
0.986797
0.986762
0.986736
0.986717
0.986703
0.986695
0.986691
0.986689
0.986688
0.986688
0.986688
0.986686
0.986682
0.986675
0.986666
0.986653
0.986637
0.986617
0.986593
0.986566
0.986535
0.9865
0.986462
0.98642
0.986376
0.986328
0.986276
0.986221
0.986162
0.986099
0.986032
0.98596
0.985882
0.985794
0.985687
0.999323
0.998692
0.998127
0.99761
0.997133
0.996689
0.996274
0.995883
0.995514
0.995164
0.994831
0.994513
0.994208
0.993915
0.993633
0.993361
0.993097
0.992841
0.992592
0.99235
0.992115
0.991884
0.991659
0.991438
0.991222
0.991009
0.9908
0.990594
0.99039
0.990189
0.989989
0.989791
0.989594
0.9894
0.989208
0.98902
0.988834
0.988667
0.988549
0.988504
0.98853
0.988598
0.988682
0.988769
0.988852
0.988927
0.988992
0.989051
0.989104
0.989151
0.989188
0.989222
0.989251
0.989274
0.989292
0.989303
0.989308
0.989306
0.989299
0.989286
0.989269
0.989247
0.989221
0.989191
0.989157
0.98912
0.98908
0.989036
0.98899
0.988941
0.988888
0.988834
0.988777
0.988717
0.988656
0.988592
0.988526
0.988459
0.988389
0.988319
0.988246
0.988172
0.988096
0.988018
0.987938
0.987856
0.987771
0.987683
0.987586
0.987473
0.999333
0.998711
0.998153
0.997644
0.997174
0.996737
0.996327
0.995942
0.995578
0.995233
0.994905
0.994591
0.99429
0.994001
0.993723
0.993454
0.993194
0.992941
0.992696
0.992457
0.992224
0.991996
0.991774
0.991556
0.991342
0.991131
0.990924
0.990718
0.990516
0.990314
0.990115
0.989916
0.989719
0.989523
0.98933
0.98914
0.988958
0.988859
0.988987
0.989302
0.98972
0.99013
0.990475
0.990757
0.990979
0.991144
0.991264
0.991346
0.9914
0.991429
0.991439
0.99143
0.991405
0.991369
0.991324
0.991273
0.991216
0.991155
0.991092
0.991027
0.990961
0.990894
0.990826
0.990758
0.990688
0.990619
0.990548
0.990477
0.990405
0.990332
0.990259
0.990184
0.990109
0.990033
0.989957
0.989879
0.989801
0.989723
0.989644
0.989565
0.989485
0.989404
0.989322
0.989239
0.989156
0.989071
0.988984
0.988895
0.988798
0.988688
0.999342
0.998729
0.998179
0.997677
0.997213
0.996781
0.996377
0.995997
0.995638
0.995298
0.994974
0.994664
0.994367
0.994082
0.993807
0.993542
0.993285
0.993035
0.992793
0.992556
0.992326
0.9921
0.99188
0.991664
0.991452
0.991243
0.991037
0.990832
0.99063
0.990429
0.990228
0.990028
0.989829
0.98963
0.989434
0.989241
0.989071
0.989185
0.989881
0.990812
0.991619
0.992173
0.99255
0.992774
0.992891
0.992931
0.992921
0.992879
0.992817
0.992744
0.992663
0.992578
0.992491
0.992404
0.992317
0.992231
0.992147
0.992065
0.991984
0.991905
0.991827
0.99175
0.991675
0.991602
0.991529
0.991456
0.991384
0.991311
0.991238
0.991164
0.99109
0.991016
0.990941
0.990866
0.99079
0.990714
0.990638
0.990561
0.990485
0.990407
0.99033
0.990252
0.990173
0.990094
0.990013
0.98993
0.989843
0.989749
0.989649
0.989538
0.99935
0.998745
0.998202
0.997706
0.997248
0.996821
0.996422
0.996047
0.995692
0.995356
0.995036
0.99473
0.994436
0.994154
0.993883
0.99362
0.993366
0.993119
0.992878
0.992644
0.992416
0.992192
0.991973
0.991758
0.991547
0.991339
0.991134
0.99093
0.990727
0.990525
0.990324
0.990121
0.989919
0.989716
0.989514
0.989318
0.989227
0.98973
0.991467
0.992796
0.993614
0.994031
0.994154
0.994146
0.994065
0.993941
0.993799
0.993652
0.993509
0.993374
0.993249
0.993134
0.993028
0.992931
0.992839
0.992752
0.992671
0.992596
0.992524
0.992453
0.992383
0.992314
0.992244
0.992174
0.992104
0.992033
0.991961
0.99189
0.991817
0.991745
0.991672
0.991598
0.991525
0.991451
0.991377
0.991303
0.991229
0.991154
0.99108
0.991006
0.990931
0.990857
0.990782
0.990706
0.99063
0.990551
0.99047
0.990382
0.990277
0.990159
0.999357
0.998758
0.998221
0.99773
0.997277
0.996855
0.99646
0.996088
0.995737
0.995404
0.995087
0.994784
0.994493
0.994214
0.993945
0.993684
0.993432
0.993187
0.992948
0.992716
0.992488
0.992266
0.992047
0.991833
0.991622
0.991414
0.991208
0.991004
0.9908
0.990597
0.990393
0.990188
0.989982
0.989775
0.989568
0.989367
0.989274
0.989806
0.991833
0.993386
0.994394
0.994957
0.994958
0.994865
0.994723
0.994552
0.994371
0.994192
0.994021
0.993865
0.993723
0.993592
0.993473
0.993369
0.993275
0.993189
0.993108
0.99303
0.992955
0.99288
0.992807
0.992734
0.992661
0.992588
0.992515
0.992441
0.992368
0.992294
0.99222
0.992146
0.992072
0.991998
0.991924
0.99185
0.991776
0.991703
0.99163
0.991557
0.991484
0.991412
0.99134
0.991268
0.991196
0.991123
0.99105
0.990976
0.990898
0.990815
0.990715
0.99059
0.999362
0.998768
0.998235
0.997748
0.997298
0.99688
0.996488
0.996119
0.99577
0.995439
0.995124
0.994823
0.994535
0.994257
0.993989
0.99373
0.993479
0.993235
0.992998
0.992766
0.992539
0.992317
0.992098
0.991883
0.991671
0.991462
0.991255
0.991049
0.990844
0.990638
0.990431
0.990223
0.990014
0.989806
0.989602
0.989409
0.989303
0.989803
0.991964
0.993666
0.994822
0.995525
0.99543
0.995271
0.995084
0.994883
0.994683
0.994491
0.99431
0.994142
0.993988
0.993848
0.993725
0.993615
0.993514
0.993421
0.993333
0.993249
0.993168
0.993089
0.993011
0.992935
0.992859
0.992784
0.99271
0.992635
0.992561
0.992486
0.992412
0.992338
0.992264
0.992191
0.992117
0.992043
0.99197
0.991897
0.991824
0.991752
0.99168
0.991609
0.991538
0.991467
0.991397
0.991327
0.991255
0.991183
0.991107
0.991025
0.990928
0.990805
0.999365
0.998774
0.998244
0.997759
0.997312
0.996895
0.996505
0.996138
0.99579
0.995461
0.995147
0.994847
0.994559
0.994282
0.994015
0.993757
0.993506
0.993262
0.993025
0.992793
0.992566
0.992343
0.992123
0.991907
0.991694
0.991483
0.991273
0.991065
0.990856
0.990648
0.990439
0.990231
0.990027
0.989832
0.989656
0.989507
0.989393
0.989798
0.991856
0.993548
0.994729
0.995476
0.995352
0.995169
0.99497
0.994769
0.994577
0.994398
0.994232
0.994079
0.993936
0.993808
0.993691
0.993583
0.993482
0.993387
0.993297
0.99321
0.993126
0.993045
0.992967
0.99289
0.992814
0.99274
0.992666
0.992592
0.992519
0.992445
0.992371
0.992297
0.992223
0.992148
0.992074
0.992
0.991926
0.991852
0.991779
0.991706
0.991634
0.991563
0.991492
0.991422
0.991352
0.991282
0.991212
0.99114
0.991065
0.990983
0.990884
0.990757
0.999367
0.998777
0.998248
0.997764
0.997318
0.996902
0.996513
0.996146
0.9958
0.995471
0.995157
0.994857
0.994569
0.994292
0.994025
0.993766
0.993515
0.993271
0.993032
0.9928
0.992571
0.992347
0.992126
0.991908
0.991693
0.991479
0.991268
0.991057
0.990847
0.990639
0.990435
0.990239
0.990061
0.989921
0.989837
0.989812
0.989739
0.989677
0.990375
0.991279
0.992258
0.993095
0.993219
0.993293
0.993342
0.993367
0.993373
0.993363
0.993341
0.993308
0.993265
0.993216
0.993162
0.993104
0.993041
0.992976
0.992909
0.992841
0.992775
0.992707
0.992639
0.992571
0.992502
0.992432
0.992362
0.99229
0.992217
0.992143
0.992067
0.991989
0.991909
0.991829
0.991747
0.991665
0.991581
0.991498
0.991415
0.991333
0.991252
0.991171
0.991092
0.991014
0.990938
0.990861
0.990785
0.990707
0.990626
0.990537
0.990432
0.990317
0.999367
0.998777
0.998248
0.997765
0.997319
0.996903
0.996514
0.996147
0.995801
0.995472
0.995158
0.994858
0.99457
0.994293
0.994025
0.993766
0.993514
0.993269
0.993029
0.992795
0.992565
0.992339
0.992116
0.991896
0.991678
0.991463
0.991249
0.991039
0.990835
0.990639
0.99046
0.990313
0.990217
0.99021
0.990316
0.990493
0.990486
0.990404
0.990863
0.991284
0.991703
0.992095
0.991894
0.991719
0.991602
0.991546
0.991551
0.991611
0.991709
0.991823
0.991936
0.992036
0.992116
0.992175
0.992211
0.992227
0.992225
0.992209
0.992181
0.992143
0.992095
0.992038
0.991974
0.991903
0.991826
0.991743
0.991655
0.991566
0.991474
0.991379
0.991283
0.991184
0.991083
0.99098
0.990876
0.990772
0.990666
0.990561
0.990457
0.990353
0.990251
0.990151
0.990052
0.989955
0.98986
0.989766
0.989671
0.989573
0.989467
0.989344
0.999366
0.998776
0.998247
0.997763
0.997316
0.9969
0.996511
0.996144
0.995798
0.995469
0.995155
0.994855
0.994567
0.99429
0.994022
0.993762
0.99351
0.993264
0.993024
0.992789
0.992557
0.99233
0.992105
0.991883
0.991663
0.991446
0.991236
0.991038
0.990859
0.990712
0.99061
0.990575
0.990637
0.990834
0.991154
0.991444
0.991372
0.991224
0.99174
0.992195
0.992578
0.992883
0.992468
0.99208
0.991763
0.991501
0.991296
0.991162
0.991098
0.991097
0.99114
0.99121
0.991289
0.991363
0.991425
0.991468
0.991492
0.991496
0.991487
0.991462
0.991422
0.991368
0.9913
0.991218
0.991124
0.991018
0.9909
0.990771
0.990632
0.990484
0.990327
0.990164
0.989994
0.98982
0.989638
0.989447
0.989252
0.989057
0.988865
0.988679
0.9885
0.988329
0.988167
0.988012
0.987865
0.987723
0.987584
0.987444
0.987296
0.987128
0.999366
0.998775
0.998245
0.997761
0.997313
0.996897
0.996507
0.99614
0.995793
0.995464
0.99515
0.99485
0.994561
0.994284
0.994016
0.993756
0.993504
0.993258
0.993017
0.992782
0.99255
0.992321
0.992095
0.991872
0.991652
0.991438
0.991245
0.991097
0.991011
0.990996
0.991056
0.991202
0.991441
0.991783
0.99216
0.992284
0.991957
0.991553
0.992179
0.992743
0.993167
0.993416
0.992364
0.991427
0.990717
0.990282
0.990063
0.989992
0.990011
0.990088
0.990195
0.990315
0.990433
0.99054
0.990628
0.99069
0.990723
0.990727
0.990703
0.990651
0.990571
0.990466
0.990336
0.990181
0.989997
0.989791
0.989572
0.989349
0.989128
0.988915
0.988717
0.988537
0.988379
0.988244
0.988138
0.98806
0.988002
0.987957
0.987919
0.987884
0.987848
0.987809
0.987764
0.987712
0.987653
0.987586
0.987509
0.987422
0.98732
0.987197
0.999365
0.998774
0.998244
0.997759
0.997311
0.996895
0.996504
0.996137
0.99579
0.99546
0.995146
0.994845
0.994557
0.994279
0.99401
0.99375
0.993497
0.993251
0.99301
0.992774
0.992541
0.992312
0.992085
0.991862
0.991643
0.99145
0.991373
0.991417
0.991572
0.991794
0.992031
0.992284
0.992539
0.992786
0.992941
0.992675
0.988028