/*--------------------------------*- C++ -*----------------------------------*\
| =========                 |                                                 |
| \\      /  F ield         | OpenFOAM: The Open Source CFD Toolbox           |
|  \\    /   O peration     | Version:  v2012                                 |
|   \\  /    A nd           | Website:  www.openfoam.com                      |
|    \\/     M anipulation  |                                                 |
\*---------------------------------------------------------------------------*/
FoamFile
{
    version     2.0;
    format      ascii;
    class       volScalarField;
    location    "600/air";
    object      T;
}
// * * * * * * * * * * * * * * * * * * * * * * * * * * * * * * * * * * * * * //

dimensions      [0 0 0 1 0 0 0];


internalField   nonuniform List<scalar> 
287104
(
310.32
310.618
310.885
311.129
311.353
311.562
311.758
311.941
312.115
312.279
312.436
312.585
312.728
312.865
312.998
313.126
313.25
313.37
313.486
313.6
313.711
313.819
313.925
314.029
314.131
314.23
314.328
314.425
314.52
314.613
314.705
314.796
314.885
314.973
315.06
315.146
315.231
315.315
315.397
315.479
315.56
315.64
315.719
315.797
315.874
315.95
316.025
316.1
316.173
316.246
316.318
316.389
316.459
316.529
316.597
316.665
316.732
316.798
316.864
316.928
316.992
317.055
317.117
317.179
317.239
317.299
317.359
317.417
317.475
317.533
317.589
317.645
317.7
317.755
317.809
317.863
317.916
317.969
318.021
318.073
318.124
318.175
318.226
318.277
318.327
318.378
318.429
318.481
318.537
318.602
310.316
310.61
310.873
311.113
311.335
311.54
311.733
311.914
312.084
312.246
312.4
312.546
312.687
312.822
312.952
313.077
313.198
313.316
313.43
313.542
313.65
313.756
313.86
313.961
314.06
314.158
314.253
314.347
314.44
314.531
314.621
314.709
314.796
314.882
314.966
315.05
315.132
315.214
315.294
315.373
315.452
315.529
315.606
315.682
315.756
315.83
315.903
315.976
316.047
316.118
316.187
316.256
316.324
316.392
316.458
316.524
316.589
316.653
316.716
316.779
316.84
316.901
316.962
317.021
317.08
317.138
317.196
317.253
317.309
317.364
317.419
317.474
317.527
317.58
317.633
317.685
317.737
317.788
317.838
317.889
317.938
317.988
318.037
318.086
318.135
318.185
318.234
318.285
318.339
318.403
310.311
310.601
310.861
311.098
311.317
311.52
311.709
311.888
312.056
312.215
312.367
312.512
312.65
312.783
312.911
313.035
313.154
313.27
313.383
313.492
313.599
313.703
313.805
313.905
314.002
314.098
314.192
314.284
314.375
314.464
314.552
314.639
314.724
314.808
314.891
314.973
315.053
315.133
315.212
315.289
315.366
315.442
315.516
315.59
315.663
315.735
315.806
315.877
315.946
316.015
316.082
316.149
316.215
316.281
316.345
316.409
316.472
316.534
316.595
316.656
316.715
316.774
316.833
316.89
316.947
317.003
317.058
317.113
317.167
317.22
317.273
317.325
317.376
317.427
317.478
317.528
317.577
317.626
317.674
317.722
317.77
317.818
317.865
317.912
317.959
318.006
318.054
318.103
318.155
318.218
310.307
310.593
310.85
311.083
311.299
311.499
311.686
311.862
312.028
312.185
312.335
312.478
312.614
312.746
312.872
312.994
313.112
313.226
313.337
313.445
313.55
313.653
313.754
313.852
313.948
314.043
314.135
314.226
314.316
314.404
314.49
314.576
314.66
314.742
314.824
314.904
314.984
315.062
315.139
315.216
315.291
315.366
315.439
315.512
315.583
315.654
315.724
315.793
315.862
315.929
315.996
316.061
316.126
316.19
316.254
316.316
316.378
316.439
316.499
316.558
316.617
316.675
316.732
316.788
316.844
316.899
316.954
317.007
317.06
317.113
317.165
317.216
317.267
317.317
317.367
317.416
317.465
317.514
317.562
317.61
317.658
317.706
317.753
317.8
317.848
317.896
317.944
317.993
318.047
318.11
310.303
310.585
310.838
311.068
311.281
311.479
311.663
311.837
312.001
312.156
312.303
312.444
312.579
312.709
312.833
312.954
313.07
313.183
313.292
313.399
313.503
313.604
313.703
313.8
313.895
313.988
314.08
314.169
314.257
314.344
314.429
314.513
314.596
314.677
314.758
314.837
314.915
314.992
315.068
315.142
315.216
315.289
315.361
315.433
315.503
315.572
315.641
315.708
315.775
315.841
315.906
315.97
316.033
316.096
316.157
316.218
316.278
316.337
316.396
316.453
316.51
316.566
316.622
316.677
316.731
316.784
316.837
316.889
316.94
316.991
317.041
317.091
317.14
317.188
317.236
317.284
317.331
317.378
317.425
317.471
317.517
317.562
317.608
317.653
317.698
317.743
317.788
317.834
317.883
317.942
310.299
310.577
310.827
311.054
311.264
311.459
311.641
311.812
311.974
312.127
312.272
312.411
312.545
312.672
312.795
312.914
313.029
313.14
313.248
313.354
313.456
313.556
313.654
313.749
313.843
313.935
314.025
314.113
314.2
314.285
314.369
314.452
314.533
314.613
314.692
314.77
314.846
314.921
314.996
315.069
315.141
315.212
315.283
315.352
315.42
315.487
315.553
315.618
315.683
315.746
315.808
315.87
315.93
315.99
316.048
316.106
316.163
316.219
316.273
316.327
316.381
316.433
316.484
316.535
316.584
316.633
316.681
316.728
316.774
316.82
316.864
316.908
316.951
316.993
317.034
317.075
317.114
317.153
317.191
317.228
317.264
317.299
317.333
317.366
317.397
317.428
317.457
317.486
317.518
317.558
310.295
310.569
310.815
311.04
311.246
311.439
311.619
311.788
311.947
312.098
312.242
312.379
312.511
312.637
312.758
312.875
312.989
313.099
313.206
313.31
313.411
313.51
313.606
313.701
313.793
313.884
313.972
314.059
314.144
314.228
314.311
314.391
314.471
314.549
314.625
314.701
314.775
314.847
314.919
314.989
315.058
315.125
315.191
315.256
315.318
315.379
315.439
315.496
315.553
315.608
315.661
315.714
315.765
315.815
315.864
315.911
315.957
316.003
316.047
316.089
316.131
316.172
316.211
316.249
316.286
316.322
316.356
316.39
316.422
316.452
316.481
316.509
316.535
316.559
316.582
316.603
316.622
316.64
316.656
316.67
316.682
316.692
316.7
316.706
316.71
316.714
316.718
316.726
316.75
316.779
310.291
310.561
310.804
311.025
311.23
311.419
311.597
311.763
311.921
312.07
312.212
312.347
312.477
312.602
312.722
312.837
312.95
313.059
313.164
313.267
313.367
313.465
313.561
313.654
313.745
313.834
313.921
314.007
314.09
314.172
314.251
314.329
314.405
314.478
314.548
314.616
314.682
314.745
314.806
314.865
314.922
314.976
315.029
315.08
315.128
315.175
315.219
315.262
315.303
315.342
315.379
315.413
315.446
315.476
315.504
315.53
315.554
315.576
315.596
315.614
315.63
315.643
315.655
315.665
315.673
315.679
315.683
315.685
315.685
315.683
315.679
315.674
315.666
315.657
315.646
315.633
315.618
315.602
315.583
315.564
315.542
315.52
315.496
315.472
315.448
315.425
315.403
315.385
315.38
315.397
310.287
310.554
310.793
311.011
311.213
311.4
311.575
311.74
311.895
312.042
312.182
312.316
312.445
312.57
312.69
312.807
312.921
313.032
313.14
313.245
313.347
313.447
313.544
313.639
313.729
313.816
313.898
313.977
314.052
314.124
314.193
314.258
314.32
314.379
314.435
314.488
314.538
314.584
314.628
314.669
314.707
314.743
314.776
314.806
314.834
314.859
314.881
314.9
314.917
314.931
314.943
314.953
314.961
314.967
314.971
314.974
314.974
314.973
314.971
314.967
314.961
314.954
314.945
314.935
314.924
314.912
314.898
314.884
314.868
314.851
314.834
314.815
314.796
314.776
314.756
314.735
314.713
314.691
314.669
314.646
314.623
314.599
314.577
314.554
314.533
314.513
314.494
314.478
314.472
314.479
310.283
310.546
310.782
310.997
311.196
311.381
311.554
311.716
311.869
312.015
312.157
312.3
312.444
312.588
312.732
312.874
313.014
313.15
313.283
313.411
313.535
313.654
313.768
313.878
313.981
314.077
314.168
314.254
314.335
314.412
314.485
314.553
314.62
314.684
314.748
314.809
314.87
314.928
314.983
315.036
315.086
315.133
315.176
315.216
315.251
315.284
315.313
315.339
315.362
315.383
315.401
315.415
315.427
315.436
315.443
315.446
315.447
315.444
315.439
315.432
315.422
315.409
315.394
315.377
315.357
315.336
315.312
315.287
315.26
315.231
315.201
315.169
315.137
315.103
315.068
315.033
314.997
314.96
314.922
314.883
314.836
314.787
314.737
314.688
314.642
314.599
314.56
314.529
314.509
314.508
310.279
310.539
310.771
310.984
311.18
311.362
311.533
311.693
311.845
311.992
312.267
312.561
312.857
313.15
313.435
313.709
313.971
314.218
314.45
314.664
314.861
315.039
315.199
315.34
315.464
315.573
315.667
315.75
315.823
315.888
315.947
316.003
316.055
316.104
316.151
316.197
316.243
316.29
316.336
316.382
316.43
316.478
316.527
316.575
316.624
316.671
316.718
316.764
316.808
316.851
316.892
316.93
316.966
317
317.031
317.058
317.083
317.104
317.121
317.135
317.145
317.151
317.152
317.15
317.143
317.132
317.117
317.098
317.075
317.048
317.017
316.983
316.946
316.905
316.862
316.816
316.767
316.716
316.661
316.564
316.395
316.238
316.092
315.956
315.83
315.715
315.612
315.526
315.463
315.436
310.275
310.531
310.761
310.97
311.164
311.343
311.512
311.67
311.82
311.965
312.234
312.522
312.813
313.101
313.383
313.656
313.917
314.166
314.399
314.616
314.816
314.997
315.159
315.303
315.429
315.538
315.632
315.713
315.783
315.845
315.9
315.951
315.999
316.046
316.093
316.141
316.191
316.241
316.292
316.345
316.401
316.459
316.519
316.58
316.642
316.706
316.771
316.837
316.905
316.973
317.043
317.114
317.186
317.259
317.332
317.407
317.482
317.557
317.633
317.708
317.782
317.854
317.925
317.993
318.058
318.118
318.174
318.224
318.268
318.305
318.334
318.354
318.366
318.369
318.362
318.347
318.322
318.289
318.248
318.191
318.082
317.941
317.784
317.62
317.458
317.301
317.152
317.017
316.899
316.808
310.271
310.524
310.75
310.957
311.148
311.325
311.491
311.647
311.795
311.939
312.203
312.487
312.773
313.057
313.335
313.604
313.862
314.107
314.337
314.551
314.747
314.924
315.083
315.222
315.343
315.446
315.534
315.608
315.671
315.725
315.772
315.815
315.854
315.892
315.93
315.969
316.009
316.05
316.091
316.134
316.178
316.224
316.272
316.319
316.367
316.414
316.462
316.51
316.558
316.606
316.654
316.702
316.749
316.797
316.845
316.893
316.941
316.989
317.038
317.088
317.138
317.19
317.242
317.296
317.351
317.408
317.466
317.525
317.585
317.647
317.71
317.774
317.839
317.905
317.971
318.037
318.102
318.167
318.229
318.283
318.3
318.289
318.26
318.22
318.174
318.126
318.076
318.03
317.992
317.97
310.267
310.517
310.74
310.944
311.132
311.307
311.471
311.625
311.771
311.912
312.173
312.452
312.734
313.013
313.287
313.552
313.806
314.047
314.274
314.485
314.678
314.853
315.008
315.145
315.264
315.365
315.451
315.523
315.584
315.636
315.681
315.721
315.758
315.794
315.83
315.867
315.905
315.944
315.983
316.023
316.064
316.108
316.153
316.197
316.241
316.284
316.327
316.37
316.412
316.453
316.494
316.533
316.569
316.603
316.634
316.664
316.693
316.72
316.746
316.77
316.793
316.815
316.835
316.854
316.871
316.887
316.901
316.914
316.925
316.935
316.944
316.952
316.959
316.965
316.971
316.976
316.98
316.983
316.98
316.935
316.84
316.762
316.7
316.653
316.62
316.602
316.6
316.62
316.669
316.726
310.264
310.509
310.73
310.931
311.116
311.289
311.451
311.603
311.746
311.886
312.143
312.417
312.695
312.97
313.24
313.5
313.751
313.988
314.212
314.419
314.61
314.782
314.935
315.07
315.186
315.286
315.37
315.441
315.501
315.552
315.596
315.635
315.672
315.707
315.743
315.779
315.818
315.857
315.896
315.937
315.979
316.023
316.069
316.114
316.159
316.203
316.247
316.291
316.334
316.376
316.417
316.458
316.497
316.535
316.571
316.607
316.642
316.676
316.709
316.74
316.769
316.797
316.824
316.85
316.876
316.9
316.923
316.945
316.966
316.985
317.003
317.019
317.033
317.046
317.057
317.065
317.07
317.072
317.064
317.013
316.914
316.826
316.751
316.685
316.628
316.58
316.544
316.524
316.537
316.603
310.26
310.502
310.72
310.918
311.101
311.271
311.431
311.581
311.723
311.861
312.113
312.383
312.656
312.927
313.193
313.45
313.696
313.93
314.15
314.354
314.542
314.711
314.862
314.994
315.109
315.207
315.289
315.359
315.419
315.47
315.514
315.553
315.59
315.626
315.662
315.7
315.74
315.78
315.821
315.863
315.907
315.954
316.003
316.051
316.097
316.144
316.191
316.238
316.284
316.33
316.374
316.418
316.46
316.502
316.543
316.583
316.623
316.662
316.702
316.741
316.78
316.819
316.859
316.899
316.939
316.98
317.022
317.064
317.107
317.152
317.197
317.243
317.291
317.34
317.391
317.443
317.497
317.553
317.61
317.666
317.697
317.711
317.715
317.716
317.717
317.718
317.722
317.73
317.748
317.782
310.256
310.495
310.71
310.905
311.086
311.254
311.411
311.559
311.699
311.835
312.083
312.349
312.618
312.885
313.146
313.399
313.642
313.872
314.089
314.29
314.474
314.64
314.789
314.919
315.031
315.127
315.209
315.278
315.337
315.389
315.434
315.474
315.513
315.55
315.587
315.627
315.67
315.713
315.756
315.801
315.848
315.898
315.95
316.001
316.051
316.102
316.152
316.202
316.252
316.302
316.35
316.397
316.442
316.488
316.532
316.577
316.621
316.665
316.709
316.754
316.799
316.845
316.891
316.938
316.985
317.034
317.084
317.134
317.185
317.237
317.289
317.342
317.395
317.448
317.5
317.552
317.603
317.652
317.698
317.738
317.745
317.723
317.682
317.627
317.563
317.493
317.422
317.351
317.287
317.235
310.253
310.488
310.7
310.893
311.071
311.236
311.391
311.537
311.675
311.81
312.054
312.315
312.58
312.843
313.1
313.349
313.588
313.815
314.028
314.225
314.406
314.569
314.715
314.842
314.951
315.045
315.125
315.193
315.251
315.302
315.348
315.39
315.429
315.467
315.506
315.547
315.59
315.634
315.679
315.725
315.773
315.824
315.879
315.932
315.984
316.036
316.088
316.14
316.19
316.24
316.287
316.332
316.376
316.418
316.459
316.499
316.538
316.577
316.616
316.654
316.691
316.728
316.765
316.801
316.837
316.873
316.907
316.941
316.973
317.004
317.033
317.059
317.084
317.106
317.124
317.139
317.15
317.156
317.155
317.139
317.079
316.991
316.889
316.779
316.668
316.559
316.455
316.359
316.276
316.213
310.249
310.482
310.69
310.88
311.056
311.219
311.372
311.516
311.652
311.784
312.025
312.282
312.543
312.802
313.055
313.3
313.534
313.756
313.964
314.155
314.329
314.484
314.621
314.739
314.84
314.924
314.996
315.057
315.109
315.155
315.197
315.236
315.272
315.307
315.343
315.381
315.422
315.464
315.507
315.552
315.601
315.654
315.711
315.767
315.823
315.88
315.936
315.992
316.045
316.095
316.141
316.183
316.221
316.256
316.288
316.318
316.345
316.37
316.392
316.413
316.431
316.448
316.463
316.477
316.489
316.5
316.509
316.517
316.522
316.526
316.528
316.527
316.524
316.518
316.51
316.498
316.483
316.457
316.414
316.316
316.166
316.027
315.899
315.78
315.669
315.566
315.472
315.39
315.331
315.307
310.246
310.475
310.68
310.868
311.041
311.202
311.353
311.495
311.629
311.76
311.998
312.254
312.512
312.766
313.01
313.242
313.458
313.656
313.834
313.992
314.129
314.246
314.345
314.428
314.497
314.555
314.605
314.649
314.689
314.727
314.763
314.799
314.834
314.868
314.904
314.942
314.983
315.027
315.072
315.122
315.177
315.238
315.305
315.375
315.446
315.519
315.593
315.666
315.737
315.802
315.861
315.913
315.958
315.995
316.025
316.047
316.057
316.057
316.051
316.041
316.028
316.013
315.997
315.981
315.964
315.946
315.928
315.91
315.89
315.87
315.849
315.826
315.802
315.777
315.75
315.721
315.69
315.655
315.61
315.52
315.385
315.268
315.163
315.069
314.984
314.906
314.836
314.775
314.732
314.715
310.242
310.468
310.671
310.856
311.027
311.185
311.334
311.474
311.606
311.731
311.851
311.967
312.079
312.188
312.294
312.397
312.497
312.594
312.689
312.78
312.869
312.955
313.039
313.119
313.197
313.273
313.346
313.417
313.486
313.554
313.62
313.685
313.748
313.81
313.87
313.929
313.989
314.047
314.104
314.161
314.218
314.275
314.332
314.389
314.445
314.5
314.552
314.602
314.647
314.689
314.726
314.759
314.788
314.813
314.833
314.85
314.863
314.873
314.879
314.883
314.884
314.883
314.88
314.874
314.867
314.859
314.849
314.838
314.826
314.812
314.798
314.782
314.766
314.749
314.731
314.712
314.693
314.672
314.65
314.626
314.598
314.567
314.536
314.505
314.474
314.445
314.418
314.395
314.382
314.385
310.239
310.462
310.662
310.844
311.012
311.169
311.316
311.453
311.584
311.707
311.825
311.937
312.045
312.149
312.249
312.346
312.44
312.53
312.618
312.703
312.786
312.867
312.946
313.022
313.096
313.169
313.24
313.309
313.377
313.444
313.511
313.576
313.64
313.703
313.765
313.826
313.887
313.947
314.005
314.062
314.119
314.175
314.23
314.284
314.335
314.385
314.433
314.478
314.52
314.559
314.594
314.626
314.655
314.681
314.703
314.723
314.741
314.755
314.768
314.777
314.785
314.791
314.795
314.797
314.797
314.796
314.793
314.789
314.784
314.778
314.77
314.762
314.752
314.742
314.73
314.718
314.704
314.69
314.675
314.658
314.64
314.623
314.606
314.59
314.575
314.561
314.55
314.542
314.545
314.564
310.236
310.455
310.652
310.832
310.998
311.152
311.297
311.433
311.561
311.683
311.799
311.91
312.016
312.118
312.216
312.311
312.403
312.492
312.578
312.662
312.744
312.824
312.902
312.978
313.053
313.126
313.197
313.268
313.337
313.405
313.473
313.54
313.606
313.67
313.734
313.797
313.86
313.922
313.982
314.042
314.101
314.16
314.22
314.279
314.337
314.396
314.454
314.512
314.569
314.624
314.677
314.729
314.779
314.825
314.869
314.91
314.948
314.983
315.016
315.047
315.076
315.102
315.127
315.15
315.171
315.191
315.209
315.226
315.241
315.255
315.267
315.278
315.288
315.297
315.304
315.311
315.316
315.32
315.324
315.326
315.328
315.33
315.331
315.331
315.332
315.333
315.336
315.343
315.358
315.377
310.232
310.449
310.643
310.82
310.984
311.136
311.279
311.413
311.539
311.659
311.773
311.883
311.987
312.088
312.185
312.278
312.369
312.456
312.542
312.624
312.705
312.784
312.861
312.936
313.01
313.083
313.154
313.223
313.292
313.36
313.427
313.494
313.56
313.625
313.688
313.752
313.814
313.875
313.935
313.993
314.05
314.106
314.161
314.215
314.269
314.323
314.377
314.431
314.484
314.536
314.586
314.635
314.682
314.728
314.772
314.813
314.853
314.89
314.924
314.956
314.985
315.012
315.037
315.059
315.078
315.096
315.112
315.125
315.137
315.148
315.157
315.166
315.174
315.181
315.188
315.194
315.201
315.207
315.214
315.221
315.229
315.237
315.246
315.256
315.267
315.278
315.292
315.306
315.325
315.35
310.229
310.442
310.634
310.808
310.97
311.12
311.26
311.392
311.517
311.635
311.748
311.856
311.959
312.058
312.153
312.245
312.334
312.421
312.505
312.586
312.666
312.744
312.82
312.894
312.967
313.039
313.109
313.179
313.247
313.314
313.381
313.447
313.513
313.578
313.642
313.705
313.767
313.827
313.883
313.933
313.976
314.013
314.048
314.081
314.112
314.144
314.176
314.208
314.239
314.27
314.299
314.325
314.348
314.369
314.386
314.401
314.413
314.421
314.428
314.432
314.435
314.436
314.437
314.437
314.437
314.437
314.438
314.439
314.442
314.445
314.449
314.454
314.461
314.469
314.478
314.488
314.5
314.513
314.527
314.541
314.557
314.575
314.593
314.613
314.634
314.656
314.68
314.706
314.735
314.771
310.226
310.436
310.624
310.797
310.956
311.104
311.242
311.372
311.495
311.612
311.723
311.829
311.931
312.028
312.122
312.213
312.301
312.386
312.469
312.55
312.628
312.705
312.78
312.854
312.926
312.997
313.067
313.135
313.203
313.27
313.337
313.403
313.469
313.533
313.597
313.66
313.722
313.778
313.817
313.832
313.823
313.801
313.773
313.744
313.716
313.691
313.669
313.65
313.632
313.616
313.604
313.593
313.583
313.575
313.569
313.566
313.564
313.565
313.567
313.571
313.577
313.584
313.593
313.603
313.614
313.627
313.64
313.655
313.67
313.686
313.704
313.722
313.741
313.761
313.781
313.803
313.825
313.847
313.87
313.894
313.918
313.943
313.968
313.994
314.021
314.048
314.076
314.106
314.138
314.176
310.222
310.43
310.616
310.785
310.942
311.088
311.224
311.353
311.474
311.589
311.698
311.803
311.903
312
312.092
312.182
312.269
312.353
312.435
312.514
312.592
312.668
312.742
312.815
312.886
312.956
313.025
313.094
313.161
313.229
313.295
313.361
313.427
313.492
313.557
313.62
313.681
313.714
313.671
313.566
313.427
313.29
313.175
313.081
313.007
312.952
312.912
312.885
312.867
312.857
312.854
312.857
312.865
312.877
312.892
312.909
312.928
312.948
312.969
312.991
313.013
313.035
313.058
313.081
313.104
313.127
313.151
313.174
313.198
313.223
313.247
313.272
313.297
313.322
313.348
313.374
313.4
313.426
313.452
313.478
313.505
313.532
313.559
313.587
313.615
313.643
313.672
313.702
313.734
313.771
310.219
310.424
310.607
310.774
310.929
311.073
311.208
311.334
311.454
311.567
311.675
311.779
311.878
311.973
312.064
312.153
312.238
312.322
312.402
312.481
312.558
312.633
312.707
312.779
312.849
312.919
312.988
313.056
313.123
313.19
313.257
313.324
313.39
313.457
313.522
313.586
313.643
313.605
313.373
313.063
312.794
312.609
312.483
312.409
312.37
312.356
312.36
312.374
312.394
312.419
312.446
312.474
312.503
312.532
312.561
312.59
312.618
312.645
312.672
312.698
312.724
312.75
312.775
312.799
312.824
312.848
312.872
312.896
312.921
312.945
312.97
312.995
313.02
313.045
313.07
313.095
313.121
313.146
313.172
313.198
313.223
313.249
313.276
313.302
313.329
313.357
313.386
313.417
313.45
313.487
310.217
310.418
310.599
310.765
310.917
311.06
311.193
311.318
311.436
311.548
311.655
311.757
311.855
311.949
312.039
312.127
312.211
312.294
312.374
312.452
312.528
312.603
312.676
312.747
312.818
312.887
312.955
313.023
313.091
313.158
313.225
313.293
313.36
313.428
313.495
313.561
313.591
313.423
312.844
312.401
312.129
311.99
311.949
311.951
311.978
312.02
312.067
312.116
312.164
312.209
312.25
312.289
312.324
312.356
312.387
312.416
312.443
312.468
312.492
312.516
312.539
312.562
312.585
312.609
312.632
312.656
312.68
312.703
312.728
312.752
312.776
312.801
312.825
312.85
312.874
312.899
312.924
312.949
312.973
312.998
313.023
313.048
313.073
313.098
313.123
313.15
313.177
313.206
313.241
313.28
310.214
310.414
310.593
310.757
310.908
311.048
311.18
311.304
311.421
311.532
311.638
311.739
311.836
311.929
312.018
312.105
312.189
312.271
312.351
312.428
312.504
312.578
312.651
312.722
312.793
312.862
312.931
312.999
313.067
313.134
313.202
313.271
313.339
313.408
313.477
313.544
313.575
313.398
312.722
312.205
311.869
311.681
311.681
311.712
311.759
311.816
311.876
311.936
311.993
312.045
312.092
312.136
312.176
312.21
312.242
312.27
312.297
312.323
312.348
312.373
312.398
312.422
312.446
312.471
312.495
312.52
312.544
312.569
312.593
312.618
312.643
312.667
312.692
312.717
312.741
312.766
312.79
312.814
312.839
312.863
312.887
312.911
312.935
312.959
312.983
313.008
313.034
313.062
313.095
313.137
310.213
310.411
310.588
310.751
310.901
311.04
311.171
311.294
311.41
311.52
311.625
311.726
311.822
311.914
312.004
312.09
312.174
312.255
312.334
312.411
312.487
312.561
312.634
312.706
312.776
312.846
312.915
312.984
313.052
313.121
313.19
313.259
313.329
313.398
313.466
313.53
313.566
313.399
312.679
312.111
311.726
311.492
311.523
311.576
311.639
311.706
311.772
311.836
311.897
311.953
312.004
312.051
312.092
312.128
312.162
312.193
312.222
312.25
312.277
312.304
312.33
312.355
312.38
312.405
312.43
312.455
312.48
312.505
312.529
312.554
312.579
312.603
312.628
312.652
312.677
312.701
312.725
312.749
312.773
312.797
312.821
312.844
312.868
312.891
312.915
312.939
312.964
312.992
313.024
313.065
310.212
310.409
310.585
310.747
310.896
311.035
311.165
311.287
311.403
311.513
311.618
311.718
311.814
311.906
311.995
312.081
312.165
312.246
312.325
312.402
312.478
312.552
312.626
312.698
312.769
312.839
312.909
312.978
313.048
313.117
313.187
313.256
313.324
313.389
313.448
313.498
313.536
313.401
312.715
312.151
311.757
311.508
311.549
311.61
311.677
311.744
311.808
311.867
311.923
311.974
312.021
312.064
312.103
312.139
312.173
312.204
312.234
312.263
312.291
312.318
312.344
312.37
312.395
312.42
312.445
312.469
312.494
312.518
312.543
312.568
312.592
312.617
312.642
312.667
312.691
312.716
312.74
312.765
312.789
312.812
312.836
312.859
312.883
312.906
312.929
312.953
312.978
313.006
313.039
313.081
310.211
310.408
310.584
310.745
310.894
311.033
311.162
311.285
311.4
311.51
311.614
311.714
311.81
311.903
311.992
312.078
312.162
312.243
312.323
312.4
312.476
312.551
312.625
312.697
312.769
312.84
312.911
312.981
313.051
313.12
313.188
313.254
313.313
313.36
313.388
313.396
313.42
313.441
313.208
312.907
312.581
312.302
312.26
312.236
312.219
312.211
312.209
312.212
312.22
312.231
312.245
312.261
312.279
312.299
312.32
312.341
312.364
312.386
312.408
312.431
312.454
312.476
312.499
312.523
312.546
312.57
312.594
312.619
312.644
312.67
312.697
312.724
312.751
312.778
312.806
312.834
312.862
312.889
312.916
312.943
312.969
312.995
313.021
313.046
313.072
313.098
313.125
313.154
313.189
313.228
310.211
310.408
310.584
310.745
310.894
311.032
311.162
311.284
311.4
311.509
311.614
311.714
311.81
311.902
311.992
312.078
312.162
312.244
312.324
312.402
312.478
312.554
312.628
312.701
312.774
312.846
312.917
312.987
313.055
313.12
313.18
313.229
313.261
313.263
313.228
313.169
313.171
313.199
313.046
312.905
312.766
312.635
312.702
312.76
312.799
312.818
312.816
312.796
312.764
312.726
312.688
312.655
312.628
312.608
312.596
312.591
312.592
312.597
312.606
312.619
312.635
312.654
312.675
312.699
312.725
312.752
312.782
312.811
312.842
312.874
312.906
312.939
312.972
313.007
313.041
313.076
313.111
313.146
313.181
313.216
313.25
313.283
313.316
313.348
313.38
313.411
313.443
313.476
313.511
313.552
310.211
310.408
310.584
310.746
310.895
311.033
311.163
311.285
311.401
311.51
311.615
311.715
311.811
311.903
311.993
312.079
312.163
312.245
312.325
312.404
312.481
312.557
312.632
312.706
312.779
312.851
312.921
312.987
313.047
313.096
313.13
313.142
313.121
313.055
312.949
312.852
312.876
312.925
312.753
312.602
312.474
312.372
312.511
312.64
312.746
312.833
312.901
312.946
312.967
312.968
312.953
312.93
312.904
312.879
312.858
312.844
312.836
312.835
312.838
312.846
312.859
312.877
312.9
312.927
312.959
312.994
313.033
313.076
313.123
313.172
313.224
313.279
313.335
313.393
313.454
313.518
313.583
313.648
313.712
313.774
313.833
313.89
313.944
313.996
314.045
314.092
314.139
314.185
314.235
314.291
310.211
310.408
310.585
310.746
310.896
311.034
311.164
311.287
311.402
311.512
311.617
311.717
311.813
311.905
311.995
312.081
312.165
312.247
312.328
312.406
312.483
312.56
312.635
312.709
312.783
312.854
312.918
312.968
312.996
313.001
312.981
312.933
312.853
312.739
312.613
312.572
312.681
312.816
312.607
312.419
312.278
312.195
312.545
312.858
313.094
313.239
313.312
313.336
313.33
313.304
313.268
313.228
313.189
313.153
313.124
313.103
313.092
313.091
313.099
313.116
313.143
313.178
313.221
313.273
313.334
313.403
313.476
313.55
313.624
313.695
313.761
313.821
313.874
313.919
313.954
313.98
313.999
314.014
314.027
314.039
314.051
314.064
314.079
314.096
314.116
314.138
314.164
314.193
314.227
314.268
310.212
310.409
310.585
310.747
310.896
311.035
311.165
311.288
311.403
311.513
311.618
311.718
311.814
311.907
311.997
312.083
312.168
312.25
312.33
312.409
312.486
312.563
312.638
312.713
312.786
312.85
312.876
312.861
312.809
312.735
312.656
312.572
312.487
312.405
312.353
312.442
313.991
313.715
313.511
313.4
313.335
313.333
313.347
313.358
313.357
313.356
313.36
313.372
313.389
313.409
313.432
313.457
313.481
313.502
313.517
313.523
313.515
313.5
313.481
313.463
313.447
313.434
313.423
313.415
313.41
313.407
313.406
313.407
313.411
313.416
313.423
313.432
313.443
313.457
313.472
313.489
313.508
313.53
313.554
313.581
313.612
313.651
310.212
310.409
310.586
310.747
310.896
311.035
311.165
311.288
311.404
311.514
311.619
311.719
311.815
311.908
311.997
312.084
312.169
312.251
312.331
312.41
312.488
312.565
312.641
312.715
312.786
312.806
312.722
312.57
312.413
312.297
312.209
312.157
312.137
312.149
312.222
312.454
313.621
313.298
313.117
313.022
312.975
312.959
312.958
312.969
312.989
312.996
312.983
312.945
312.934
312.927
312.92
312.915
312.912
312.911
312.91
312.91
312.91
312.912
312.914
312.918
312.923
312.93
312.938
312.947
312.956
312.967
312.979
312.991
313.005
313.019
313.035
313.051
313.068
313.086
313.105
313.125
313.147
313.17
313.194
313.221
313.252
313.288
310.212
310.409
310.585
310.747
310.896
311.035
311.165
311.288
311.403
311.513
311.618
311.718
311.815
311.907
311.997
312.084
312.168
312.251
312.331
312.41
312.488
312.565
312.641
312.715
312.765
312.671
312.315
312.016
311.834
311.757
311.762
311.803
311.875
311.977
312.149
312.521
313.436
313.051
312.845
312.717
312.632
312.573
312.533
312.509
312.496
312.488
312.484
312.485
312.492
312.501
312.507
312.517
312.527
312.538
312.551
312.564
312.577
312.591
312.605
312.619
312.633
312.648
312.663
312.679
312.695
312.711
312.727
312.744
312.761
312.779
312.797
312.816
312.835
312.855
312.875
312.897
312.919
312.943
312.968
312.996
313.027
313.062
310.212
310.408
310.585
310.747
310.896
311.035
311.165
311.287
311.403
311.513
311.617
311.717
311.814
311.906
311.996
312.083
312.167
312.25
312.33
312.409
312.487
312.564
312.64
312.714
312.76
312.652
312.187
311.801
311.546
311.412
311.467
311.551
311.662
311.81
312.044
312.523
313.333
312.923
312.701
312.546
312.438
312.358
312.301
312.265
312.244
312.236
312.237
312.245
312.257
312.271
312.284
312.299
312.315
312.332
312.349
312.366
312.384
312.402
312.42
312.438
312.456
312.474
312.493
312.511
312.529
312.548
312.566
312.585
312.604
312.623
312.642
312.661
312.68
312.7
312.72
312.741
312.762
312.784
312.808
312.833
312.864
312.901
310.211
310.408
310.585
310.746
310.895
311.034
311.164
311.286
311.402
311.512
311.616
311.717
311.813
311.905
311.995
312.082
312.166
312.248
312.329
312.408
312.486
312.563
312.639
312.712
312.758
312.647
312.103
311.649
311.33
311.136
311.226
311.335
311.466
311.631
311.883
312.397
313.327
312.877
312.644
312.511
312.4
312.306
312.235
312.19
312.164
312.154
312.154
312.161
312.173
312.188
312.204
312.222
312.241
312.261
312.28
312.3
312.319
312.337
312.356
312.374
312.392
312.41
312.428
312.446
312.464
312.482
312.5
312.518
312.536
312.554
312.572
312.59
312.608
312.627
312.646
312.665
312.684
312.704
312.726
312.749
312.776
312.808
310.211
310.408
310.585
310.746
310.895
311.034
311.164
311.286
311.402
311.511
311.616
311.716
311.812
311.905
311.994
312.081
312.165
312.247
312.328
312.407
312.485
312.561
312.637
312.711
312.759
312.657
312.108
311.643
311.311
311.097
311.197
311.312
311.439
311.589
311.81
312.254
313.431
312.99
312.734
312.614
312.482
312.368