/*--------------------------------*- C++ -*----------------------------------*\
| =========                 |                                                 |
| \\      /  F ield         | OpenFOAM: The Open Source CFD Toolbox           |
|  \\    /   O peration     | Version:  v2012                                 |
|   \\  /    A nd           | Website:  www.openfoam.com                      |
|    \\/     M anipulation  |                                                 |
\*---------------------------------------------------------------------------*/
FoamFile
{
    version     2.0;
    format      ascii;
    class       volScalarField;
    location    "500/soil2";
    object      T;
}
// * * * * * * * * * * * * * * * * * * * * * * * * * * * * * * * * * * * * * //

dimensions      [0 0 0 1 0 0 0];


internalField   nonuniform List<scalar> 
10496
(
328.374
329.044
329.661
330.193
330.652
331.05
331.399
331.708
331.983
332.23
332.452
332.655
332.839
333.009
333.165
333.31
333.444
333.569
333.686
333.797
333.9
333.998
334.091
334.18
334.264
334.344
334.421
334.494
334.565
334.633
334.699
334.762
334.824
334.883
334.941
334.997
335.051
335.105
335.157
335.208
335.257
335.306
335.354
335.401
335.447
335.492
335.537
335.581
335.624
335.666
335.709
335.75
335.791
335.831
335.871
335.911
335.95
335.988
336.026
336.064
336.101
336.138
336.174
336.209
336.244
336.279
336.313
336.346
336.38
336.413
336.445
336.477
336.509
336.541
336.573
336.604
336.636
336.667
336.699
336.73
336.762
336.794
336.827
336.861
336.897
336.937
336.982
337.046
337.184
337.589
328.118
328.77
329.371
329.888
330.332
330.718
331.055
331.353
331.617
331.854
332.067
332.26
332.436
332.597
332.745
332.882
333.009
333.127
333.237
333.34
333.437
333.529
333.616
333.698
333.775
333.85
333.921
333.988
334.053
334.116
334.176
334.234
334.29
334.344
334.396
334.446
334.496
334.544
334.592
334.637
334.682
334.725
334.767
334.81
334.851
334.892
334.932
334.971
335.009
335.047
335.085
335.122
335.158
335.194
335.23
335.265
335.299
335.334
335.367
335.401
335.434
335.466
335.498
335.53
335.561
335.591
335.621
335.651
335.681
335.71
335.739
335.767
335.796
335.824
335.852
335.879
335.907
335.935
335.963
335.991
336.019
336.048
336.077
336.107
336.14
336.176
336.218
336.281
336.431
336.881
327.85
328.493
329.084
329.593
330.03
330.409
330.741
331.033
331.293
331.526
331.735
331.924
332.097
332.254
332.399
332.533
332.656
332.772
332.879
332.98
333.074
333.163
333.247
333.327
333.402
333.474
333.543
333.608
333.671
333.731
333.789
333.845
333.898
333.95
334
334.048
334.095
334.142
334.187
334.231
334.273
334.314
334.354
334.395
334.434
334.472
334.51
334.547
334.584
334.62
334.655
334.69
334.724
334.758
334.792
334.825
334.857
334.89
334.921
334.953
334.984
335.014
335.044
335.074
335.103
335.132
335.16
335.188
335.215
335.242
335.269
335.296
335.322
335.348
335.374
335.4
335.426
335.452
335.478
335.504
335.53
335.557
335.584
335.613
335.645
335.679
335.72
335.783
335.939
336.39
327.582
328.216
328.8
329.302
329.734
330.108
330.435
330.724
330.98
331.209
331.416
331.602
331.772
331.928
332.07
332.202
332.324
332.437
332.543
332.642
332.735
332.822
332.905
332.983
333.058
333.128
333.196
333.26
333.321
333.38
333.437
333.491
333.544
333.595
333.643
333.69
333.736
333.781
333.826
333.868
333.909
333.948
333.987
334.027
334.066
334.103
334.139
334.175
334.211
334.245
334.28
334.314
334.347
334.38
334.412
334.444
334.476
334.507
334.538
334.568
334.598
334.628
334.657
334.686
334.714
334.742
334.769
334.796
334.823
334.849
334.875
334.901
334.927
334.952
334.977
335.002
335.028
335.053
335.078
335.104
335.13
335.156
335.183
335.212
335.244
335.28
335.321
335.385
335.541
335.99
327.317
327.943
328.519
329.015
329.441
329.81
330.133
330.418
330.671
330.898
331.101
331.286
331.453
331.607
331.748
331.878
331.998
332.11
332.214
332.312
332.403
332.49
332.571
332.648
332.721
332.791
332.857
332.921
332.981
333.039
333.095
333.148
333.2
333.249
333.297
333.343
333.387
333.432
333.475
333.516
333.556
333.595
333.633
333.671
333.709
333.745
333.78
333.815
333.849
333.883
333.916
333.949
333.981
334.013
334.045
334.076
334.106
334.136
334.166
334.195
334.224
334.253
334.281
334.308
334.335
334.362
334.388
334.414
334.44
334.465
334.49
334.515
334.54
334.564
334.588
334.612
334.636
334.66
334.685
334.709
334.735
334.76
334.787
334.815
334.846
334.88
334.921
334.983
335.135
335.573
327.056
327.673
328.242
328.732
329.152
329.517
329.836
330.117
330.367
330.591
330.792
330.973
331.139
331.29
331.43
331.558
331.677
331.787
331.89
331.987
332.077
332.162
332.243
332.319
332.391
332.46
332.525
332.588
332.647
332.705
332.759
332.812
332.862
332.911
332.958
333.003
333.046
333.089
333.131
333.171
333.21
333.247
333.284
333.321
333.357
333.391
333.425
333.459
333.492
333.524
333.555
333.586
333.617
333.647
333.677
333.706
333.735
333.763
333.791
333.818
333.845
333.871
333.897
333.923
333.948
333.972
333.996
334.02
334.043
334.066
334.088
334.11
334.132
334.153
334.174
334.195
334.216
334.236
334.257
334.278
334.299
334.321
334.343
334.367
334.393
334.422
334.457
334.511
334.646
335.052
326.798
327.407
327.969
328.452
328.868
329.228
329.543
329.821
330.068
330.288
330.485
330.664
330.827
330.977
331.114
331.241
331.359
331.468
331.57
331.666
331.755
331.84
331.919
331.995
332.066
332.134
332.198
332.26
332.319
332.375
332.429
332.48
332.529
332.577
332.622
332.666
332.708
332.749
332.788
332.826
332.863
332.899
332.934
332.968
333.001
333.033
333.064
333.094
333.123
333.152
333.18
333.208
333.235
333.261
333.287
333.312
333.337
333.361
333.384
333.408
333.43
333.452
333.473
333.494
333.514
333.534
333.553
333.571
333.589
333.606
333.622
333.638
333.654
333.669
333.683
333.697
333.71
333.723
333.736
333.749
333.762
333.775
333.789
333.804
333.821
333.842
333.868
333.91
334.018
334.362
326.544
327.145
327.699
328.177
328.587
328.943
329.254
329.528
329.771
329.986
330.176
330.348
330.507
330.654
330.791
330.917
331.034
331.144
331.246
331.342
331.432
331.516
331.596
331.671
331.742
331.81
331.873
331.934
331.992
332.047
332.099
332.149
332.196
332.242
332.285
332.327
332.367
332.402
332.436
332.47
332.504
332.537
332.568
332.595
332.622
332.649
332.675
332.7
332.725
332.748
332.77
332.792
332.813
332.833
332.852
332.871
332.889
332.906
332.922
332.937
332.952
332.966
332.979
332.991
333.002
333.013
333.023
333.032
333.04
333.048
333.055
333.061
333.067
333.072
333.077
333.081
333.084
333.088
333.091
333.095
333.101
333.107
333.113
333.121
333.132
333.148
333.169
333.202
333.282
333.54
326.294
326.886
327.434
327.905
328.31
328.662
328.969
329.239
329.475
329.676
329.833
329.983
330.131
330.273
330.41
330.539
330.661
330.776
330.884
330.986
331.082
331.172
331.256
331.336
331.41
331.478
331.543
331.603
331.66
331.713
331.763
331.809
331.853
331.894
331.934
331.973
332.009
332.037
332.064
332.093
332.121
332.151
332.178
332.197
332.216
332.238
332.258
332.277
332.294
332.311
332.326
332.341
332.355
332.369
332.382
332.394
332.405
332.415
332.424
332.433
332.441
332.448
332.455
332.461
332.466
332.47
332.474
332.477
332.48
332.482
332.483
332.485
332.485
332.486
332.485
332.485
332.485
332.484
332.485
332.489
332.503
332.517
332.529
332.541
332.555
332.575
332.6
332.635
332.704
332.907
326.047
326.63
327.171
327.636
328.037
328.384
328.687
328.952
329.175
329.324
329.214
329.222
329.308
329.436
329.586
329.744
329.905
330.062
330.214
330.357
330.491
330.615
330.73
330.835
330.93
331.016
331.094
331.164
331.228
331.288
331.343
331.394
331.441
331.484
331.525
331.567
331.605
331.631
331.655
331.684
331.714
331.747
331.778
331.795
331.812
331.835
331.855
331.873
331.89
331.906
331.92
331.934
331.947
331.958
331.969
331.978
331.985
331.992
331.997
332.001
332.004
332.006
332.006
332.006
332.004
332.002
331.998
331.994
331.988
331.982
331.975
331.967
331.959
331.95
331.941
331.931
331.921
331.911
331.905
331.914
332
332.079
332.138
332.18
332.214
332.247
332.285
332.334
332.415
332.618
325.803
326.379
326.913
327.372
327.767
328.11
328.409
328.667
328.864
328.81
326.018
325.463
325.562
325.874
326.251
326.632
326.995
327.33
327.632
327.9
328.135
328.339
328.512
328.657
328.777
328.874
328.952
329.014
329.065
329.106
329.141
329.172
329.199
329.224
329.249
329.279
329.305
329.318
329.33
329.353
329.377
329.409
329.44
329.454
329.47
329.495
329.518
329.54
329.56
329.579
329.597
329.613
329.627
329.638
329.647
329.654
329.657
329.658
329.657
329.652
329.644
329.634
329.62
329.603
329.584
329.561
329.535
329.507
329.476
329.442
329.405
329.367
329.326
329.283
329.239
329.193
329.145
329.096
329.05
329.062
330.038
330.783
331.299
331.648
331.884
332.048
332.174
332.29
332.436
332.715
325.563
326.13
326.657
327.111
327.501
327.84
328.135
328.387
328.573
328.476
325.538
324.93
325.02
325.342
325.735
326.135
326.517
326.87
327.189
327.473
327.721
327.936
328.118
328.269
328.393
328.492
328.57
328.63
328.675
328.71
328.739
328.763
328.785
328.807
328.832
328.867
328.902
328.919
328.938
328.972
329.013
329.066
329.12
329.153
329.189
329.24
329.29
329.342
329.394
329.447
329.501
329.556
329.611
329.666
329.719
329.772
329.824
329.874
329.923
329.97
330.015
330.057
330.095
330.13
330.161
330.186
330.207
330.223
330.232
330.235
330.232
330.222
330.206
330.183
330.154
330.119
330.078
330.033
329.989
330.01
330.803
331.411
331.833
332.119
332.312
332.447
332.556
332.675
332.865
333.237
325.326
325.885
326.406
326.853
327.239
327.573
327.864
328.113
328.293
328.189
325.272
324.66
324.745
325.063
325.452
325.85
326.23
326.581
326.899
327.182
327.43
327.643
327.823
327.972
328.092
328.187
328.26
328.314
328.353
328.38
328.399
328.415
328.428
328.44
328.459
328.489
328.519
328.525
328.532
328.559
328.591
328.639
328.69
328.71
328.734
328.777
328.818
328.862
328.906
328.951
328.998
329.044
329.091
329.136
329.182
329.227
329.273
329.318
329.364
329.41
329.456
329.502
329.549
329.596
329.643
329.691
329.739
329.787
329.835
329.883
329.931
329.978
330.025
330.071
330.116
330.159
330.2
330.239
330.282
330.386
331.148
331.714
332.1
332.363
332.548
332.688
332.812
332.963
333.214
333.704
325.093
325.644
326.157
326.599
326.98
327.31
327.598
327.843
328.021
327.915
325.034
324.428
324.511
324.824
325.208
325.601
325.977
326.325
326.64
326.92
327.165
327.375
327.553
327.7
327.818
327.912
327.983
328.036
328.073
328.097
328.112
328.123
328.132
328.142
328.158
328.188
328.218
328.219
328.218
328.241
328.27
328.318
328.371
328.385
328.401
328.44
328.478
328.517
328.558
328.599
328.64
328.679
328.715
328.749
328.782
328.813
328.843
328.872
328.9
328.926
328.951
328.974
328.997
329.017
329.037
329.055
329.072
329.088
329.102
329.116
329.128
329.139
329.15
329.16
329.169
329.177
329.185
329.192
329.201
329.254
330.016
330.568
330.939
331.194
331.383
331.536
331.682
331.858
332.112
332.551
324.863
325.405
325.913
326.349
326.725
327.051
327.335
327.577
327.752
327.648
324.805
324.207
324.288
324.597
324.976
325.364
325.736
326.079
326.39
326.666
326.908
327.116
327.292
327.436
327.553
327.645
327.717
327.77
327.807
327.83
327.843
327.851
327.857
327.864
327.879
327.911
327.944
327.941
327.935
327.957
327.986
328.036
328.094
328.106
328.118
328.158
328.198
328.24
328.284
328.328
328.37
328.409
328.447
328.484
328.52
328.556
328.591
328.625
328.657
328.687
328.715
328.742
328.767
328.792
328.815
328.837
328.858
328.878
328.896
328.913
328.929
328.942
328.954
328.964
328.972
328.978
328.981
328.981
328.981
329.022
329.752
330.273
330.614
330.839
330.995
331.115
331.229
331.373
331.601
332.023
324.636
325.17
325.671
326.102
326.473
326.795
327.075
327.315
327.487
327.385
324.581
323.991
324.071
324.376
324.75
325.133
325.499
325.838
326.145
326.418
326.657
326.862
327.035
327.177
327.292
327.383
327.454
327.509
327.548
327.572
327.584
327.59
327.592
327.597
327.611
327.646
327.682
327.678
327.667
327.69
327.72
327.773
327.837
327.848
327.859
327.903
327.948
327.997
328.048
328.096
328.14
328.181
328.221
328.262
328.303
328.344
328.385
328.424
328.463
328.501
328.538
328.575
328.611
328.647
328.683
328.72
328.756
328.792
328.828
328.865
328.902
328.94
328.978
329.017
329.056
329.096
329.136
329.178
329.226
329.336
330.069
330.599
330.95
331.184
331.351
331.484
331.614
331.777
332.041
332.555
324.412
324.938
325.433
325.858
326.224
326.542
326.819
327.055
327.226
327.126
324.36
323.779
323.859
324.16
324.529
324.907
325.269
325.603
325.906
326.175
326.411
326.613
326.783
326.922
327.033
327.122
327.193
327.249
327.291
327.319
327.332
327.336
327.335
327.336
327.349
327.385
327.425
327.42
327.406
327.428
327.459
327.515
327.586
327.599
327.61
327.659
327.712
327.77
327.827
327.879
327.925
327.967
328.009
328.053
328.099
328.145
328.19
328.234
328.278
328.321
328.364
328.407
328.449
328.492
328.535
328.579
328.623
328.667
328.711
328.756
328.801
328.846
328.891
328.936
328.98
329.024
329.066
329.108
329.154
329.26
329.979
330.502
330.849
331.076
331.232
331.349
331.456
331.591
331.827
332.299
324.192
324.71
325.198
325.617
325.979
326.293
326.566
326.8
326.97
326.873
324.148
323.578
323.658
323.955
324.319
324.692
325.048
325.377
325.674
325.938
326.169
326.366
326.531
326.665
326.772
326.856
326.923
326.978
327.021
327.052
327.067
327.069
327.064
327.059
327.066
327.099
327.139
327.131
327.112
327.132
327.161
327.217
327.292
327.306
327.318
327.374
327.436
327.502
327.564
327.616
327.659
327.697
327.737
327.779
327.823
327.866
327.907
327.946
327.983
328.019
328.054
328.088
328.122
328.154
328.185
328.216
328.245
328.273
328.3
328.325
328.348
328.37
328.388
328.404
328.417
328.426
328.432
328.434
328.437
328.493
329.207
329.727
330.069
330.292
330.442
330.551
330.644
330.753
330.938
331.31
323.975
324.485
324.967
325.381
325.737
326.047
326.317
326.549
326.719
326.632
323.962
323.41
323.493
323.787
324.145
324.509
324.856
325.175
325.46
325.711
325.928
326.109
326.258
326.376
326.466
326.534
326.586
326.629
326.665
326.691
326.702
326.699
326.684
326.667
326.661
326.682
326.715
326.699
326.672
326.685
326.711
326.765
326.845
326.865
326.885
326.954
327.032
327.111
327.18
327.234
327.275
327.312
327.35
327.389
327.427
327.46
327.489
327.513
327.533
327.549
327.563
327.575
327.584
327.592
327.598
327.602
327.605
327.606
327.605
327.601
327.596
327.588
327.578
327.566
327.551
327.532
327.511
327.485
327.453
327.457
328.199
328.755
329.137
329.397
329.58
329.714
329.822
329.929
330.083
330.39
323.761
324.263
324.739
325.147
325.5
325.805
326.073
326.303
326.48
326.433
323.963
323.475
323.567
323.846
324.178
324.51
324.818
325.092
325.329
325.528
325.691
325.82
325.919
325.992
326.043
326.078
326.103
326.125
326.148
326.169
326.18
326.177
326.159
326.136
326.121
326.135
326.163
326.145
326.113
326.123
326.145
326.198
326.28
326.307
326.339
326.426
326.524
326.621
326.704
326.769
326.821
326.869
326.918
326.964
327.004
327.034
327.052
327.058
327.056
327.048
327.035
327.021
327.004
326.986
326.968
326.948
326.929
326.908
326.887
326.865
326.842
326.818
326.793
326.766
326.739
326.71
326.679
326.645
326.61
326.619
327.451
328.081
328.519
328.82
329.03
329.178
329.29
329.386
329.507
329.755
323.55
324.045
324.514
324.917
325.265
325.567
325.831
326.062
326.257
326.389
326.331
326.385
326.5
326.635
326.773
326.907
327.034
327.152
327.262
327.362
327.453
327.537
327.612
327.68
327.739
327.793
327.844
327.899
327.961
328.026
328.084
328.126
328.147
328.153
328.163
328.203
328.262
328.262
328.238
328.256
328.277
328.321
328.391
328.385
328.375
328.428
328.486
328.534
328.56
328.567
328.569
328.578
328.598
328.624
328.65
328.672
328.69
328.705
328.717
328.727
328.736
328.742
328.747
328.751
328.754
328.756
328.757
328.757
328.756
328.755
328.753
328.751
328.748
328.744
328.74
328.735
328.73
328.725
328.723
328.733
328.809
328.879
328.933
328.974
329.006
329.034
329.061
329.094
329.161
329.363
323.342
323.828
324.292
324.69
325.033
325.331
325.592
325.822
326.023
326.196
326.333
326.466
326.598
326.725
326.844
326.956
327.06
327.157
327.248
327.332
327.411
327.485
327.555
327.619
327.678
327.731
327.782
327.836
327.898
327.968
328.037
328.093
328.126
328.139
328.15
328.189
328.248
328.251
328.228
328.247
328.266
328.303
328.371
328.364
328.353
328.406
328.459
328.494
328.505
328.5
328.496
328.505
328.526
328.553
328.579
328.602
328.622
328.641
328.657
328.673
328.687
328.699
328.71
328.72
328.729
328.737
328.744
328.749
328.754
328.758
328.761
328.763
328.765
328.766
328.766
328.766
328.766
328.765
328.765
328.768
328.778
328.79
328.802
328.812
328.824
328.836
328.852
328.876
328.94
329.154
323.135
323.613
324.071
324.463
324.802
325.096
325.354
325.581
325.784
325.963
326.122
326.268
326.402
326.527
326.642
326.75
326.85
326.943
327.03
327.111
327.188
327.26
327.329
327.393
327.453
327.508
327.559
327.61
327.668
327.737
327.809
327.873
327.917
327.938
327.949
327.983
328.04
328.042
328.017
328.033
328.047
328.078
328.145
328.141
328.133
328.188
328.238
328.266
328.271
328.266
328.27
328.29
328.321
328.355
328.387
328.415
328.442
328.466
328.49
328.511
328.532
328.55
328.567
328.583
328.597
328.61
328.622
328.633
328.642
328.651
328.658
328.665
328.671
328.676
328.68
328.684
328.687
328.69
328.694
328.697
328.703
328.71
328.718
328.727
328.738
328.752
328.768
328.795
328.872
329.132
322.929
323.399
323.85
324.238
324.572
324.862
325.116
325.342
325.542
325.721
325.883
326.03
326.164
326.287
326.402
326.507
326.605
326.697
326.783
326.863
326.939
327.01
327.078
327.144
327.205
327.263
327.315
327.365
327.419
327.483
327.553
327.621
327.673
327.7
327.713
327.743
327.795
327.794
327.771
327.779
327.783
327.799
327.852
327.846
327.836
327.885
327.925
327.941
327.938
327.933
327.942
327.966
327.997
328.029
328.058
328.084
328.11
328.134
328.156
328.177
328.196
328.213
328.228
328.242
328.254
328.264
328.273
328.282
328.289
328.295
328.3
328.305
328.31
328.314
328.318
328.323
328.327
328.332
328.338
328.344
328.352
328.362
328.373
328.388
328.405
328.425
328.448
328.484
328.574
328.849
322.723
323.186
323.631
324.013
324.343
324.629
324.88
325.103
325.301
325.478
325.639
325.784
325.917
326.04
326.153
326.257
326.355
326.446
326.531
326.61
326.685
326.756
326.824
326.889
326.952
327.013
327.07
327.123
327.177
327.236
327.303
327.371
327.426
327.458
327.472
327.499
327.546
327.54
327.492
327.481
327.456
327.439
327.478
327.451
327.423
327.452
327.47
327.467
327.45
327.438
327.441
327.454
327.47
327.484
327.495
327.506
327.516
327.526
327.534
327.541
327.547
327.551
327.556
327.56
327.564
327.569
327.574
327.579
327.586
327.593
327.601
327.61
327.62
327.631
327.643
327.655
327.669
327.683
327.698
327.715
327.733
327.752
327.775
327.799
327.827
327.857
327.891
327.939
328.041
328.3
322.521
322.975
323.414
323.791
324.116
324.399
324.647
324.866
325.062
325.237
325.396
325.54
325.672
325.793
325.905
326.009
326.105
326.196
326.28
326.36
326.435
326.505
326.572
326.636
326.701
326.765
326.828
326.888
326.946
327.005
327.069
327.135
327.191
327.225
327.239
327.262
327.304
327.293
327.29
327.218
327.102
326.985
326.862
326.767
326.683
326.664
326.639
326.599
326.554
326.52
326.501
326.489
326.48
326.473
326.471
326.476
326.486
326.499
326.515
326.533
326.552
326.574
326.596
326.62
326.645
326.671
326.698
326.725
326.752
326.78
326.808
326.837
326.865
326.894
326.922
326.95
326.979
327.008
327.036
327.066
327.096
327.127
327.159
327.194
327.23
327.269
327.311
327.369
327.473
327.706
322.323
322.77
323.204
323.575
323.896
324.175
324.42
324.636
324.83
325.003
325.16
325.303
325.433
325.553
325.664
325.767
325.863
325.952
326.037
326.116
326.191
326.261
326.327
326.391
326.455
326.52
326.588
326.656
326.722
326.786
326.852
326.918
326.977
327.013
327.026
327.044
327.08
327.028
326.621
326.314
325.942
325.62
325.621
325.445
325.309
325.267
325.239
325.212
325.195
325.194
325.208
325.231
325.261
325.3
325.347
325.402
325.461
325.52
325.579
325.636
325.692
325.747
325.8
325.853
325.904
325.954
326.003
326.05
326.096
326.142
326.186
326.228
326.27
326.311
326.351
326.39
326.427
326.465
326.501
326.538
326.575
326.612
326.651
326.691
326.732
326.775
326.824
326.887
326.989
327.199
322.137
322.576
323.005
323.372
323.688
323.964
324.205
324.419
324.61
324.782
324.937
325.078
325.207
325.326
325.436
325.538
325.634
325.723
325.807
325.887
325.962
326.032
326.099
326.162
326.224
326.288
326.357
326.429
326.503
326.576
326.647
326.717
326.782
326.826
326.844
326.859
326.887
326.796
326.919
326.072
325.269
324.717
323.85
323.713
323.69
323.778
323.878
323.977
324.077
324.179
324.279
324.375
324.47
324.566
324.665
324.762
324.855
324.942
325.023
325.099
325.172
325.241
325.307
325.37
325.43
325.488
325.544
325.598
325.65
325.7
325.749
325.796
325.842
325.886
325.929
325.971
326.012
326.052
326.092
326.131
326.17
326.209
326.25
326.291
326.333
326.378
326.43
326.496
326.597
326.793
321.971
322.403
322.826
323.189
323.502
323.774
324.013
324.225
324.413
324.583
324.736
324.876
325.004
325.122
325.232
325.333
325.428
325.518
325.602
325.681
325.757
325.828
325.896
325.959
326.02
326.081
326.146
326.218
326.294
326.373
326.45
326.526
326.601
326.662
326.698
326.717
326.716
326.322
323.871
322.447
321.651
321.401
322.217
322.443
322.643
322.912
323.157
323.376
323.572
323.746
323.896
324.028
324.15
324.266
324.377
324.48
324.575
324.66
324.738
324.811
324.881
324.948
325.012
325.074
325.134
325.192
325.248
325.302
325.354
325.405
325.454
325.501
325.546
325.59
325.633
325.675
325.715
325.755
325.794
325.832
325.871
325.91
325.95
325.99
326.032
326.078
326.131
326.197
326.296
326.483
321.832
322.258
322.678
323.037
323.347
323.617
323.853
324.063
324.25
324.418
324.57
324.709
324.836
324.953
325.062
325.163
325.258
325.347
325.431
325.511
325.588
325.661
325.73
325.794
325.855
325.915
325.976
326.041
326.115
326.193
326.273
326.353
326.437
326.517
326.579
326.609
326.57
325.752
318.559
317.12
316.554
316.71
321.453
322.019
322.277
322.571
322.833
323.076
323.298
323.494
323.665
323.817
323.957
324.085
324.201
324.306
324.399
324.485
324.564
324.639
324.709
324.777
324.841
324.903
324.963
325.02
325.075
325.127
325.177
325.226
325.273
325.318
325.362
325.404
325.445
325.485
325.524
325.563
325.6
325.638
325.676
325.714
325.753
325.793
325.836
325.883
325.937
326.005
326.102
326.284
321.728
322.151
322.567
322.924
323.232
323.5
323.735
323.944
324.13
324.298
324.449
324.587
324.714
324.831
324.939
325.039
325.134
325.223
325.307
325.388
325.465
325.538
325.609
325.676
325.738
325.798
325.857
325.918
325.987
326.062
326.142
326.225
326.312
326.407
326.493
326.53
326.462
325.31
314.19
312.819
312.481
312.982
321.056
321.894
322.162
322.433
322.666
322.891
323.103
323.296
323.472
323.634
323.786
323.926
324.055
324.171
324.277
324.375
324.466
324.55
324.628
324.701
324.769
324.833
324.894
324.951
325.004
325.056
325.104
325.151
325.196
325.24
325.282
325.323
325.363
325.402
325.44
325.478
325.516
325.554
325.592
325.631
325.671
325.713
325.758
325.809
325.868
325.941
326.043
326.225
321.663
322.082
322.497
322.853
323.159
323.427
323.662
323.87
324.057
324.225
324.377
324.516
324.643
324.761
324.869
324.97
325.065
325.154
325.238
325.319
325.396
325.47
325.542
325.61
325.674
325.735
325.795
325.855
325.922
325.997
326.077
326.159
326.238
326.335
326.426
326.447
326.355
325.076
312.361
311.033
310.823
311.525
321.166
322.125
322.353
322.554
322.712
322.877
323.042
323.202
323.358
323.513
323.665
323.814
323.955
324.086
324.208
324.324
324.44
324.54
324.629
324.71
324.784
324.853
324.916
324.974
325.029
325.081
325.13
325.178
325.223
325.267
325.31
325.351
325.391
325.431
325.47
325.51
325.549
325.589
325.631
325.673
325.718
325.765
325.816
325.874
325.941
326.024
326.14
326.331
321.632
322.05
322.464
322.819
323.125
323.392
323.627
323.836
324.023
324.192
324.346
324.486
324.615
324.735
324.846
324.949
325.045
325.136
325.222
325.304
325.382
325.458
325.531
325.601
325.666
325.728
325.787
325.847
325.913
325.988
326.066
326.135
324.521
324.632
324.725
324.809
324.886
324.957
325.023
325.085
325.143
325.199
325.252
325.303
325.352
325.399
325.445
325.489
325.533
325.575
325.618
325.662
325.707
325.753
325.8
325.849
325.902
325.96
326.024
326.095
326.174
326.27
326.402
326.616
321.628
322.046
322.459
322.813
323.119
323.385
323.62
323.828
324.015
324.184
324.338
324.479
324.61
324.731
324.845
324.951
325.05
325.145
325.234
325.32
325.402
325.482
325.559
325.634
325.704
325.768
325.831
325.887
325.946
326.009
326.068
326.112
324.76
324.851
324.929
325.003
325.075
325.146
325.214
325.281
325.347
325.41
325.471
325.53
325.587
325.642
325.696
325.747
325.797
325.846
325.894
325.945
325.998
326.053
326.11
326.167
326.226
326.289
326.358
326.439
326.538
326.666
326.845
327.124
321.638
322.056
322.47
322.824
323.129
323.395
323.629
323.836
324.022
324.19
324.343
324.483
324.613
324.734
324.847
324.954
325.056
325.152
325.245
325.334
325.421
325.507
325.591
325.673
325.751
325.822
325.868
325.915
325.953
325.984
326.014
325.993
324.996
325.072
325.14
325.212
325.288
325.366
325.445
325.524
325.603
325.681
325.758
325.832
325.903
325.97
326.036
326.1
326.165
326.229
326.291
326.352
326.412
326.475
326.542
326.616
326.696
326.781
326.871
326.972
327.088
327.237
327.448
327.806
321.651
322.07
322.484
322.838
323.144
323.41
323.644
323.851
324.037
324.204
324.355
324.494
324.623
324.742
324.854
324.96
325.061
325.158
325.251
325.341
325.431
325.519
325.607
325.695
325.779
325.856
325.966
325.986
325.966
325.915
325.779
325.649
325.205
325.307
325.406
325.51
325.616
325.724
325.832
325.937
326.038
326.135
326.228
326.316
326.402
326.484
326.564
326.639
326.712
326.784
326.857
326.932
327.008
327.082
327.152
327.222
327.294
327.369
327.444
327.517
327.587
327.666
327.78
328.013
321.66
322.079
322.494
322.849
323.155
323.422
323.656
323.864
324.05
324.217
324.369
324.509
324.637
324.756
324.868
324.974
325.074
325.171
325.264
325.355
325.446
325.536
325.627
325.717
325.801
325.852
325.615
325.499
325.317
325.118
325.131
324.923
325.762
325.88
325.968
326.047
326.124
326.198
326.27
326.341
326.412
326.48
326.546
326.61
326.671
326.729
326.784
326.835
326.883
326.928
326.968
327.004
327.035
327.062
327.084
327.103
327.119
327.133
327.146
327.16
327.182
327.218
327.289
327.463
321.662
322.082
322.496
322.851
323.158
323.425
323.659
323.867
324.054
324.222
324.375
324.515
324.644
324.764
324.876
324.983
325.084
325.182
325.277
325.37
325.463
325.556
325.651
325.744
325.823
325.863
326.34
325.898
325.384
324.968
324.068
323.909
325.883
325.947
325.991
326.03
326.068
326.107
326.145
326.185
326.225
326.265
326.305
326.343
326.38
326.414
326.446
326.476
326.503
326.528
326.55
326.569
326.585
326.599
326.612
326.624
326.635
326.646
326.659
326.677
326.703
326.742
326.81
326.969
321.659
322.078
322.493
322.847
323.154
323.42
323.655
323.863
324.049
324.217
324.37
324.51
324.639
324.76
324.873
324.98
325.082
325.18
325.277
325.371
325.467
325.563
325.66
325.751
325.793
325.55
323.699
322.638
322.026
321.886
322.767
323.024
325.65
325.695
325.723
325.749
325.774
325.8
325.827
325.856
325.886
325.917
325.947
325.977
326.005
326.033
326.059
326.083
326.105
326.126
326.145
326.163
326.179
326.195
326.21
326.225
326.24
326.256
326.275
326.3
326.332
326.375
326.444
326.599
321.653
322.072
322.486
322.84
323.146
323.413
323.647
323.855
324.041
324.209
324.362
324.502
324.631
324.751
324.864
324.972
325.074
325.173
325.27
325.366
325.462
325.559
325.655
325.734
325.709
325.02
318.26
317.03
316.587
316.869
322.03
322.696
325.389
325.429
325.453
325.473
325.492
325.513
325.534
325.557
325.58
325.605
325.63
325.654
325.679
325.702
325.726
325.748
325.77
325.791
325.811
325.831
325.85
325.869
325.889
325.908
325.929
325.952
325.978
326.009
326.047
326.093
326.164
326.316
321.647
322.066
322.48
322.834
323.14
323.406
323.64
323.848
324.034
324.201
324.354
324.494
324.623
324.743
324.856
324.963
325.065
325.164
325.261
325.357
325.453
325.549
325.642
325.708
325.619
324.538
313.576
312.272
312.014
312.665
321.517
322.514
325.282
325.317
325.335
325.348
325.36
325.372
325.384
325.397
325.412
325.428
325.444
325.462
325.48
325.498
325.517
325.536
325.555
325.574
325.594
325.614
325.635
325.656
325.678
325.701
325.725
325.752
325.783
325.818
325.859
325.907
325.98
326.133
321.643
322.062
322.476
322.83
323.136
323.402
323.636
323.844
324.03
324.197
324.349
324.489
324.618
324.738
324.85
324.956
325.058
325.156
325.252
325.347
325.441
325.535
325.624
325.678
325.55
324.277
311.459
310.116
309.961
310.825
321.423
322.561
325.332
325.362
325.374
325.379
325.379
325.379
325.379
325.379
325.381
325.384
325.389
325.396
325.404
325.415
325.426
325.439
325.454
325.469
325.486
325.504
325.523
325.544
325.566
325.589
325.615
325.643
325.676
325.712
325.753
325.802
325.878
326.035
321.642
322.06
322.474
322.829
323.135
323.401
323.635
323.843
324.029
324.196
324.349
324.488
324.617
324.736
324.848
324.954
325.054
325.151
325.245
325.337
325.429
325.519
325.602
325.645
325.501
324.217
311.023
309.635
309.529
310.563
322.23
323.256
325.488
325.518
325.524
325.519
325.506
325.49
325.473
325.456
325.442
325.43
325.422
325.417
325.415
325.415
325.419
325.424
325.432
325.443
325.455
325.469
325.485
325.504
325.524
325.546
325.571
325.599
325.632
325.668
325.708
325.758
325.837
325.999
321.643
322.061
322.475
322.83
323.136
323.402
323.637
323.844
324.03
324.198
324.35
324.489
324.618
324.737
324.848
324.953
325.052
325.147
325.24
325.33
325.419
325.505
325.581
325.615
325.462
324.185
310.961
309.565
309.481
310.641
323.164
324.192
325.688
325.716
325.71
325.684
325.643
325.603
325.563
325.526
325.494
325.468
325.448
325.433
325.423
325.416
325.414
325.415
325.419
325.427
325.437
325.449
325.464
325.481
325.501
325.523
325.549
325.577
325.61
325.646
325.687
325.738
325.821
325.991
321.645
322.064
322.478
322.832
323.138
323.405
323.639
323.846
324.032
324.2
324.352
324.491
324.619
324.737
324.848
324.952
325.05
325.144
325.235
325.323
325.409
325.491
325.562
325.59
325.435
324.179
311.027
309.659
309.593
310.806
323.77
324.903
325.846
325.85
325.798
325.721
325.647
325.565
325.492
325.432
325.384
325.349
325.323
325.307
325.297
325.294
325.295