/*--------------------------------*- C++ -*----------------------------------*\
| =========                 |                                                 |
| \\      /  F ield         | OpenFOAM: The Open Source CFD Toolbox           |
|  \\    /   O peration     | Version:  v2012                                 |
|   \\  /    A nd           | Website:  www.openfoam.com                      |
|    \\/     M anipulation  |                                                 |
\*---------------------------------------------------------------------------*/
FoamFile
{
    version     2.0;
    format      ascii;
    class       volScalarField;
    location    "650/soil1";
    object      T;
}
// * * * * * * * * * * * * * * * * * * * * * * * * * * * * * * * * * * * * * //

dimensions      [0 0 0 1 0 0 0];


internalField   nonuniform List<scalar> 
57600
(
303.138
303.185
303.245
303.301
303.352
303.395
303.434
303.468
303.498
303.525
303.549
303.571
303.592
303.61
303.627
303.643
303.657
303.671
303.683
303.695
303.707
303.717
303.727
303.737
303.746
303.754
303.763
303.77
303.778
303.785
303.792
303.799
303.806
303.812
303.818
303.824
303.83
303.836
303.841
303.846
303.852
303.857
303.862
303.867
303.872
303.877
303.881
303.886
303.89
303.895
303.899
303.904
303.908
303.912
303.917
303.921
303.925
303.929
303.933
303.937
303.941
303.944
303.948
303.952
303.956
303.959
303.963
303.966
303.97
303.973
303.977
303.98
303.983
303.987
303.99
303.993
303.997
304
304.003
304.006
304.01
304.013
304.016
304.02
304.024
304.029
304.035
304.044
304.061
304.084
303.119
303.165
303.223
303.279
303.329
303.372
303.409
303.443
303.472
303.499
303.522
303.544
303.564
303.582
303.598
303.613
303.627
303.641
303.653
303.664
303.675
303.685
303.695
303.704
303.713
303.721
303.729
303.737
303.744
303.751
303.757
303.764
303.77
303.776
303.782
303.788
303.793
303.799
303.804
303.809
303.814
303.819
303.823
303.828
303.833
303.837
303.842
303.846
303.85
303.855
303.859
303.863
303.867
303.871
303.875
303.879
303.883
303.886
303.89
303.894
303.897
303.901
303.905
303.908
303.911
303.915
303.918
303.921
303.925
303.928
303.931
303.934
303.937
303.941
303.944
303.947
303.95
303.953
303.956
303.959
303.962
303.965
303.968
303.972
303.976
303.98
303.986
303.996
304.014
304.038
303.091
303.137
303.195
303.249
303.298
303.34
303.377
303.41
303.439
303.465
303.488
303.509
303.529
303.546
303.562
303.577
303.591
303.604
303.616
303.627
303.637
303.647
303.657
303.665
303.674
303.682
303.689
303.697
303.704
303.71
303.717
303.723
303.729
303.735
303.74
303.746
303.751
303.756
303.761
303.766
303.771
303.775
303.78
303.784
303.789
303.793
303.797
303.801
303.805
303.809
303.813
303.817
303.821
303.825
303.828
303.832
303.836
303.839
303.843
303.846
303.85
303.853
303.856
303.86
303.863
303.866
303.869
303.872
303.875
303.878
303.881
303.884
303.887
303.89
303.893
303.896
303.899
303.902
303.904
303.907
303.91
303.913
303.916
303.92
303.923
303.928
303.933
303.943
303.961
303.986
303.062
303.107
303.164
303.218
303.266
303.308
303.344
303.376
303.405
303.43
303.453
303.474
303.493
303.51
303.526
303.541
303.554
303.567
303.579
303.59
303.6
303.61
303.619
303.627
303.636
303.643
303.651
303.658
303.665
303.671
303.678
303.684
303.689
303.695
303.7
303.706
303.711
303.716
303.721
303.725
303.73
303.734
303.738
303.743
303.747
303.751
303.755
303.759
303.763
303.767
303.771
303.774
303.778
303.782
303.785
303.789
303.792
303.796
303.799
303.802
303.805
303.809
303.812
303.815
303.818
303.821
303.824
303.827
303.83
303.833
303.836
303.838
303.841
303.844
303.847
303.849
303.852
303.855
303.857
303.86
303.863
303.866
303.869
303.872
303.875
303.88
303.885
303.895
303.913
303.938
303.033
303.077
303.133
303.187
303.234
303.275
303.311
303.343
303.371
303.396
303.419
303.439
303.458
303.475
303.49
303.505
303.518
303.531
303.542
303.553
303.563
303.573
303.582
303.59
303.598
303.606
303.613
303.62
303.627
303.633
303.64
303.645
303.651
303.657
303.662
303.667
303.672
303.677
303.681
303.686
303.69
303.695
303.699
303.703
303.707
303.711
303.715
303.719
303.722
303.726
303.73
303.733
303.737
303.74
303.744
303.747
303.75
303.753
303.757
303.76
303.763
303.766
303.769
303.772
303.775
303.778
303.78
303.783
303.786
303.789
303.791
303.794
303.796
303.799
303.801
303.804
303.806
303.809
303.811
303.814
303.816
303.819
303.822
303.825
303.828
303.832
303.837
303.847
303.864
303.887
303.004
303.048
303.103
303.156
303.202
303.243
303.279
303.31
303.338
303.362
303.384
303.404
303.423
303.439
303.455
303.469
303.482
303.495
303.506
303.517
303.527
303.536
303.545
303.554
303.562
303.569
303.577
303.583
303.59
303.596
303.602
303.608
303.614
303.619
303.624
303.629
303.634
303.639
303.643
303.647
303.652
303.656
303.66
303.664
303.668
303.671
303.675
303.679
303.682
303.686
303.689
303.692
303.696
303.699
303.702
303.705
303.708
303.711
303.714
303.717
303.719
303.722
303.725
303.728
303.73
303.733
303.735
303.738
303.74
303.742
303.744
303.747
303.749
303.751
303.753
303.755
303.757
303.759
303.761
303.763
303.765
303.768
303.77
303.772
303.775
303.779
303.783
303.792
303.807
303.828
302.975
303.018
303.073
303.125
303.171
303.211
303.246
303.277
303.304
303.328
303.349
303.369
303.386
303.403
303.418
303.432
303.445
303.458
303.469
303.48
303.49
303.5
303.509
303.517
303.525
303.533
303.54
303.546
303.553
303.559
303.565
303.571
303.576
303.581
303.586
303.591
303.596
303.6
303.604
303.608
303.612
303.616
303.62
303.624
303.627
303.63
303.634
303.637
303.64
303.643
303.646
303.649
303.652
303.655
303.658
303.66
303.663
303.665
303.668
303.67
303.672
303.675
303.677
303.679
303.681
303.683
303.685
303.687
303.688
303.69
303.692
303.693
303.695
303.696
303.698
303.699
303.7
303.702
303.703
303.704
303.706
303.708
303.71
303.712
303.714
303.717
303.72
303.727
303.74
303.758
302.947
302.989
303.043
303.095
303.14
303.18
303.214
303.245
303.271
303.292
303.31
303.327
303.343
303.359
303.375
303.389
303.403
303.416
303.428
303.439
303.45
303.459
303.469
303.477
303.486
303.493
303.5
303.507
303.514
303.52
303.526
303.531
303.536
303.541
303.546
303.55
303.555
303.559
303.562
303.566
303.57
303.573
303.577
303.58
303.583
303.586
303.589
303.591
303.594
303.597
303.599
303.602
303.604
303.606
303.608
303.61
303.612
303.614
303.616
303.618
303.619
303.621
303.622
303.624
303.625
303.626
303.627
303.628
303.629
303.63
303.631
303.632
303.632
303.633
303.633
303.634
303.634
303.635
303.636
303.637
303.639
303.641
303.643
303.646
303.648
303.65
303.654
303.66
303.67
303.685
302.919
302.961
303.014
303.065
303.11
303.149
303.183
303.212
303.235
303.25
303.256
303.264
303.277
303.292
303.308
303.325
303.341
303.356
303.37
303.383
303.395
303.406
303.417
303.427
303.436
303.444
303.451
303.458
303.465
303.471
303.476
303.481
303.486
303.491
303.495
303.5
303.504
303.507
303.51
303.513
303.517
303.52
303.523
303.526
303.528
303.531
303.533
303.536
303.538
303.54
303.542
303.544
303.546
303.548
303.549
303.551
303.552
303.554
303.555
303.556
303.557
303.558
303.559
303.559
303.56
303.56
303.561
303.561
303.561
303.561
303.561
303.561
303.561
303.561
303.561
303.56
303.56
303.56
303.561
303.563
303.569
303.576
303.582
303.587
303.591
303.594
303.599
303.605
303.615
303.627
302.891
302.933
302.985
303.035
303.08
303.118
303.151
303.178
303.195
303.191
303.157
303.141
303.145
303.161
303.182
303.204
303.226
303.247
303.266
303.285
303.301
303.316
303.33
303.342
303.352
303.362
303.37
303.377
303.384
303.39
303.395
303.4
303.405
303.409
303.413
303.417
303.421
303.424
303.427
303.43
303.433
303.436
303.439
303.442
303.444
303.447
303.449
303.452
303.454
303.456
303.458
303.46
303.462
303.464
303.465
303.467
303.468
303.469
303.47
303.471
303.471
303.472
303.472
303.472
303.472
303.472
303.472
303.471
303.471
303.47
303.469
303.468
303.467
303.465
303.464
303.462
303.461
303.46
303.461
303.469
303.49
303.511
303.529
303.541
303.551
303.559
303.566
303.574
303.586
303.599
302.864
302.905
302.957
303.006
303.05
303.088
303.12
303.144
303.151
303.11
302.989
302.927
302.92
302.941
302.972
303.006
303.04
303.072
303.101
303.127
303.15
303.17
303.187
303.202
303.215
303.225
303.234
303.241
303.247
303.252
303.256
303.26
303.263
303.266
303.27
303.273
303.276
303.279
303.281
303.284
303.287
303.291
303.294
303.297
303.299
303.302
303.306
303.309
303.312
303.315
303.318
303.32
303.323
303.325
303.328
303.33
303.332
303.333
303.335
303.336
303.337
303.338
303.338
303.339
303.339
303.338
303.338
303.337
303.336
303.334
303.333
303.331
303.328
303.326
303.323
303.32
303.317
303.315
303.317
303.335
303.387
303.439
303.48
303.509
303.53
303.545
303.558
303.571
303.587
303.605
302.837
302.878
302.929
302.978
303.021
303.058
303.09
303.112
303.112
303.055
302.899
302.817
302.804
302.826
302.862
302.902
302.941
302.977
303.01
303.04
303.066
303.089
303.108
303.124
303.137
303.148
303.157
303.163
303.169
303.173
303.176
303.179
303.182
303.184
303.187
303.19
303.193
303.195
303.197
303.201
303.204
303.209
303.214
303.217
303.22
303.225
303.229
303.234
303.238
303.243
303.247
303.252
303.257
303.261
303.265
303.27
303.274
303.278
303.281
303.285
303.288
303.292
303.295
303.297
303.3
303.302
303.304
303.305
303.306
303.307
303.307
303.307
303.306
303.305
303.304
303.302
303.3
303.299
303.303
303.325
303.382
303.44
303.485
303.517
303.54
303.557
303.572
303.588
303.609
303.632
302.811
302.851
302.901
302.949
302.992
303.029
303.06
303.081
303.079
303.017
302.852
302.765
302.75
302.772
302.809
302.85
302.89
302.928
302.962
302.993
303.02
303.043
303.063
303.079
303.092
303.103
303.111
303.118
303.122
303.126
303.128
303.13
303.132
303.134
303.136
303.139
303.142
303.144
303.145
303.148
303.152
303.156
303.161
303.164
303.167
303.171
303.176
303.181
303.185
303.19
303.195
303.2
303.205
303.209
303.214
303.218
303.223
303.227
303.231
303.236
303.24
303.244
303.247
303.251
303.255
303.258
303.261
303.265
303.268
303.27
303.273
303.275
303.277
303.279
303.281
303.283
303.284
303.287
303.295
303.319
303.375
303.432
303.476
303.508
303.53
303.548
303.564
303.583
303.608
303.635
302.785
302.824
302.874
302.922
302.964
303
303.03
303.051
303.049
302.986
302.821
302.733
302.718
302.74
302.776
302.817
302.857
302.895
302.929
302.96
302.987
303.01
303.029
303.046
303.059
303.069
303.077
303.084
303.088
303.091
303.093
303.094
303.096
303.097
303.099
303.102
303.105
303.106
303.107
303.109
303.113
303.117
303.122
303.125
303.127
303.131
303.136
303.14
303.145
303.15
303.154
303.159
303.163
303.167
303.171
303.175
303.179
303.183
303.187
303.19
303.194
303.197
303.2
303.203
303.206
303.209
303.211
303.214
303.216
303.219
303.221
303.223
303.225
303.226
303.228
303.229
303.231
303.234
303.241
303.264
303.32
303.375
303.417
303.447
303.469
303.487
303.504
303.524
303.551
303.578
302.759
302.798
302.847
302.894
302.936
302.971
303.001
303.022
303.019
302.957
302.794
302.706
302.691
302.713
302.749
302.789
302.829
302.866
302.9
302.931
302.957
302.98
303
303.016
303.029
303.039
303.047
303.053
303.057
303.06
303.062
303.063
303.064
303.065
303.067
303.07
303.073
303.073
303.074
303.076
303.08
303.084
303.089
303.092
303.095
303.098
303.103
303.108
303.113
303.117
303.122
303.127
303.131
303.135
303.139
303.143
303.147
303.151
303.155
303.158
303.162
303.165
303.168
303.171
303.174
303.177
303.18
303.183
303.186
303.188
303.191
303.193
303.195
303.197
303.2
303.202
303.204
303.207
303.215
303.238
303.292
303.345
303.386
303.415
303.435
303.452
303.469
303.488
303.515
303.543
302.734
302.772
302.821
302.867
302.908
302.943
302.973
302.993
302.991
302.929
302.768
302.682
302.667
302.688
302.724
302.764
302.803
302.84
302.873
302.903
302.93
302.952
302.971
302.987
303
303.01
303.018
303.024
303.028
303.031
303.033
303.034
303.034
303.035
303.037
303.04
303.043
303.043
303.044
303.046
303.049
303.054
303.059
303.062
303.065
303.069
303.074
303.079
303.085
303.09
303.095
303.099
303.104
303.108
303.113
303.117
303.121
303.126
303.13
303.134
303.138
303.141
303.145
303.149
303.153
303.156
303.16
303.164
303.167
303.171
303.174
303.178
303.181
303.185
303.188
303.191
303.195
303.2
303.21
303.234
303.289
303.342
303.382
303.41
303.431
303.447
303.463
303.483
303.509
303.538
302.709
302.747
302.795
302.84
302.881
302.916
302.945
302.965
302.963
302.902
302.744
302.659
302.645
302.666
302.701
302.74
302.779
302.815
302.848
302.877
302.903
302.925
302.944
302.959
302.971
302.981
302.989
302.995
302.999
303.002
303.004
303.005
303.005
303.006
303.007
303.01
303.013
303.013
303.013
303.015
303.019
303.024
303.029
303.033
303.035
303.04
303.046
303.052
303.058
303.063
303.068
303.073
303.078
303.082
303.087
303.091
303.096
303.1
303.105
303.109
303.113
303.117
303.121
303.124
303.128
303.132
303.136
303.14
303.143
303.147
303.151
303.154
303.158
303.161
303.164
303.167
303.171
303.175
303.184
303.208
303.262
303.314
303.354
303.381
303.401
303.416
303.43
303.446
303.47
303.496
302.684
302.721
302.769
302.814
302.854
302.888
302.917
302.937
302.936
302.877
302.724
302.642
302.628
302.649
302.684
302.722
302.759
302.794
302.826
302.855
302.879
302.9
302.918
302.932
302.943
302.953
302.96
302.965
302.97
302.973
302.975
302.975
302.975
302.975
302.976
302.978
302.981
302.981
302.981
302.982
302.986
302.991
302.997
303
303.003
303.009
303.015
303.022
303.029
303.035
303.04
303.044
303.048
303.053
303.057
303.062
303.066
303.07
303.073
303.076
303.08
303.083
303.086
303.088
303.091
303.094
303.096
303.099
303.101
303.103
303.105
303.107
303.109
303.11
303.111
303.112
303.113
303.114
303.12
303.142
303.195
303.247
303.287
303.315
303.334
303.348
303.361
303.375
303.395
303.416
302.66
302.697
302.743
302.788
302.827
302.861
302.89
302.911
302.911
302.859
302.716
302.642
302.63
302.651
302.684
302.72
302.755
302.787
302.816
302.842
302.864
302.883
302.899
302.911
302.921
302.928
302.934
302.939
302.943
302.946
302.948
302.948
302.947
302.947
302.947
302.949
302.951
302.95
302.949
302.951
302.954
302.959
302.965
302.969
302.973
302.979
302.987
302.994
303.002
303.007
303.012
303.017
303.021
303.025
303.029
303.033
303.036
303.039
303.041
303.042
303.044
303.045
303.046
303.047
303.048
303.049
303.049
303.05
303.05
303.05
303.05
303.05
303.049
303.048
303.047
303.046
303.045
303.044
303.047
303.066
303.118
303.17
303.211
303.24
303.26
303.275
303.287
303.3
303.316
303.334
302.636
302.672
302.718
302.762
302.801
302.835
302.864
302.885
302.891
302.855
302.747
302.692
302.687
302.706
302.734
302.764
302.793
302.82
302.844
302.864
302.882
302.896
302.908
302.918
302.925
302.931
302.935
302.94
302.944
302.947
302.95
302.951
302.95
302.95
302.95
302.952
302.954
302.954
302.953
302.953
302.956
302.961
302.967
302.971
302.975
302.982
302.99
302.998
303.004
303.01
303.014
303.018
303.022
303.026
303.03
303.033
303.036
303.037
303.038
303.039
303.039
303.039
303.038
303.038
303.037
303.037
303.036
303.035
303.034
303.033
303.032
303.031
303.029
303.028
303.026
303.024
303.022
303.021
303.023
303.038
303.083
303.129
303.165
303.191
303.209
303.222
303.233
303.244
303.257
303.272
302.613
302.648
302.694
302.737
302.775
302.809
302.838
302.861
302.876
302.873
302.844
302.831
302.837
302.852
302.871
302.89
302.908
302.925
302.941
302.954
302.967
302.977
302.987
302.995
303.001
303.007
303.013
303.018
303.024
303.03
303.035
303.038
303.04
303.041
303.043
303.045
303.049
303.049
303.049
303.05
303.053
303.057
303.062
303.064
303.067
303.072
303.078
303.083
303.087
303.09
303.092
303.094
303.097
303.1
303.103
303.106
303.108
303.11
303.111
303.112
303.113
303.113
303.114
303.114
303.114
303.114
303.114
303.114
303.113
303.113
303.113
303.112
303.111
303.111
303.11
303.109
303.108
303.108
303.109
303.116
303.134
303.153
303.168
303.18
303.188
303.195
303.2
303.207
303.217
303.23
302.589
302.624
302.669
302.712
302.75
302.783
302.812
302.837
302.856
302.869
302.874
302.882
302.894
302.908
302.922
302.936
302.95
302.962
302.973
302.984
302.994
303.002
303.01
303.018
303.024
303.03
303.036
303.042
303.049
303.055
303.062
303.067
303.071
303.073
303.075
303.078
303.082
303.083
303.083
303.084
303.086
303.09
303.094
303.096
303.097
303.101
303.106
303.11
303.112
303.113
303.114
303.116
303.118
303.121
303.124
303.127
303.129
303.131
303.133
303.134
303.136
303.137
303.138
303.139
303.14
303.141
303.141
303.142
303.142
303.142
303.143
303.143
303.143
303.143
303.143
303.143
303.142
303.143
303.143
303.146
303.151
303.157
303.163
303.167
303.17
303.173
303.177
303.182
303.191
303.203
302.566
302.601
302.645
302.687
302.724
302.757
302.786
302.811
302.833
302.851
302.866
302.88
302.894
302.908
302.921
302.933
302.945
302.955
302.965
302.975
302.984
302.992
302.999
303.007
303.013
303.019
303.025
303.031
303.038
303.045
303.052
303.058
303.063
303.066
303.068
303.071
303.075
303.076
303.075
303.075
303.077
303.08
303.083
303.085
303.086
303.089
303.093
303.096
303.098
303.098
303.099
303.1
303.103
303.106
303.109
303.112
303.115
303.117
303.119
303.121
303.123
303.125
303.126
303.128
303.129
303.13
303.131
303.132
303.133
303.133
303.134
303.135
303.135
303.135
303.136
303.136
303.137
303.137
303.138
303.139
303.141
303.143
303.145
303.147
303.149
303.152
303.155
303.16
303.17
303.183
302.543
302.577
302.621
302.662
302.699
302.732
302.76
302.785
302.807
302.826
302.844
302.859
302.874
302.888
302.9
302.912
302.923
302.934
302.943
302.952
302.961
302.969
302.976
302.983
302.99
302.996
303.003
303.009
303.015
303.022
303.029
303.036
303.041
303.044
303.047
303.05
303.053
303.053
303.051
303.05
303.05
303.05
303.052
303.052
303.052
303.055
303.058
303.059
303.06
303.06
303.06
303.062
303.064
303.067
303.07
303.072
303.075
303.077
303.079
303.081
303.083
303.085
303.086
303.088
303.089
303.09
303.091
303.092
303.093
303.094
303.094
303.095
303.096
303.097
303.098
303.098
303.099
303.1
303.101
303.102
303.104
303.105
303.107
303.109
303.112
303.114
303.118
303.124
303.134
303.149
302.521
302.554
302.597
302.638
302.674
302.706
302.734
302.759
302.781
302.8
302.818
302.834
302.849
302.862
302.875
302.887
302.897
302.907
302.917
302.926
302.934
302.942
302.949
302.957
302.964
302.97
302.977
302.983
302.989
302.996
303.003
303.01
303.015
303.019
303.022
303.024
303.027
303.025
303.021
303.016
303.01
303.006
303.003
303
302.998
302.998
302.999
302.999
302.998
302.997
302.997
302.998
303
303.002
303.003
303.005
303.007
303.009
303.011
303.013
303.014
303.016
303.017
303.019
303.02
303.021
303.023
303.024
303.026
303.027
303.028
303.03
303.031
303.033
303.035
303.036
303.038
303.04
303.042
303.044
303.046
303.049
303.051
303.054
303.057
303.061
303.065
303.072
303.083
303.097
302.498
302.531
302.573
302.614
302.65
302.681
302.709
302.733
302.755
302.774
302.792
302.808
302.823
302.836
302.848
302.86
302.871
302.881
302.89
302.899
302.907
302.915
302.922
302.929
302.937
302.944
302.95
302.957
302.964
302.971
302.978
302.985
302.99
302.994
302.997
302.999
302.999
302.994
302.983
302.967
302.949
302.934
302.923
302.915
302.909
302.906
302.905
302.904
302.902
302.902
302.902
302.902
302.904
302.905
302.907
302.91
302.913
302.915
302.918
302.921
302.924
302.927
302.93
302.933
302.936
302.939
302.942
302.945
302.948
302.951
302.954
302.957
302.959
302.963
302.966
302.969
302.972
302.975
302.978
302.981
302.985
302.988
302.992
302.995
302.999
303.004
303.009
303.016
303.028
303.041
302.476
302.509
302.55
302.59
302.626
302.657
302.684
302.708
302.73
302.749
302.767
302.782
302.797
302.81
302.822
302.834
302.844
302.854
302.864
302.873
302.881
302.889
302.896
302.903
302.91
302.917
302.925
302.932
302.939
302.947
302.954
302.961
302.967
302.971
302.973
302.974
302.971
302.955
302.921
302.88
302.84
302.811
302.795
302.784
302.777
302.776
302.778
302.779
302.781
302.784
302.788
302.792
302.796
302.801
302.806
302.812
302.818
302.824
302.83
302.835
302.841
302.846
302.851
302.856
302.861
302.866
302.871
302.875
302.88
302.884
302.889
302.893
302.897
302.902
302.906
302.91
302.914
302.918
302.922
302.926
302.931
302.935
302.939
302.944
302.948
302.953
302.959
302.967
302.978
302.991
302.456
302.488
302.529
302.568
302.604
302.634
302.661
302.685
302.706
302.725
302.743
302.758
302.773
302.786
302.798
302.809
302.82
302.83
302.839
302.848
302.856
302.864
302.871
302.879
302.886
302.893
302.9
302.908
302.916
302.924
302.931
302.939
302.945
302.95
302.952
302.951
302.94
302.902
302.829
302.745
302.679
302.642
302.628
302.628
302.633
302.642
302.653
302.664
302.675
302.685
302.695
302.705
302.714
302.723
302.732
302.741
302.75
302.759
302.767
302.774
302.781
302.788
302.795
302.801
302.807
302.813
302.819
302.824
302.83
302.835
302.84
302.845
302.85
302.855
302.86
302.865
302.87
302.874
302.879
302.883
302.888
302.893
302.897
302.902
302.907
302.912
302.919
302.927
302.938
302.95
302.438
302.469
302.51
302.549
302.584
302.614
302.641
302.664
302.685
302.704
302.721
302.737
302.751
302.764
302.776
302.787
302.798
302.808
302.817
302.826
302.834
302.842
302.85
302.857
302.864
302.871
302.878
302.886
302.894
302.902
302.91
302.919
302.926
302.932
302.934
302.928
302.897
302.796
302.586
302.434
302.358
302.36
302.441
302.493
302.522
302.547
302.569
302.589
302.608
302.625
302.64
302.653
302.666
302.678
302.69
302.7
302.71
302.72
302.728
302.737
302.744
302.752
302.759
302.765
302.772
302.778
302.784
302.79
302.796
302.802
302.807
302.813
302.818
302.823
302.828
302.833
302.838
302.843
302.847
302.852
302.857
302.862
302.866
302.871
302.876
302.882
302.888
302.896
302.907
302.918
302.423
302.454
302.494
302.533
302.567
302.597
302.624
302.647
302.668
302.687
302.704
302.719
302.733
302.746
302.758
302.769
302.78
302.79
302.799
302.808
302.816
302.824
302.832
302.839
302.846
302.853
302.86
302.867
302.875
302.884
302.892
302.901
302.909
302.916
302.918
302.907
302.848
302.653
302.237
302.011
301.943
302.022
302.276
302.407
302.463
302.498
302.525
302.548
302.57
302.59
302.608
302.623
302.638
302.652
302.664
302.676
302.687
302.697
302.706
302.715
302.723
302.731
302.738
302.745
302.752
302.758
302.764
302.77
302.776
302.782
302.787
302.793
302.798
302.803
302.808
302.813
302.818
302.823
302.827
302.832
302.837
302.842
302.846
302.851
302.856
302.862
302.868
302.876
302.887
302.898
302.411
302.442
302.482
302.52
302.555
302.585
302.611
302.634
302.655
302.674
302.69
302.706
302.72
302.733
302.745
302.756
302.767
302.777
302.786
302.795
302.803
302.811
302.819
302.826
302.834
302.84
302.847
302.854
302.862
302.87
302.878
302.887
302.895
302.902
302.904
302.887
302.804
302.526
301.93
301.645
301.591
301.746
302.166
302.37
302.447
302.484
302.509
302.531
302.551
302.57
302.588
302.604
302.619
302.634
302.647
302.66
302.672
302.683
302.694
302.704
302.713
302.721
302.729
302.736
302.743
302.749
302.756
302.762
302.768
302.773
302.779
302.784
302.79
302.795
302.8
302.805
302.81
302.814
302.819
302.824
302.829
302.833
302.838
302.843
302.848
302.854
302.86
302.868
302.879
302.89
302.404
302.434
302.474
302.512
302.546
302.576
302.602
302.626
302.647
302.665
302.682
302.698
302.712
302.725
302.737
302.748
302.759
302.769
302.778
302.787
302.796
302.804
302.812
302.819
302.826
302.833
302.84
302.847
302.854
302.862
302.87
302.877
302.882
302.888
302.888
302.865
302.766
302.444
301.754
301.439
301.4
301.611
302.141
302.393
302.478
302.51
302.527
302.54
302.554
302.568
302.582
302.596
302.61
302.624
302.637
302.65
302.663
302.676
302.69
302.702
302.712
302.721
302.729
302.737
302.744
302.751
302.758
302.764
302.77
302.776
302.782
302.788
302.793
302.799
302.804
302.809
302.814
302.819
302.824
302.829
302.834
302.838
302.843
302.848
302.854
302.86
302.866
302.875
302.886
302.897
302.4
302.43
302.47
302.508
302.542
302.572
302.598
302.621
302.642
302.661
302.678
302.693
302.708
302.721
302.733
302.745
302.755
302.765
302.775
302.784
302.793
302.801
302.81
302.817
302.825
302.832
302.838
302.845
302.852
302.859
302.865
302.868
302.865
302.864
302.859
302.829
302.722
302.387
301.677
301.359
301.335
301.591
302.204
302.487
302.571
302.59
302.591
302.59
302.591
302.595
302.6
302.608
302.617
302.627
302.638
302.649
302.661
302.676
302.696
302.711
302.721
302.73
302.739
302.747
302.755
302.762
302.769
302.776
302.783
302.79
302.796
302.802
302.809
302.815
302.821
302.826
302.832
302.837
302.843
302.848
302.853
302.859
302.864
302.869
302.875
302.882
302.889
302.898
302.91
302.922
302.399
302.429
302.469
302.507
302.541
302.571
302.597
302.62
302.641
302.659
302.676
302.692
302.707
302.72
302.732
302.744
302.755
302.765
302.775
302.785
302.794
302.803
302.811
302.819
302.827
302.834
302.84
302.846
302.852
302.857
302.86
302.858
302.846
302.837
302.82
302.778
302.661
302.325
301.624
301.314
301.304
301.589
302.258
302.574
302.672
302.692
302.686
302.675
302.666
302.66
302.656
302.655
302.656
302.66
302.665
302.672
302.681
302.695
302.715
302.729
302.739
302.748
302.757
302.765
302.774
302.782
302.79
302.798
302.806
302.814
302.821
302.829
302.836
302.843
302.85
302.857
302.863
302.87
302.876
302.882
302.888
302.894
302.9
302.906
302.913
302.92
302.928
302.939
302.952
302.965
302.399
302.43
302.469
302.507
302.541
302.571
302.597
302.62
302.641
302.66
302.677
302.692
302.707
302.72
302.732
302.744
302.755
302.766
302.776
302.786
302.795
302.805
302.814
302.822
302.83
302.837
302.842
302.846
302.847
302.848
302.845
302.836
302.814
302.791
302.753
302.678
302.517
302.173
301.501
301.209
301.207
301.499
302.182
302.536
302.694
302.745
302.747
302.736
302.723
302.712
302.704
302.699
302.696
302.696
302.698
302.701
302.708
302.72
302.74
302.754
302.764
302.773
302.782
302.791
302.8
302.81
302.819
302.829
302.838
302.848
302.857
302.866
302.875
302.883
302.891
302.899
302.906
302.914
302.921
302.927
302.934
302.94
302.947
302.954
302.961
302.968
302.977
302.988
303.003
303.018
302.4
302.431
302.47
302.508
302.542
302.572
302.598
302.621
302.642
302.661
302.678
302.693
302.707
302.721
302.733
302.745
302.756
302.767
302.777
302.787
302.797
302.806
302.816
302.825
302.832
302.837
302.839
302.835
302.829
302.821
302.81
302.792
302.76
302.719
302.642
302.467
302.11
301.719
301.157
300.919
300.922
301.174
301.779
302.212
302.6
302.759
302.789
302.777
302.758
302.742
302.731
302.724
302.721
302.72
302.722
302.727
302.734
302.747
302.768
302.783
302.795
302.806
302.816
302.827
302.837
302.847
302.858
302.868
302.878
302.888
302.898
302.908
302.917
302.925
302.933
302.94
302.947
302.953
302.959
302.964
302.969
302.973
302.978
302.983
302.988
302.994
303.001
303.011
303.025
303.04
302.401
302.432
302.471
302.509
302.543
302.573
302.599
302.622
302.643
302.662
302.679
302.694
302.708
302.722
302.734
302.746
302.757
302.768
302.778
302.788
302.798
302.808
302.818
302.826
302.831
302.829
302.814
302.794
302.772
302.753
302.739
302.719
302.685
302.633
302.498
302.099
301.196
300.652
300.301
300.161
300.165
300.318
300.703
301.305
302.299
302.709
302.802
302.799
302.778
302.759
302.746
302.74
302.739
302.741
302.746
302.754
302.764
302.779
302.803
302.82
302.833
302.844
302.855
302.865
302.875
302.883
302.891
302.898
302.905
302.911
302.917
302.922
302.927
302.932
302.936
302.939
302.943
302.946
302.949
302.952
302.955
302.958
302.961
302.965
302.969
302.974
302.98
302.989
303.001
303.014
302.401
302.432
302.472
302.51
302.544
302.573
302.599
302.623
302.643
302.662
302.679
302.695
302.709
302.722
302.735
302.746
302.758
302.768
302.779
302.789
302.799
302.809
302.819
302.825
302.823
302.803
302.76
302.707
302.665
302.641
302.632
302.626
302.607
302.566
302.415
301.906
300.743
300.111
299.837
299.743
299.746
299.851
300.151
300.844
302.118
302.667
302.806
302.816
302.798
302.779
302.766
302.76
302.76
302.764
302.771
302.779
302.79
302.804
302.826
302.84
302.849
302.856
302.862
302.868
302.873
302.878
302.882
302.885
302.889
302.892
302.895
302.898
302.9
302.903
302.905
302.907
302.91
302.912
302.914
302.916
302.919
302.922
302.925
302.928
302.932
302.937
302.943
302.951
302.962
302.973
302.401
302.432
302.471
302.509
302.543
302.573
302.599
302.622
302.643
302.662
302.679
302.694
302.709
302.722
302.734
302.746
302.758
302.768
302.779
302.79
302.8
302.81
302.818
302.819
302.798
302.716
302.542
302.422
302.368
302.386
302.478
302.531
302.545
302.525
302.381
301.84
300.59
299.921
299.663
299.583
299.585
299.674
299.955
300.684
302.046
302.647
302.808
302.824
302.808
302.788
302.774
302.766
302.764
302.766
302.771
302.777
302.785
302.797
302.816
302.826
302.832
302.836
302.84
302.842
302.845
302.847
302.85
302.852
302.854
302.856
302.859
302.861
302.863
302.865
302.867
302.869
302.872
302.874
302.876
302.879
302.882
302.885
302.888
302.892
302.896
302.901
302.907
302.914
302.924
302.934
302.401
302.431
302.471
302.509
302.543
302.572
302.599
302.622
302.642
302.661
302.678
302.694
302.708
302.721
302.734
302.746
302.757
302.768
302.779
302.789
302.799
302.809
302.815
302.809
302.757
302.577
302.189
301.986
301.936
302.036
302.317
302.459
302.507
302.504
302.368
301.822
300.546
299.865
299.609
299.532
299.535
299.62
299.898
300.638
302.025
302.642
302.809
302.827
302.809
302.787
302.77
302.759
302.754
302.754
302.756
302.76
302.766
302.776
302.793
302.802
302.806
302.809
302.811
302.812
302.814
302.816
302.818
302.82
302.821
302.823
302.825
302.828
302.83
302.832
302.834
302.837
302.839
302.842
302.845
302.847
302.85
302.854
302.857
302.861
302.865
302.87
302.876
302.883
302.892
302.902
302.4
302.431
302.47
302.508
302.542
302.572
302.598
302.621
302.642
302.66
302.677
302.693
302.707
302.721
302.733
302.745
302.756
302.767
302.778
302.788
302.798
302.807
302.812
302.797
302.717
302.447
301.862
301.588
301.548
301.728
302.19
302.414
302.488
302.491
302.357
301.811
300.536
299.856
299.602
299.527
299.529
299.613
299.89
300.633
302.028
302.651
302.82
302.837
302.816
302.791
302.771
302.757
302.75
302.747
302.747
302.749
302.753
302.762
302.778
302.786
302.789
302.791
302.792
302.793
302.794
302.796
302.797
302.798
302.8
302.801
302.803
302.805
302.807
302.809
302.811
302.814
302.816
302.819
302.822
302.824
302.828
302.831
302.834
302.838
302.842
302.847
302.853
302.859
302.868
302.877
302.4
302.43
302.47
302.508
302.542
302.571
302.598
302.621
302.641