/*--------------------------------*- C++ -*----------------------------------*\
| =========                 |                                                 |
| \\      /  F ield         | OpenFOAM: The Open Source CFD Toolbox           |
|  \\    /   O peration     | Version:  v2012                                 |
|   \\  /    A nd           | Website:  www.openfoam.com                      |
|    \\/     M anipulation  |                                                 |
\*---------------------------------------------------------------------------*/
FoamFile
{
    version     2.0;
    format      ascii;
    class       volScalarField;
    location    "500/air";
    object      alphat;
}
// * * * * * * * * * * * * * * * * * * * * * * * * * * * * * * * * * * * * * //

dimensions      [1 -1 -1 0 0 0 0];


internalField   nonuniform List<scalar> 
287104
(
0.00647909
0.0060022
0.0056354
0.00534292
0.00510413
0.00490566
0.00473836
0.00459564
0.00447265
0.00436573
0.00427205
0.00418942
0.00411608
0.00405065
0.00399197
0.0039391
0.00389128
0.00384785
0.00380827
0.00377207
0.00373886
0.0037083
0.0036801
0.00365401
0.00362981
0.00360731
0.00358633
0.00356675
0.00354841
0.0035312
0.00351503
0.00349979
0.00348541
0.00347179
0.00345888
0.00344661
0.00343493
0.00342377
0.00341308
0.00340283
0.00339297
0.00338347
0.00337428
0.00336538
0.00335674
0.00334833
0.00334013
0.00333213
0.00332429
0.00331662
0.0033091
0.00330171
0.00329446
0.00328733
0.00328031
0.00327342
0.00326663
0.00325995
0.00325339
0.00324693
0.00324058
0.00323433
0.0032282
0.00322217
0.00321624
0.00321042
0.0032047
0.00319907
0.00319354
0.0031881
0.00318274
0.00317747
0.00317226
0.00316711
0.00316201
0.00315696
0.00315192
0.00314689
0.00314185
0.00313676
0.00313161
0.00312634
0.00312091
0.00311522
0.00310917
0.00310256
0.00309512
0.00308596
0.00307528
0.00305125
0.00647904
0.00600208
0.0056352
0.00534266
0.00510381
0.0049053
0.00473796
0.00459521
0.00447219
0.00436525
0.00427155
0.00418892
0.00411559
0.00405017
0.0039915
0.00393866
0.00389087
0.00384747
0.00380792
0.00377176
0.00373859
0.00370807
0.00367992
0.00365387
0.00362972
0.00360727
0.00358635
0.00356682
0.00354855
0.00353141
0.00351531
0.00350015
0.00348586
0.00347234
0.00345953
0.00344737
0.00343579
0.00342475
0.0034142
0.00340408
0.00339435
0.00338498
0.00337593
0.00336716
0.00335865
0.00335037
0.0033423
0.00333441
0.0033267
0.00331913
0.00331171
0.00330442
0.00329724
0.00329019
0.00328324
0.0032764
0.00326966
0.00326303
0.0032565
0.00325007
0.00324374
0.00323751
0.00323138
0.00322535
0.00321942
0.00321359
0.00320786
0.00320222
0.00319667
0.00319121
0.00318583
0.00318052
0.00317529
0.00317011
0.00316498
0.00315988
0.00315481
0.00314973
0.00314464
0.0031395
0.00313428
0.00312895
0.00312344
0.00311769
0.00311157
0.00310489
0.0030974
0.00308821
0.00307754
0.00305378
0.00647907
0.00600211
0.00563523
0.00534268
0.00510381
0.00490529
0.00473793
0.00459516
0.00447213
0.00436517
0.00427147
0.00418883
0.00411551
0.00405009
0.00399145
0.00393863
0.00389085
0.00384748
0.00380796
0.00377182
0.00373868
0.00370819
0.00368006
0.00365405
0.00362993
0.00360752
0.00358665
0.00356717
0.00354894
0.00353187
0.00351583
0.00350074
0.00348652
0.00347308
0.00346036
0.0034483
0.00343683
0.00342589
0.00341545
0.00340544
0.00339584
0.00338659
0.00337767
0.00336903
0.00336065
0.0033525
0.00334456
0.0033368
0.00332921
0.00332177
0.00331447
0.0033073
0.00330026
0.00329332
0.0032865
0.00327978
0.00327316
0.00326665
0.00326024
0.00325393
0.00324772
0.00324162
0.00323562
0.00322972
0.00322392
0.00321822
0.00321262
0.00320712
0.00320171
0.00319639
0.00319116
0.003186
0.00318091
0.00317589
0.00317091
0.00316597
0.00316104
0.00315612
0.00315118
0.00314619
0.00314111
0.00313592
0.00313055
0.00312493
0.00311895
0.00311242
0.0031051
0.00309613
0.00308572
0.00306263
0.0064791
0.00600213
0.00563523
0.00534265
0.00510373
0.00490516
0.00473776
0.00459494
0.00447186
0.00436486
0.00427113
0.00418847
0.00411514
0.00404972
0.00399108
0.00393827
0.00389051
0.00384715
0.00380764
0.00377151
0.00373838
0.0037079
0.00367979
0.00365379
0.00362969
0.00360729
0.00358644
0.00356699
0.0035488
0.00353177
0.00351578
0.00350075
0.00348659
0.00347323
0.00346059
0.00344862
0.00343724
0.00342641
0.00341608
0.00340619
0.0033967
0.00338758
0.00337877
0.00337026
0.003362
0.00335396
0.00334613
0.00333848
0.00333099
0.00332365
0.00331644
0.00330935
0.00330238
0.00329551
0.00328874
0.00328207
0.0032755
0.00326903
0.00326266
0.00325638
0.00325019
0.00324411
0.00323812
0.00323223
0.00322644
0.00322074
0.00321514
0.00320964
0.00320422
0.00319888
0.00319362
0.00318844
0.00318331
0.00317824
0.00317321
0.0031682
0.0031632
0.00315818
0.00315312
0.00314799
0.00314275
0.00313736
0.00313178
0.00312592
0.00311969
0.0031129
0.00310532
0.0030961
0.00308546
0.00306225
0.00647913
0.00600217
0.00563525
0.00534265
0.00510371
0.0049051
0.00473765
0.00459478
0.00447165
0.00436461
0.00427084
0.00418817
0.00411483
0.00404941
0.00399078
0.00393799
0.00389024
0.0038469
0.00380741
0.0037713
0.00373818
0.00370772
0.00367962
0.00365364
0.00362956
0.00360719
0.00358637
0.00356695
0.0035488
0.00353181
0.00351589
0.00350092
0.00348684
0.00347357
0.00346103
0.00344916
0.00343791
0.00342721
0.00341701
0.00340726
0.00339792
0.00338894
0.00338029
0.00337192
0.00336381
0.00335592
0.00334824
0.00334073
0.00333338
0.00332617
0.00331908
0.00331211
0.00330526
0.0032985
0.00329184
0.00328528
0.00327881
0.00327243
0.00326615
0.00325996
0.00325387
0.00324787
0.00324197
0.00323617
0.00323047
0.00322485
0.00321934
0.00321391
0.00320857
0.00320331
0.00319812
0.00319301
0.00318795
0.00318294
0.00317796
0.003173
0.00316804
0.00316306
0.00315802
0.00315289
0.00314763
0.00314221
0.00313658
0.00313066
0.00312438
0.00311756
0.00310999
0.00310087
0.0030904
0.00306767
0.00647917
0.0060022
0.00563526
0.00534263
0.00510364
0.00490497
0.00473746
0.00459452
0.00447133
0.00436423
0.00427043
0.00418774
0.00411441
0.00404902
0.00399041
0.00393764
0.00388992
0.00384659
0.0038071
0.003771
0.00373789
0.00370743
0.00367933
0.00365336
0.00362928
0.00360693
0.00358613
0.00356675
0.00354864
0.00353172
0.00351586
0.00350099
0.00348701
0.00347385
0.00346145
0.00344974
0.00343865
0.00342813
0.00341813
0.00340859
0.00339947
0.00339072
0.0033823
0.00337417
0.00336631
0.00335867
0.00335123
0.00334397
0.00333686
0.0033299
0.00332306
0.00331634
0.00330972
0.00330321
0.0032968
0.00329048
0.00328426
0.00327814
0.00327212
0.0032662
0.00326038
0.00325467
0.00324906
0.00324356
0.00323817
0.00323288
0.0032277
0.00322263
0.00321766
0.00321279
0.00320801
0.00320331
0.00319869
0.00319415
0.00318965
0.0031852
0.00318077
0.00317634
0.00317188
0.00316735
0.00316272
0.00315796
0.00315302
0.00314788
0.00314246
0.00313664
0.00313025
0.00312258
0.00311382
0.00309402
0.0064792
0.00600223
0.00563528
0.0053426
0.00510356
0.00490483
0.00473723
0.00459419
0.00447088
0.00436366
0.00426976
0.00418703
0.00411368
0.00404829
0.00398971
0.00393696
0.00388926
0.00384596
0.00380649
0.0037704
0.0037373
0.00370685
0.00367877
0.00365281
0.00362876
0.00360644
0.00358569
0.00356637
0.00354835
0.00353152
0.00351579
0.00350107
0.00348727
0.00347432
0.00346216
0.0034507
0.00343991
0.0034297
0.00342004
0.00341086
0.00340212
0.00339377
0.00338577
0.00337804
0.00337057
0.00336334
0.00335631
0.00334947
0.0033428
0.00333627
0.00332987
0.0033236
0.00331744
0.00331138
0.00330543
0.00329958
0.00329383
0.00328819
0.00328266
0.00327724
0.00327193
0.00326675
0.00326168
0.00325674
0.00325192
0.00324724
0.00324269
0.00323827
0.00323399
0.00322984
0.00322582
0.00322193
0.00321817
0.00321453
0.00321099
0.00320756
0.00320421
0.00320092
0.00319767
0.00319441
0.00319109
0.00318769
0.00318419
0.00318059
0.00317684
0.00317287
0.00316861
0.00316364
0.0031584
0.00314417
0.00647923
0.00600226
0.00563528
0.00534256
0.00510346
0.00490465
0.00473694
0.00459379
0.00447034
0.00436301
0.00426907
0.00418636
0.00411308
0.00404777
0.00398923
0.00393652
0.00388882
0.00384549
0.00380598
0.00376982
0.00373663
0.00370608
0.00367791
0.00365187
0.00362775
0.00360539
0.00358463
0.00356532
0.00354737
0.00353065
0.00351507
0.00350055
0.00348697
0.00347428
0.00346241
0.0034513
0.00344087
0.00343106
0.00342182
0.00341308
0.00340478
0.00339687
0.0033893
0.00338202
0.003375
0.0033682
0.00336159
0.00335514
0.00334885
0.00334268
0.00333665
0.00333073
0.00332493
0.00331925
0.00331369
0.00330825
0.00330293
0.00329773
0.00329266
0.00328771
0.0032829
0.00327823
0.00327369
0.00326928
0.00326502
0.00326089
0.0032569
0.00325304
0.00324931
0.00324571
0.00324224
0.00323888
0.00323564
0.0032325
0.00322945
0.00322648
0.00322357
0.00322069
0.0032178
0.00321485
0.00321178
0.00320857
0.00320522
0.00320175
0.00319814
0.00319434
0.00319037
0.00318606
0.0031825
0.00317513
0.00647926
0.00600229
0.00563528
0.00534251
0.00510332
0.00490439
0.00473651
0.00459311
0.0044693
0.00436152
0.0042678
0.00418606
0.00411409
0.00405003
0.00399243
0.0039402
0.00389253
0.0038488
0.00380855
0.00377141
0.0037371
0.00370536
0.003676
0.00364884
0.00362374
0.00360053
0.00357909
0.00355928
0.00354097
0.00352405
0.0035084
0.00349392
0.00348052
0.0034681
0.00345659
0.0034459
0.00343594
0.00342664
0.00341789
0.00340961
0.00340172
0.00339417
0.00338691
0.00337988
0.00337306
0.00336642
0.00335995
0.00335364
0.00334748
0.00334147
0.00333559
0.00332985
0.00332422
0.00331871
0.00331332
0.00330806
0.00330291
0.00329789
0.00329301
0.00328825
0.00328363
0.00327914
0.00327478
0.00327057
0.00326649
0.00326254
0.00325873
0.00325506
0.00325152
0.00324812
0.00324484
0.0032417
0.00323868
0.00323577
0.00323298
0.0032303
0.0032277
0.00322517
0.00322266
0.00322006
0.00321723
0.00321426
0.00321123
0.00320816
0.00320501
0.00320174
0.00319833
0.00319465
0.0031916
0.00318625
0.00647929
0.00600232
0.00563528
0.00534245
0.00510319
0.00490413
0.00473609
0.00459246
0.00446832
0.00436031
0.00432677
0.00430944
0.00428371
0.00424511
0.00419579
0.0041395
0.00407973
0.00401916
0.00395971
0.00390268
0.00384889
0.00379881
0.00375267
0.00371052
0.00367229
0.0036378
0.00360679
0.0035789
0.00355374
0.00353088
0.00350985
0.00349014
0.00347284
0.00345829
0.00344583
0.00343496
0.00342527
0.00341646
0.00340831
0.00340065
0.00339335
0.00338631
0.00337946
0.00337275
0.00336636
0.00336037
0.0033548
0.0033496
0.00334473
0.00334013
0.00333577
0.00333161
0.00332762
0.00332379
0.00332011
0.00331657
0.00331317
0.00330991
0.00330679
0.00330381
0.00330096
0.00329824
0.00329565
0.00329319
0.00329085
0.00328864
0.00328656
0.00328459
0.00328275
0.00328103
0.00327943
0.00327795
0.00327661
0.00327539
0.0032743
0.00327333
0.00327247
0.00327169
0.00327097
0.00327009
0.0032621
0.00325258
0.0032434
0.00323508
0.00322767
0.00322102
0.00321494
0.00320905
0.00320401
0.00319666
0.00647932
0.00600234
0.00563527
0.00534238
0.00510299
0.00490375
0.00473536
0.00459108
0.00446515
0.0043636
0.00769006
0.00841151
0.00839889
0.00814108
0.00781724
0.00749509
0.00719934
0.00693766
0.00671097
0.00651765
0.00635521
0.00622091
0.00611193
0.00602544
0.00595858
0.00590849
0.00587232
0.00584731
0.00583083
0.00582054
0.00581438
0.00581065
0.00580858
0.00580814
0.00580903
0.00581071
0.00581268
0.00581459
0.00581625
0.0058176
0.0058187
0.0058197
0.00582051
0.00582116
0.0058216
0.00582199
0.00582267
0.00582398
0.00582623
0.00582969
0.00583454
0.00584088
0.00584882
0.00585841
0.00586966
0.00588256
0.0058971
0.00591334
0.00593129
0.00595096
0.00597234
0.00599538
0.00602005
0.0060463
0.00607406
0.00610325
0.0061338
0.00616561
0.00619858
0.00623262
0.00626759
0.00630336
0.00633982
0.00637685
0.00641442
0.00645255
0.00649164
0.0065324
0.00657948
0.00662398
0.00530085
0.00451896
0.00403517
0.00372692
0.00352708
0.00339613
0.00330967
0.00325168
0.0032129
0.00318105
0.00647936
0.00600237
0.00563527
0.00534232
0.00510286
0.0049035
0.00473495
0.00459046
0.00446421
0.00436235
0.00769059
0.00841382
0.00839951
0.00813747
0.0078079
0.00747912
0.00717629
0.0069074
0.00667363
0.00647358
0.00630494
0.00616516
0.00605157
0.00596148
0.00589213
0.00584068
0.00580426
0.00578001
0.00576517
0.00575718
0.00575374
0.00575289
0.00575302
0.00575288
0.00575156
0.00574843
0.00574304
0.00573512
0.00572452
0.00571115
0.00569505
0.00567626
0.00565528
0.00563238
0.00560776
0.0055817
0.00555449
0.00552643
0.00549775
0.00546863
0.00543927
0.00540985
0.00538059
0.00535168
0.00532331
0.00529569
0.00526906
0.00524366
0.00521978
0.00519768
0.00517763
0.00515993
0.00514495
0.00513302
0.0051245
0.00511969
0.00511889
0.00512235
0.00513028
0.0051428
0.00515998
0.00518183
0.00520828
0.00523924
0.00527457
0.00531412
0.00535799
0.00540626
0.00546317
0.00551778
0.00460717
0.00404774
0.00368908
0.00345281
0.00329498
0.00318902
0.00311786
0.00306894
0.00303443
0.00299854
0.00647939
0.0060024
0.00563527
0.00534227
0.00510273
0.00490326
0.00473453
0.00458979
0.00446318
0.00436084
0.0076839
0.00840776
0.00839514
0.0081347
0.00780629
0.00747815
0.0071755
0.00690645
0.00667235
0.00647197
0.00630315
0.00616352
0.00605055
0.00596169
0.00589426
0.00584547
0.00581244
0.00579226
0.00578208
0.00577925
0.00578136
0.00578634
0.00579251
0.00579853
0.00580344
0.00580657
0.00580748
0.00580593
0.00580178
0.00579499
0.00578562
0.00577375
0.00575953
0.00574317
0.0057249
0.00570494
0.00568355
0.005661
0.00563752
0.00561335
0.00558868
0.00556368
0.00553848
0.00551316
0.00548777
0.00546229
0.0054367
0.00541096
0.00538496
0.00535866
0.00533206
0.00530512
0.0052778
0.00525005
0.00522184
0.00519316
0.00516404
0.00513452
0.00510467
0.00507462
0.00504449
0.00501447
0.00498477
0.00495569
0.00492756
0.00490085
0.0048763
0.00485454
0.00483966
0.00482136
0.00404737
0.00359033
0.00330729
0.00312403
0.00300039
0.00291365
0.00285039
0.00280066
0.00275953
0.00270687
0.00647942
0.00600243
0.00563528
0.00534224
0.00510265
0.0049031
0.00473428
0.00458943
0.0044627
0.00436023
0.00768204
0.00840622
0.00839404
0.00813382
0.0078054
0.00747706
0.00717409
0.00690466
0.00667018
0.00646945
0.00630039
0.00616061
0.00604766
0.00595899
0.00589195
0.00584377
0.00581157
0.00579243
0.0057835
0.00578209
0.00578578
0.00579248
0.00580049
0.00580847
0.00581545
0.00582073
0.00582385
0.00582453
0.00582259
0.00581796
0.00581064
0.00580069
0.00578827
0.00577359
0.00575694
0.00573865
0.0057191
0.00569867
0.00567772
0.00565658
0.00563556
0.00561491
0.00559563
0.0055778
0.00556125
0.00554581
0.00553134
0.00551774
0.00550495
0.005493
0.00548195
0.00547188
0.00546279
0.00545467
0.00544751
0.00544132
0.00543608
0.00543175
0.00542827
0.00542558
0.00542359
0.00542223
0.00542142
0.00542106
0.00542115
0.0054217
0.00542313
0.00542616
0.0054357
0.00545387
0.00459297
0.00410605
0.0038126
0.00362406
0.00349434
0.00339814
0.00332069
0.00325194
0.00319182
0.00312824
0.00647945
0.00600246
0.00563529
0.00534223
0.00510259
0.00490299
0.00473409
0.00458915
0.00446231
0.00435971
0.00767959
0.00840345
0.00839136
0.00813131
0.00780303
0.00747476
0.00717177
0.00690226
0.00666764
0.00646675
0.00629754
0.00615767
0.0060447
0.00595611
0.00588927
0.00584141
0.00580965
0.00579107
0.0057828
0.00578214
0.00578666
0.00579426
0.00580324
0.00581225
0.00582031
0.0058267
0.00583093
0.00583266
0.00583166
0.00582775
0.00582087
0.00581102
0.00579828
0.0057829
0.00576519
0.00574551
0.00572432
0.00570204
0.0056791
0.00565587
0.00563268
0.00560978
0.00558739
0.00556567
0.00554472
0.00552462
0.00550539
0.00548706
0.00546972
0.00545383
0.00543929
0.00542589
0.00541346
0.00540189
0.00539111
0.00538109
0.0053719
0.00536363
0.00535636
0.00535015
0.00534506
0.0053412
0.00533868
0.00533765
0.00533828
0.00534084
0.0053459
0.00535425
0.00537085
0.00539828
0.00456251
0.00409552
0.00381927
0.00364652
0.00353192
0.00345069
0.00338845
0.00333534
0.00328282
0.00321173
0.00647948
0.00600249
0.00563532
0.00534223
0.00510257
0.00490293
0.004734
0.00458901
0.00446211
0.00435946
0.00767808
0.0084015
0.00838911
0.0081288
0.00780027
0.00747177
0.00716855
0.00689883
0.00666404
0.00646302
0.00629374
0.00615385
0.00604094
0.00595249
0.00588585
0.00583826
0.00580683
0.00578861
0.00578073
0.00578047
0.0057854
0.00579344
0.00580288
0.00581239
0.005821
0.00582799
0.00583282
0.00583512
0.00583455
0.00583084
0.00582377
0.00581323
0.00579927
0.0057821
0.00576208
0.00573966
0.00571538
0.00568978
0.00566335
0.00563653
0.00560968
0.00558309
0.00555695
0.0055314
0.00550652
0.00548234
0.00545885
0.00543602
0.0054138
0.00539214
0.00537096
0.0053502
0.00532978
0.00530961
0.00528962
0.00526972
0.00524984
0.0052299
0.00520983
0.00518957
0.00516904
0.00514819
0.00512697
0.00510535
0.00508334
0.00506098
0.00503861
0.00501645
0.00499744
0.00497212
0.00419352
0.00374843
0.00348186
0.00331297
0.00319809
0.00311295
0.00304382
0.00298135
0.00292175
0.00284243
0.00647951
0.00600253
0.00563535
0.00534226
0.00510258
0.00490293
0.004734
0.00458901
0.00446212
0.00435947
0.00767761
0.00840049
0.00838746
0.00812647
0.00779728
0.00746817
0.00716444
0.00689431
0.00665922
0.00645804
0.00628872
0.00614892
0.00603622
0.00594806
0.00588179
0.00583458
0.00580351
0.0057856
0.00577794
0.00577782
0.00578281
0.00579086
0.00580033
0.00580994
0.00581877
0.00582613
0.0058315
0.00583443
0.00583445
0.0058311
0.00582395
0.00581271
0.00579728
0.00577789
0.00575496
0.00572908
0.00570095
0.00567126
0.00564062
0.00560956
0.00557851
0.00554776
0.00551752
0.00548791
0.00545898
0.0054307
0.00540303
0.00537591
0.00534924
0.00532293
0.00529689
0.00527102
0.00524523
0.00521943
0.00519356
0.00516754
0.00514135
0.00511494
0.00508831
0.00506149
0.00503453
0.00500751
0.00498057
0.00495391
0.00492781
0.00490264
0.00487902
0.0048574
0.00484144
0.00482103
0.00405693
0.00361353
0.00334496
0.00317512
0.00306262
0.0029841
0.00292607
0.00287895
0.00283846
0.00278424
0.00647954
0.00600257
0.00563538
0.00534229
0.00510261
0.00490297
0.00473404
0.00458908
0.00446221
0.00435955
0.00767628
0.00839788
0.00838381
0.00812213
0.00779252
0.00746323
0.00715949
0.00688949
0.00665467
0.00645387
0.00628509
0.00614601
0.00603422
0.00594717
0.00588216
0.00583629
0.00580657
0.00578996
0.0057835
0.0057845
0.0057906
0.00579986
0.00581078
0.00582224
0.00583341
0.00584367
0.00585243
0.00585907
0.00586283
0.00586279
0.00585806
0.00584799
0.00583233
0.00581137
0.00578579
0.00575658
0.00572482
0.00569158
0.00565777
0.00562415
0.00559127
0.0055595
0.00552903
0.00549997
0.00547231
0.00544597
0.00542084
0.00539683
0.00537387
0.00535187
0.00533079
0.00531055
0.00529114
0.00527255
0.00525479
0.00523792
0.00522202
0.0052072
0.00519359
0.00518137
0.00517072
0.00516185
0.00515501
0.00515047
0.00514857
0.00514969
0.0051545
0.00516366
0.00518195
0.00520146
0.00437678
0.00389866
0.00360876
0.00342548
0.00330487
0.00322224
0.00316315
0.00311784
0.00308072
0.00303674
0.00647957
0.00600261
0.00563543
0.00534235
0.0051027
0.0049031
0.00473427
0.00458945
0.00446285
0.00436056
0.00768012
0.00840031
0.00838403
0.00812026
0.00778908
0.007459
0.00715547
0.00688691
0.00665496
0.00645869
0.00629619
0.00616512
0.00606287
0.00598653
0.00593292
0.00589867
0.00588035
0.00587464
0.0058785
0.0058893
0.00590488
0.00592357
0.00594411
0.00596559
0.00598728
0.00600848
0.00602836
0.00604583
0.00605938
0.00606716
0.00606736
0.00605864
0.00604057
0.00601375
0.0059796
0.00594005
0.00589722
0.00585316
0.00580963
0.00576805
0.00572942
0.0056944
0.0056633
0.0056362
0.00561297
0.00559335
0.00557718
0.00556425
0.00555428
0.00554692
0.00554183
0.0055387
0.0055373
0.00553747
0.00553911
0.00554219
0.00554671
0.00555271
0.00556024
0.00556939
0.00558023
0.00559283
0.00560728
0.00562369
0.00564224
0.00566318
0.00568719
0.00571581
0.00575725
0.00581293
0.00485305
0.00428899
0.00393711
0.00370688
0.00355041
0.00344063
0.0033613
0.00330159
0.00325412
0.00320722
0.0064796
0.00600265
0.00563548
0.00534241
0.00510278
0.00490322
0.00473446
0.00458976
0.00446334
0.00436117
0.00767518
0.00839245
0.00837755
0.00811758
0.00779448
0.00747842
0.00719594
0.00695573
0.00675894
0.00660337
0.00648521
0.00639987
0.00634245
0.00630806
0.00629204
0.00629023
0.00629903
0.00631549
0.00633729
0.00636271
0.00639051
0.00641987
0.00645026
0.00648136
0.00651284
0.0065443
0.00657501
0.00660376
0.0066286
0.00664674
0.00665502
0.0066507
0.0066322
0.00659946
0.00655382
0.00649769
0.00643409
0.00636624
0.00629734
0.00623032
0.00616772
0.00611157
0.00606339
0.00602412
0.00599414
0.00597328
0.00596291
0.0059624
0.00596969
0.00598258
0.0059992
0.00601819
0.0060386
0.00605983
0.00608156
0.00610361
0.00612593
0.00614853
0.00617144
0.00619471
0.0062184
0.00624256
0.00626722
0.00629247
0.00631844
0.00634537
0.00637394
0.0064054
0.00644557
0.00649112
0.00525839
0.00453332
0.00408424
0.00379544
0.00360458
0.00347573
0.00338715
0.00332494
0.00328054
0.00324427
0.00647963
0.00600269
0.00563553
0.00534249
0.00510291
0.00490348
0.00473498
0.00459084
0.00446614
0.00435742
0.0042807
0.00421385
0.00414562
0.00408224
0.0040229
0.00396741
0.00391571
0.00386776
0.00382345
0.00378268
0.00374528
0.00371108
0.00367989
0.00365151
0.00362575
0.00360242
0.00358134
0.00356232
0.00354522
0.0035299
0.00351624
0.00350416
0.0034936
0.00348452
0.00347693
0.00347085
0.00346632
0.00346331
0.00346174
0.00346133
0.00346165
0.00346212
0.00346219
0.00346138
0.00345939
0.00345595
0.00345106
0.00344482
0.00343742
0.00342909
0.00342009
0.00341067
0.00340107
0.00339152
0.00338219
0.00337325
0.00336482
0.00335699
0.0033498
0.00334326
0.00333735
0.00333202
0.00332722
0.00332289
0.00331897
0.00331541
0.00331215
0.00330915
0.00330638
0.0033038
0.00330138
0.00329912
0.003297
0.00329501
0.00329316
0.00329142
0.00328981
0.00328829
0.00328688
0.0032854
0.00327758
0.0032684
0.00325954
0.00325151
0.00324437
0.00323802
0.00323234
0.00322708
0.00322277
0.0032162
0.00647966
0.00600273
0.00563558
0.00534254
0.00510299
0.00490359
0.00473516
0.00459112
0.0044666
0.00435801
0.00426285
0.00417904
0.00410467
0.00403823
0.00397851
0.00392456
0.00387557
0.00383092
0.00379008
0.00375261
0.00371817
0.00368645
0.0036572
0.00363021
0.00360531
0.00358234
0.00356118
0.00354172
0.00352387
0.00350757
0.00349277
0.00347944
0.00346758
0.00345724
0.00344848
0.00344143
0.00343621
0.00343292
0.00343154
0.0034318
0.00343309
0.00343464
0.00343569
0.00343564
0.00343414
0.00343108
0.00342649
0.00342051
0.00341334
0.00340522
0.00339639
0.00338708
0.0033775
0.00336781
0.00335817
0.0033487
0.0033395
0.00333064
0.0033222
0.0033142
0.00330669
0.00329966
0.00329312
0.00328706
0.00328145
0.00327629
0.00327155
0.0032672
0.00326321
0.00325957
0.00325625
0.00325322
0.00325048
0.003248
0.00324576
0.00324374
0.00324193
0.0032403
0.00323881
0.00323735
0.00323577
0.00323414
0.00323252
0.00323094
0.00322939
0.00322782
0.00322622
0.00322439
0.00322303
0.00321832
0.00647969
0.00600277
0.00563562
0.0053426
0.00510306
0.0049037
0.00473536
0.00459146
0.00446717
0.0043589
0.00426393
0.00418008
0.00410555
0.00403889
0.00397892
0.0039247
0.00387543
0.00383049
0.00378934
0.00375153
0.00371672
0.00368458
0.00365488
0.00362739
0.00360196
0.00357842
0.00355665
0.00353657
0.00351808
0.00350113
0.00348568
0.00347172
0.00345927
0.00344842
0.0034393
0.00343213
0.00342719
0.00342478
0.00342508
0.00342778
0.00343201
0.0034366
0.00344039
0.00344252
0.00344255
0.00344036
0.00343604
0.00342982
0.00342199
0.00341286
0.00340283
0.00339218
0.00338114
0.0033699
0.00335869
0.00334771
0.0033371
0.003327
0.00331746
0.00330856
0.0033003
0.00329272
0.00328581
0.00327955
0.00327392
0.0032689
0.00326445
0.00326054
0.00325715
0.00325422
0.00325175
0.00324968
0.00324798
0.00324664
0.0032456
0.00324485
0.00324433
0.00324401
0.00324382
0.0032437
0.00324355
0.00324332
0.00324301
0.0032426
0.00324202
0.00324117
0.00323993
0.00323787
0.00323504
0.00322555
0.00647972
0.0060028
0.00563566
0.00534263
0.00510308
0.00490372
0.00473537
0.00459147
0.00446717
0.00435885
0.00426373
0.00417965
0.00410484
0.00403788
0.00397762
0.00392309
0.00387352
0.00382827
0.0037868
0.00374866
0.00371351
0.00368102
0.00365095
0.00362309
0.00359726
0.00357332
0.00355116
0.00353067
0.00351177
0.00349441
0.00347854
0.00346415
0.00345129
0.00344006
0.00343065
0.00342343
0.00341888
0.00341764
0.00342043
0.00342708
0.00343638
0.00344648
0.00345539
0.00346175
0.00346497
0.00346496
0.00346194
0.00345628
0.00344845
0.00343894
0.00342845
0.00341727
0.00340575
0.00339417
0.00338278
0.00337179
0.00336136
0.00335163
0.00334271
0.00333466
0.00332753
0.00332134
0.00331607
0.00331171
0.0033082
0.00330549
0.00330349
0.00330214
0.00330133
0.00330097
0.00330098
0.00330126
0.00330173
0.00330229
0.00330288
0.00330341
0.00330383
0.00330406
0.00330405
0.00330372
0.003303
0.00330183
0.00330016
0.00329795
0.00329515
0.00329167
0.00328738
0.00328182
0.00327506
0.00326076
0.00647975
0.00600284
0.00563569
0.00534264
0.00510309
0.00490371
0.00473534
0.00459142
0.0044671
0.00435874
0.00426354
0.00417931
0.00410429
0.00403708
0.00397651
0.00392164
0.00387171
0.00382606
0.00378417
0.00374561
0.00370999
0.00367704
0.00364649
0.00361815
0.00359185
0.00356744
0.00354481
0.00352385
0.00350449
0.00348665
0.00347029
0.00345539
0.00344197
0.00343014
0.00342014
0.00341247
0.00340787
0.0034077
0.00341436
0.00342916
0.00345088
0.00347575
0.00349919
0.00351841
0.00353233
0.00354089
0.00354461
0.00354429
0.0035408
0.00353497
0.00352833
0.00352166
0.0035154
0.00350988
0.00350535
0.00350192
0.00349965
0.00349849
0.00349831
0.00349896
0.00350021
0.00350186
0.00350367
0.00350543
0.00350697
0.00350813
0.00350878
0.00350883
0.00350823
0.00350696
0.00350499
0.00350236
0.00349907
0.00349517
0.00349071
0.00348571
0.00348022
0.00347429
0.00346792
0.00346114
0.00345394
0.00344633
0.00343828
0.00342979
0.00342081
0.00341123
0.00340095
0.00338947
0.00337684
0.00335712
0.00647978
0.00600287
0.00563571
0.00534264
0.00510306
0.00490364
0.00473522
0.00459123
0.00446682
0.00435834
0.00426297
0.00417852
0.00410324
0.00403572
0.00397482
0.00391959
0.00386926
0.0038232
0.00378087
0.00374184
0.00370574
0.00367229
0.00364122
0.00361235
0.00358552
0.00356058
0.00353743
0.00351596
0.00349607
0.0034777
0.00346077
0.00344524
0.00343109
0.00341842
0.00340742
0.00339875
0.00339341
0.00339419
0.00341158
0.00345571
0.00352512
0.00360496
0.00367997
0.00374423
0.00379619
0.00383674
0.00386771
0.0038911
0.00390869
0.00392194
0.00393145
0.00394022
0.00394771
0.00395342
0.00395696
0.00395809
0.00395673
0.00395293
0.00394681
0.0039386
0.00392852
0.00391683
0.00390377
0.00388957
0.00387444
0.00385857
0.00384214
0.00382528
0.00380814
0.00379081
0.00377341
0.00375601
0.00373868
0.00372148
0.00370447
0.00368767
0.00367111
0.0036548
0.00363874
0.00362292
0.0036073
0.00359185
0.00357653
0.00356126
0.00354597
0.00353051
0.00351471
0.00349803
0.00348039
0.00345649
0.00647981
0.0060029
0.00563572
0.00534264
0.00510301
0.00490355
0.00473506
0.004591
0.00446648
0.00435787
0.00426234
0.00417768
0.00410215
0.00403434
0.00397309
0.00391748
0.00386673
0.0038202
0.00377736
0.00373779
0.00370111
0.00366704
0.00363535
0.00360584
0.00357837
0.00355279
0.00352901
0.00350692
0.00348643
0.00346742
0.00344982
0.00343352
0.00341845
0.00340458
0.00339196
0.00338127
0.00337357
0.00337515
0.00344354
0.00362579
0.00388847
0.00415028
0.00436426
0.00452545
0.00463826
0.00471151
0.00475377
0.00477238
0.00477327
0.00476116
0.00473956
0.00470967
0.00467365
0.00463308
0.00458948
0.00454413
0.00449804
0.00445199
0.00440653
0.00436204
0.00431876
0.00427681
0.00423627
0.00419714
0.00415941
0.00412306
0.00408802
0.00405426
0.00402173
0.00399039
0.00396019
0.00393111
0.0039031
0.00387614
0.00385017
0.00382535
0.00380154
0.00377862
0.0037565
0.00373508
0.00371427
0.00369398
0.00367409
0.00365447
0.00363496
0.00361535
0.00359574
0.00357556
0.00355454
0.00352794
0.00647983
0.00600292
0.00563573
0.00534262
0.00510295
0.00490342
0.00473486
0.00459069
0.00446605
0.00435728
0.00426155
0.00417666
0.00410085
0.00403271
0.00397109
0.00391506
0.00386384
0.00381679
0.00377339
0.0037332
0.00369586
0.0036611
0.00362868
0.00359843
0.0035702
0.00354389
0.00351939
0.0034966
0.00347542
0.00345574
0.00343743
0.00342037
0.0034044
0.00338937
0.00337502
0.00336194
0.00335053
0.0033596
0.00369534
0.0043798
0.00508024
0.00557533
0.00585289
0.00597076
0.00597872
0.00591816
0.00581861
0.00569985
0.00557429
0.00544915
0.00532778
0.00521166
0.00510231
0.00500069
0.00490692
0.00482064
0.00474127
0.00466811
0.00460043
0.00453758
0.00447897
0.0044241
0.00437262
0.00432418
0.00427876
0.00423579
0.00419491
0.00415589
0.00411856
0.00408281
0.00404854
0.00401569
0.0039842
0.00395401
0.00392506
0.00389731
0.00387068
0.00384511
0.00382052
0.00379682
0.00377392
0.0037517
0.00373003
0.00370874
0.00368765
0.00366645
0.00364477
0.00362178
0.00359689
0.00356773
0.00647986
0.00600295
0.00563574
0.00534259
0.00510287
0.00490327
0.00473463
0.00459035
0.00446558
0.00435664
0.00426071
0.00417557
0.00409947
0.00403099
0.00396898
0.0039125
0.00386077
0.00381315
0.0037691
0.0037282
0.00369009
0.0036545
0.00362121
0.00359006
0.00356094
0.00353375
0.0035084
0.0034848
0.00346285
0.00344242
0.00342337
0.00340557
0.00338878
0.00337271
0.00335653
0.00334025
0.00332123
0.0033644
0.00460918
0.00604737
0.00697276
0.00736265
0.00737759
0.00718465
0.00689825
0.00658681
0.00628666
0.00601418
0.00577462
0.0055675
0.00538988
0.00523777
0.00510719
0.00499423
0.00489551
0.00480826
0.00473058
0.00466152
0.00459869
0.00454043
0.00448577
0.00443413
0.0043851
0.00433842
0.00429388
0.00425132
0.0042106
0.00417161
0.00413427
0.0040985
0.00406424
0.00403143
0.00400003
0.00396997
0.0039412
0.00391367
0.00388729
0.003862
0.0038377
0.00381428
0.00379163
0.00376961
0.00374807
0.00372683
0.00370567
0.00368427
0.00366225
0.00363873
0.00361203
0.00357956
0.00647988
0.00600296
0.00563574
0.00534255
0.00510278
0.00490311
0.00473437
0.00458998
0.00446506
0.00435594
0.00425979
0.0041744
0.00409798
0.00402914
0.00396671
0.00390973
0.00385744
0.00380917
0.00376439
0.00372268
0.00368367
0.00364711
0.00361279
0.00358058
0.00355039
0.00352216
0.00349583
0.00347132
0.00344853
0.00342733
0.00340764
0.00338942
0.0033726
0.00335716
0.00334237
0.00332826
0.00331092
0.00335882
0.00470989
0.00624026
0.00721242
0.00758265
0.00757822
0.00736435
0.00704947
0.00670446
0.00636934
0.00606341
0.00579388
0.00556159
0.00536391
0.00519705
0.00505673
0.00494026
0.00484205
0.004757
0.00468171
0.00461384
0.00455173
0.00449422
0.00444047
0.00438991
0.0043421