/*--------------------------------*- C++ -*----------------------------------*\
| =========                 |                                                 |
| \\      /  F ield         | OpenFOAM: The Open Source CFD Toolbox           |
|  \\    /   O peration     | Version:  v2012                                 |
|   \\  /    A nd           | Website:  www.openfoam.com                      |
|    \\/     M anipulation  |                                                 |
\*---------------------------------------------------------------------------*/
FoamFile
{
    version     2.0;
    format      ascii;
    class       volScalarField;
    location    "500/air";
    object      epsilon;
}
// * * * * * * * * * * * * * * * * * * * * * * * * * * * * * * * * * * * * * //

dimensions      [0 2 -3 0 0 0 0];


internalField   nonuniform List<scalar> 
287104
(
0.0965288
0.0769509
0.0638413
0.0545281
0.0476353
0.0423719
0.0382505
0.0349554
0.032274
0.0300589
0.0282051
0.0266359
0.0252943
0.0241371
0.023131
0.02225
0.0214735
0.0207852
0.0201717
0.0196222
0.0191277
0.0186809
0.0182756
0.0179065
0.0175693
0.0172603
0.0169762
0.0167142
0.0164719
0.0162473
0.0160385
0.0158439
0.0156621
0.0154917
0.0153317
0.015181
0.0150388
0.014904
0.0147761
0.0146543
0.014538
0.0144267
0.0143198
0.0142169
0.0141176
0.0140215
0.0139284
0.0138379
0.0137498
0.0136639
0.01358
0.013498
0.0134178
0.0133393
0.0132624
0.0131871
0.0131133
0.0130409
0.01297
0.0129005
0.0128324
0.0127657
0.0127004
0.0126364
0.0125738
0.0125125
0.0124524
0.0123936
0.0123359
0.0122794
0.0122239
0.0121693
0.0121157
0.0120628
0.0120106
0.0119588
0.0119074
0.0118562
0.0118049
0.0117532
0.0117007
0.0116472
0.0115918
0.0115338
0.011472
0.0114041
0.0113275
0.0112324
0.0111218
0.0108694
0.096523
0.0769404
0.0638277
0.0545125
0.0476184
0.0423542
0.0382322
0.0349367
0.032255
0.0300399
0.0281861
0.026617
0.0252757
0.0241189
0.0231132
0.0222327
0.0214568
0.020769
0.020156
0.019607
0.019113
0.0186668
0.018262
0.0178934
0.0175568
0.0172483
0.0169648
0.0167034
0.0164619
0.016238
0.01603
0.0158363
0.0156554
0.0154861
0.0153272
0.0151777
0.0150366
0.0149032
0.0147766
0.0146562
0.0145413
0.0144314
0.014326
0.0142245
0.0141266
0.0140318
0.0139399
0.0138506
0.0137636
0.0136788
0.0135959
0.0135147
0.0134353
0.0133574
0.013281
0.0132061
0.0131326
0.0130604
0.0129896
0.0129202
0.0128521
0.0127853
0.0127198
0.0126556
0.0125927
0.0125311
0.0124706
0.0124114
0.0123533
0.0122963
0.0122403
0.0121853
0.0121311
0.0120777
0.0120249
0.0119725
0.0119205
0.0118686
0.0118165
0.011764
0.0117107
0.0116562
0.0116
0.011541
0.0114783
0.0114096
0.0113323
0.0112368
0.0111262
0.0108767
0.0965206
0.076936
0.0638219
0.0545057
0.0476107
0.0423459
0.0382233
0.0349273
0.0322453
0.0300299
0.028176
0.026607
0.0252658
0.0241091
0.0231037
0.0222235
0.0214479
0.0207604
0.0201477
0.0195991
0.0191055
0.0186595
0.0182551
0.0178869
0.0175507
0.0172426
0.0169595
0.0166987
0.0164577
0.0162344
0.0160271
0.0158342
0.0156541
0.0154857
0.0153277
0.0151793
0.0150393
0.0149071
0.0147817
0.0146626
0.0145491
0.0144405
0.0143364
0.0142363
0.0141397
0.0140463
0.0139558
0.0138678
0.0137821
0.0136985
0.0136168
0.0135369
0.0134587
0.013382
0.0133068
0.013233
0.0131606
0.0130896
0.01302
0.0129517
0.0128847
0.0128191
0.0127548
0.0126918
0.0126301
0.0125696
0.0125104
0.0124525
0.0123957
0.01234
0.0122853
0.0122316
0.0121788
0.0121268
0.0120753
0.0120244
0.0119737
0.0119232
0.0118724
0.0118212
0.0117692
0.0117159
0.0116608
0.011603
0.0115414
0.0114739
0.0113981
0.0113045
0.0111962
0.0109527
0.0965183
0.0769312
0.0638151
0.0544972
0.0476009
0.0423348
0.0382111
0.0349142
0.0322314
0.0300154
0.0281612
0.026592
0.0252508
0.0240944
0.0230892
0.0222093
0.0214339
0.0207467
0.0201343
0.0195859
0.0190925
0.0186467
0.0182424
0.0178745
0.0175384
0.0172306
0.0169478
0.0166874
0.0164468
0.0162241
0.0160174
0.0158251
0.0156458
0.0154783
0.0153214
0.015174
0.0150352
0.0149042
0.0147802
0.0146624
0.0145502
0.0144431
0.0143404
0.0142416
0.0141464
0.0140543
0.013965
0.0138782
0.0137936
0.013711
0.0136303
0.0135512
0.0134736
0.0133976
0.0133229
0.0132496
0.0131776
0.0131069
0.0130375
0.0129694
0.0129025
0.012837
0.0127727
0.0127096
0.0126478
0.0125873
0.0125279
0.0124697
0.0124127
0.0123566
0.0123016
0.0122475
0.0121942
0.0121415
0.0120894
0.0120376
0.011986
0.0119343
0.0118822
0.0118294
0.0117756
0.0117202
0.0116627
0.0116023
0.011538
0.0114677
0.0113891
0.011293
0.0111823
0.010938
0.0965161
0.076927
0.0638093
0.0544901
0.0475925
0.0423253
0.0382006
0.0349026
0.032219
0.0300022
0.0281475
0.0265781
0.025237
0.0240807
0.0230759
0.0221963
0.0214214
0.0207345
0.0201225
0.0195743
0.0190812
0.0186357
0.0182316
0.0178639
0.0175281
0.0172206
0.0169382
0.0166781
0.016438
0.0162159
0.0160099
0.0158185
0.0156402
0.0154737
0.0153179
0.0151718
0.0150345
0.014905
0.0147825
0.0146664
0.0145559
0.0144504
0.0143494
0.0142524
0.0141589
0.0140684
0.0139807
0.0138954
0.0138123
0.0137311
0.0136516
0.0135738
0.0134974
0.0134224
0.0133488
0.0132765
0.0132054
0.0131356
0.0130671
0.0129998
0.0129337
0.0128689
0.0128054
0.0127431
0.012682
0.0126222
0.0125635
0.012506
0.0124496
0.0123942
0.0123397
0.0122861
0.0122333
0.0121811
0.0121293
0.0120779
0.0120265
0.0119748
0.0119227
0.0118697
0.0118153
0.0117592
0.0117009
0.0116395
0.0115743
0.0115033
0.0114244
0.0113288
0.0112194
0.0109793
0.096514
0.0769226
0.0638031
0.0544822
0.0475831
0.0423143
0.0381882
0.0348889
0.032204
0.0299864
0.0281313
0.0265621
0.0252214
0.0240657
0.0230615
0.0221825
0.021408
0.0207215
0.0201096
0.0195616
0.0190686
0.0186231
0.0182191
0.0178515
0.0175158
0.0172085
0.0169264
0.0166668
0.0164273
0.0162059
0.0160008
0.0158105
0.0156334
0.0154684
0.0153143
0.0151701
0.0150348
0.0149074
0.0147873
0.0146737
0.0145658
0.014463
0.0143647
0.0142705
0.0141797
0.014092
0.014007
0.0139245
0.013844
0.0137654
0.0136886
0.0136133
0.0135395
0.013467
0.0133959
0.013326
0.0132575
0.0131902
0.0131242
0.0130595
0.0129961
0.012934
0.0128733
0.012814
0.0127559
0.0126992
0.0126438
0.0125897
0.0125368
0.0124851
0.0124345
0.0123849
0.0123362
0.0122884
0.0122412
0.0121945
0.012148
0.0121016
0.0120548
0.0120073
0.0119586
0.0119084
0.0118563
0.0118019
0.0117444
0.0116824
0.0116142
0.011532
0.0114385
0.0112255
0.0965119
0.0769184
0.063797
0.0544744
0.0475736
0.042303
0.038175
0.0348736
0.0321866
0.029967
0.0281105
0.0265407
0.0252002
0.0240451
0.0230415
0.0221633
0.0213895
0.0207035
0.0200922
0.0195446
0.0190518
0.0186066
0.0182029
0.0178356
0.0175003
0.0171935
0.016912
0.0166532
0.0164148
0.0161948
0.0159913
0.0158029
0.0156281
0.0154656
0.0153144
0.0151733
0.0150415
0.0149179
0.0148018
0.0146923
0.0145888
0.0144906
0.014397
0.0143071
0.0142205
0.014137
0.0140562
0.0139778
0.0139015
0.0138272
0.0137546
0.0136835
0.0136139
0.0135456
0.0134787
0.0134131
0.0133488
0.0132858
0.0132242
0.0131639
0.0131051
0.0130477
0.0129917
0.0129373
0.0128844
0.012833
0.0127832
0.0127349
0.0126881
0.0126429
0.0125991
0.0125568
0.0125159
0.0124762
0.0124378
0.0124004
0.0123638
0.0123278
0.0122921
0.0122561
0.0122194
0.0121815
0.0121425
0.012102
0.0120598
0.0120151
0.0119674
0.011912
0.011855
0.011698
0.0965098
0.0769141
0.0637908
0.0544663
0.0475635
0.0422909
0.0381605
0.0348568
0.0321674
0.0299459
0.0280891
0.0265205
0.0251816
0.024028
0.0230257
0.0221482
0.0213746
0.0206884
0.0200764
0.0195279
0.019034
0.0185875
0.0181826
0.0178142
0.0174781
0.0171707
0.0168891
0.0166307
0.0163931
0.0161744
0.0159728
0.0157869
0.0156147
0.0154551
0.015307
0.0151694
0.0150413
0.0149217
0.0148097
0.0147044
0.0146049
0.0145106
0.0144208
0.0143347
0.0142519
0.0141719
0.0140943
0.0140189
0.0139453
0.0138734
0.013803
0.013734
0.0136664
0.0136003
0.0135355
0.0134721
0.0134101
0.0133495
0.0132904
0.0132328
0.0131767
0.0131221
0.013069
0.0130175
0.0129676
0.0129191
0.0128722
0.0128267
0.0127827
0.01274
0.0126987
0.0126587
0.0126198
0.0125821
0.0125452
0.0125092
0.0124737
0.0124384
0.012403
0.0123668
0.012329
0.0122896
0.0122486
0.0122062
0.0121623
0.0121165
0.0120689
0.0120182
0.0119777
0.0118965
0.0965077
0.0769098
0.0637844
0.0544577
0.0475524
0.0422768
0.0381426
0.0348338
0.0321374
0.0299077
0.0280565
0.0265074
0.0251929
0.0240614
0.0230745
0.0222042
0.0214301
0.0207368
0.0201127
0.0195487
0.0190376
0.0185735
0.0181515
0.0177674
0.0174175
0.0170985
0.0168075
0.0165417
0.016299
0.0160769
0.0158736
0.0156872
0.0155161
0.0153589
0.0152143
0.0150807
0.0149571
0.0148423
0.0147347
0.0146333
0.0145371
0.0144452
0.0143569
0.0142717
0.014189
0.0141086
0.0140301
0.0139537
0.013879
0.0138061
0.0137349
0.0136653
0.0135971
0.0135304
0.0134651
0.0134012
0.0133389
0.013278
0.0132187
0.013161
0.0131049
0.0130503
0.0129974
0.0129461
0.0128963
0.0128482
0.0128016
0.0127567
0.0127133
0.0126714
0.0126311
0.0125923
0.0125549
0.0125189
0.0124842
0.0124506
0.0124182
0.0123864
0.012355
0.0123224
0.0122874
0.0122507
0.0122135
0.0121758
0.0121376
0.012098
0.0120572
0.0120137
0.0119785
0.0119189
0.0965057
0.0769056
0.063778
0.0544492
0.0475414
0.0422629
0.0381251
0.0348118
0.0321089
0.0298754
0.029229
0.0289165
0.0284386
0.0277129
0.0267931
0.0257624
0.0246936
0.0236392
0.0226329
0.0216943
0.020833
0.020052
0.0193503
0.0187242
0.0181683
0.0176768
0.0172428
0.0168591
0.0165182
0.0162127
0.0159352
0.015678
0.0154555
0.0152711
0.0151154
0.0149813
0.014863
0.0147564
0.0146584
0.0145669
0.0144798
0.014396
0.0143145
0.0142345
0.0141583
0.0140871
0.0140208
0.0139591
0.0139012
0.0138465
0.0137945
0.0137448
0.0136969
0.0136508
0.0136062
0.013563
0.0135214
0.0134812
0.0134424
0.0134051
0.0133691
0.0133344
0.0133011
0.0132691
0.0132385
0.0132091
0.013181
0.0131542
0.0131288
0.0131046
0.0130817
0.0130602
0.0130402
0.0130215
0.0130043
0.0129884
0.0129738
0.0129601
0.0129469
0.0129316
0.0128314
0.0127136
0.0126003
0.0124979
0.0124068
0.0123252
0.012251
0.0121801
0.0121204
0.0120368
0.0965037
0.0769013
0.0637715
0.0544401
0.0475291
0.0422459
0.0381002
0.0347731
0.0320333
0.0299369
0.164264
0.215542
0.215151
0.196462
0.174388
0.154088
0.136884
0.12277
0.111359
0.10221
0.0949266
0.0891795
0.0846976
0.0812575
0.0786719
0.0767806
0.0754443
0.0745403
0.0739613
0.0736138
0.0734203
0.0733163
0.0732732
0.0732893
0.073355
0.0734502
0.0735563
0.07366
0.0737544
0.0738377
0.0739119
0.0739832
0.0740476
0.0741056
0.0741553
0.0742029
0.0742611
0.0743427
0.0744597
0.0746223
0.0748371
0.0751087
0.0754408
0.0758364
0.0762964
0.0768204
0.0774093
0.0780658
0.0787918
0.0795886
0.0804566
0.0813958
0.0824059
0.0834862
0.0846356
0.0858528
0.0871357
0.088482
0.0898894
0.0913547
0.0928737
0.0944421
0.0960558
0.097711
0.0994065
0.101145
0.102947
0.104846
0.107073
0.109152
0.0558447
0.0345457
0.0245616
0.0193267
0.0163617
0.01459
0.0134906
0.012783
0.0123233
0.0119568
0.0965017
0.0768972
0.0637653
0.0544318
0.0475184
0.0422324
0.0380831
0.0347517
0.0320059
0.0299039
0.164249
0.215644
0.215112
0.196114
0.173682
0.153032
0.135507
0.121113
0.10946
0.100106
0.0926537
0.0867699
0.0821833
0.0786705
0.076044
0.0741432
0.0728274
0.0719716
0.0714646
0.071208
0.0711165
0.0711182
0.0711542
0.0711794
0.071161
0.0710759
0.0709082
0.0706477
0.0702895
0.0698324
0.0692783
0.0686313
0.0679104
0.0671264
0.066288
0.0654062
0.0644929
0.0635593
0.0626137
0.061663
0.0607139
0.0597733
0.0588477
0.0579432
0.0570655
0.0562209
0.055416
0.0546569
0.0539518
0.0533069
0.052729
0.0522262
0.0518074
0.0514816
0.0512574
0.0511434
0.0511474
0.0512767
0.0515375
0.0519349
0.0524728
0.0531536
0.0539791
0.05495
0.0560669
0.05733
0.0587489
0.0603327
0.0622346
0.0640865
0.0372637
0.0252355
0.0190748
0.0156148
0.0135486
0.0122645
0.0114453
0.0109007
0.010525
0.0101469
0.0964998
0.0768931
0.0637593
0.0544237
0.0475079
0.042219
0.0380659
0.0347295
0.0319767
0.0298657
0.163775
0.215109
0.214699
0.195836
0.173499
0.1529
0.135394
0.120997
0.109335
0.0999715
0.0925163
0.0866431
0.0820845
0.0786207
0.0760668
0.0742636
0.0730704
0.072361
0.0720218
0.0719513
0.072061
0.0722756
0.0725331
0.0727849
0.0729951
0.0731391
0.0732004
0.0731687
0.0730395
0.072812
0.0724886
0.0720736
0.0715736
0.0709963
0.0703511
0.0696481
0.0688979
0.0681108
0.0672964
0.0664634
0.0656196
0.064771
0.0639223
0.0630768
0.0622359
0.0613995
0.0605668
0.0597364
0.0589049
0.0580718
0.0572369
0.0563998
0.055559
0.0547133
0.0538623
0.0530062
0.0521462
0.0512839
0.0504221
0.0495641
0.0487141
0.0478771
0.0470591
0.0462675
0.0455115
0.0448023
0.0441592
0.0435971
0.0432235
0.0427576
0.0252982
0.0176562
0.0137956
0.0116213
0.01029
0.00941816
0.00881363
0.00835688
0.00799174
0.00754184
0.0964979
0.0768892
0.0637537
0.0544164
0.0474988
0.042208
0.0380529
0.0347143
0.0319592
0.0298462
0.163612
0.214923
0.214538
0.195694
0.173363
0.152761
0.135245
0.120838
0.109166
0.099795
0.0923363
0.0864639
0.0819112
0.0784588
0.0759226
0.0741437
0.0729818
0.0723109
0.072017
0.0719985
0.072166
0.0724437
0.0727693
0.073094
0.0733815
0.0736063
0.0737506
0.0738023
0.073755
0.0736062
0.0733565
0.0730094
0.0725712
0.0720498
0.0714567
0.0708061
0.0701126
0.0693908
0.0686546
0.0679163
0.0671867
0.0664745
0.0658138
0.0652065
0.0646465
0.064127
0.0636427
0.0631899
0.062766
0.0623717
0.0620089
0.0616796
0.0613836
0.0611202
0.0608889
0.0606897
0.060522
0.060384
0.0602738
0.060189
0.060127
0.0600852
0.0600606
0.0600509
0.060055
0.0600743
0.0601217
0.060221
0.0605338
0.0611141
0.0364734
0.0260422
0.0208363
0.0178869
0.0160281
0.0147366
0.01375
0.0129142
0.0122192
0.0115098
0.096496
0.0768855
0.0637483
0.0544095
0.0474905
0.0421982
0.0380414
0.0347009
0.0319438
0.0298285
0.16341
0.214644
0.214257
0.195436
0.173131
0.152549
0.135047
0.120647
0.108979
0.0996108
0.092154
0.0862843
0.0817363
0.0782912
0.0757654
0.0740003
0.0728558
0.0722057
0.0719361
0.0719449
0.0721427
0.0724536
0.0728152
0.0731786
0.0735071
0.0737743
0.0739611
0.0740532
0.0740413
0.0739202
0.0736871
0.073343
0.0728928
0.0723442
0.0717104
0.0710077
0.0702532
0.069464
0.0686559
0.0678431
0.0670371
0.0662472
0.0654805
0.0647421
0.0640354
0.0633621
0.0627226
0.0621171
0.0615487
0.0610315
0.0605609
0.0601299
0.0597325
0.0593646
0.0590236
0.0587085
0.0584209
0.0581638
0.0579394
0.0577494
0.0575954
0.0574806
0.0574085
0.0573836
0.0574114
0.0575008
0.0576681
0.0579414
0.0584808
0.0593568
0.0357978
0.0258693
0.0209642
0.0182349
0.0165608
0.015438
0.0146135
0.0139355
0.0132907
0.0124578
0.0964942
0.0768819
0.0637433
0.0544034
0.0474833
0.04219
0.0380322
0.0346908
0.0319327
0.0298163
0.16327
0.214428
0.21401
0.19518
0.172874
0.152295
0.134797
0.120404
0.108741
0.0993797
0.0919301
0.0860684
0.0815294
0.0780945
0.07558
0.0738273
0.072696
0.07206
0.0718048
0.0718285
0.0720416
0.0723684
0.0727471
0.0731294
0.073479
0.0737692
0.07398
0.0740948
0.0741006
0.0739878
0.0737487
0.0733805
0.0728857
0.072272
0.0715544
0.070753
0.069889
0.0689834
0.0680553
0.067121
0.0661935
0.0652826
0.064395
0.063535
0.0627048
0.0619051
0.061135
0.060393
0.0596769
0.0589844
0.058313
0.0576601
0.0570231
0.0563992
0.0557855
0.0551794
0.0545785
0.0539807
0.0533838
0.0527858
0.0521848
0.0515793
0.0509682
0.0503507
0.0497276
0.0491006
0.0484808
0.0478725
0.0473599
0.0466724
0.028011
0.0200103
0.016041
0.0138209
0.0124351
0.0114708
0.0107265
0.0100829
0.00949434
0.00874792
0.0964925
0.0768785
0.0637387
0.0543978
0.0474771
0.0421834
0.0380254
0.0346839
0.031926
0.0298097
0.163196
0.214284
0.21381
0.194937
0.172602
0.152005
0.134499
0.120103
0.108445
0.0990914
0.0916536
0.0858065
0.081284
0.0778667
0.07537
0.0736343
0.0725181
0.0718941
0.0716477
0.0716766
0.071892
0.0722196
0.0725995
0.0729858
0.0733442
0.0736498
0.0738822
0.0740225
0.0740527
0.0739557
0.0737158
0.0733228
0.0727754
0.0720814
0.0712592
0.0703349
0.0693361
0.0682897
0.0672196
0.0661451
0.0650813
0.0640384
0.0630233
0.0620395
0.0610879
0.0601675
0.0592762
0.058411
0.0575688
0.0567462
0.0559399
0.0551466
0.0543636
0.053588
0.0528177
0.0520508
0.0512861
0.0505228
0.0497609
0.0490012
0.0482451
0.047495
0.0467548
0.0460296
0.0453266
0.0446551
0.0440312
0.0434648
0.0430521
0.04252
0.0253387
0.0179008
0.014192
0.0121305
0.0108781
0.0100545
0.00947096
0.00901255
0.00863013
0.00813764
0.0964908
0.0768751
0.0637343
0.0543927
0.0474716
0.0421777
0.0380199
0.0346787
0.0319211
0.0298045
0.163068
0.214019
0.213458
0.19455
0.172214
0.151635
0.134155
0.11979
0.108163
0.0988418
0.0914385
0.0856291
0.0811483
0.0777769
0.0753291
0.0736437
0.0725771
0.0720003
0.0717979
0.0718685
0.0721261
0.0725004
0.0729368
0.0733946
0.073844
0.0742618
0.074626
0.0749105
0.075085
0.0751152
0.0749669
0.0746158
0.0740547
0.0732947
0.0723656
0.0713089
0.0701687
0.068986
0.0677955
0.0666241
0.0654904
0.0644064
0.0633782
0.0624075
0.0614929
0.0606305
0.0598156
0.0590441
0.0583128
0.0576184
0.0569581
0.0563297
0.0557317
0.0551632
0.0546244
0.0541163
0.0536407
0.0532005
0.0527991
0.052441
0.052131
0.0518748
0.0516789
0.0515508
0.0515
0.0515378
0.0516842
0.051958
0.0525055
0.0530854
0.0316099
0.0223223
0.0176862
0.0151099
0.0135547
0.0125498
0.0118597
0.0113463
0.0109363
0.0104665
0.0964891
0.076872
0.0637303
0.0543884
0.0474676
0.0421746
0.0380186
0.0346805
0.0319281
0.0298183
0.16327
0.214142
0.213403
0.194344
0.171916
0.151309
0.133864
0.119591
0.108114
0.0989998
0.0918589
0.086363
0.0822391
0.0792567
0.0772172
0.0759463
0.0752897
0.0751119
0.0752959
0.0757435
0.0763753
0.0771298
0.0779609
0.0788344
0.0797233
0.0806011
0.0814345
0.0821758
0.0827617
0.0831158
0.0831609
0.082843
0.0821468
0.0810995
0.0797664
0.0782344
0.0765939
0.0749277
0.0733039
0.0717734
0.0703701
0.0691133
0.0680101
0.0670588
0.0662513
0.0655755
0.0650229
0.0645846
0.0642493
0.0640043
0.0638371
0.063737
0.0636961
0.0637086
0.0637715
0.0638834
0.0640448
0.0642571
0.0645226
0.0648439
0.065224
0.0656662
0.0661742
0.0667528
0.0674087
0.0681531
0.0690116
0.0700373
0.0715364
0.0735578
0.0427488
0.0294721
0.0227708
0.0189847
0.0166638
0.0151512
0.014115
0.0133657
0.01279
0.0122409
0.0964874
0.0768689
0.0637264
0.0543842
0.0474635
0.0421713
0.0380168
0.0346809
0.0319321
0.0298243
0.162915
0.213485
0.212848
0.194087
0.172203
0.152414
0.136053
0.123099
0.113127
0.105645
0.100199
0.0963983
0.0939113
0.0924612
0.0918166
0.0917859
0.0922135
0.0929753
0.0939758
0.0951436
0.096428
0.0977948
0.099222
0.100695
0.102203
0.103727
0.105235
0.106663
0.107916
0.108854
0.109317
0.109165
0.108323
0.106794
0.104662
0.102064
0.0991627
0.0961226
0.0930945
0.0902067
0.0875607
0.0852302
0.0832624
0.0816806
0.0804871
0.0796635
0.0792537
0.0792311
0.0795157
0.0800227
0.0806811
0.081438
0.0822574
0.0831161
0.0840009
0.0849053
0.0858272
0.0867669
0.0877262
0.0887073
0.0897124
0.0907439
0.0918043
0.0928971
0.0940283
0.0952098
0.0964725
0.0978744
0.0996837
0.101725
0.054014
0.0345738
0.0252598
0.0202545
0.0173366
0.0155321
0.0143654
0.0135806
0.0130383
0.0126081
0.0964858
0.0768659
0.0637228
0.0543807
0.0474611
0.0421715
0.0380228
0.0346988
0.0319856
0.0297398
0.0282269
0.0269535
0.0256913
0.0245549
0.0235222
0.0225832
0.0217316
0.0209614
0.0202667
0.0196415
0.01908
0.0185765
0.0181257
0.0177226
0.0173624
0.0170411
0.0167547
0.0164999
0.0162737
0.0160735
0.0158972
0.0157432
0.0156102
0.0154974
0.0154048
0.0153325
0.0152807
0.015249
0.0152362
0.0152387
0.0152507
0.0152649
0.0152739
0.0152711
0.0152525
0.0152148
0.0151574
0.0150822
0.0149915
0.0148884
0.0147765
0.0146592
0.0145396
0.0144207
0.0143048
0.0141938
0.0140893
0.0139923
0.0139034
0.0138225
0.0137493
0.0136833
0.0136237
0.0135698
0.0135209
0.0134763
0.0134353
0.0133973
0.0133621
0.0133291
0.0132981
0.0132689
0.0132413
0.0132153
0.0131908
0.0131678
0.0131461
0.0131256
0.0131061
0.0130855
0.0129889
0.0128765
0.0127684
0.0126705
0.0125834
0.0125061
0.0124371
0.0123734
0.0123221
0.0122465
0.0964842
0.0768629
0.063719
0.0543765
0.0474571
0.042168
0.0380208
0.0346988
0.031989
0.0297454
0.0278688
0.0262838
0.0249297
0.0237609
0.0227429
0.0218492
0.0210591
0.0203563
0.0197278
0.0191634
0.0186546
0.0181946
0.0177775
0.0173989
0.0170548
0.0167419
0.0164576
0.0161994
0.0159656
0.0157547
0.0155654
0.015397
0.015249
0.0151216
0.0150154
0.0149317
0.0148722
0.0148375
0.0148276
0.0148387
0.0148631
0.0148908
0.014912
0.0149186
0.0149061
0.014873
0.0148199
0.0147485
0.0146617
0.0145626
0.0144542
0.0143399
0.0142223
0.0141036
0.0139857
0.0138702
0.0137583
0.0136509
0.0135488
0.0134523
0.0133618
0.0132774
0.0131989
0.0131262
0.0130591
0.0129973
0.0129405
0.0128883
0.0128405
0.0127967
0.0127567
0.0127201
0.0126868
0.0126566
0.0126291
0.0126042
0.0125817
0.0125611
0.0125421
0.0125232
0.012503
0.012482
0.0124612
0.012441
0.0124211
0.0124013
0.0123812
0.012359
0.0123432
0.0122908
0.0964826
0.0768599
0.0637151
0.0543723
0.047453
0.0421647
0.0380191
0.0346999
0.0319948
0.0297571
0.0278833
0.0262968
0.0249391
0.0237658
0.0227431
0.0218446
0.0210498
0.0203423
0.0197091
0.0191397
0.0186255
0.0181597
0.0177366
0.0173515
0.0170005
0.0166804
0.0163886
0.0161228
0.0158812
0.0156625
0.0154655
0.0152897
0.0151349
0.0150018
0.0148917
0.0148072
0.0147518
0.0147289
0.0147409
0.0147838
0.0148466
0.0149143
0.0149718
0.0150078
0.0150162
0.0149956
0.0149472
0.014874
0.01478
0.0146695
0.0145476
0.0144183
0.0142847
0.0141487
0.0140135
0.0138817
0.013755
0.0136347
0.0135219
0.0134169
0.0133201
0.0132316
0.0131512
0.0130788
0.0130139
0.0129563
0.0129054
0.012861
0.0128225
0.0127896
0.0127618
0.0127388
0.0127201
0.0127054
0.0126943
0.0126863
0.0126811
0.0126781
0.0126765
0.0126756
0.0126742
0.0126719
0.0126685
0.0126638
0.0126571
0.0126471
0.0126327
0.012609
0.0125776
0.0124691
0.096481
0.0768568
0.0637109
0.0543674
0.0474475
0.0421589
0.0380131
0.0346938
0.0319883
0.0297495
0.027873
0.0262822
0.0249197
0.0237416
0.0227142
0.0218113
0.0210121
0.0203004
0.019663
0.0190893
0.0185708
0.0181006
0.0176729
0.0172832
0.0169276
0.0166028
0.0163063
0.0160358
0.0157895
0.015566
0.0153642
0.0151836
0.0150241
0.0148867
0.0147735
0.0146887
0.0146385
0.0146308
0.0146746
0.0147682
0.0148965
0.0150358
0.0151603
0.0152518
0.015302
0.0153094
0.0152769
0.0152097
0.015114
0.0149965
0.0148666
0.0147283
0.0145861
0.0144439
0.0143047
0.0141711
0.014045
0.013928
0.0138213
0.0137255
0.0136412
0.0135682
0.0135066
0.0134558
0.0134153
0.0133842
0.0133617
0.0133468
0.0133384
0.0133354
0.0133367
0.0133413
0.013348
0.013356
0.0133643
0.0133719
0.0133782
0.0133823
0.0133834
0.0133807
0.0133733
0.0133604
0.0133415
0.0133161
0.0132837
0.0132431
0.0131929
0.0131277
0.0130487
0.0128811
0.0964794
0.0768536
0.0637066
0.0543621
0.0474416
0.0421524
0.0380061
0.0346863
0.0319804
0.0297409
0.0278628
0.0262694
0.0249033
0.0237209
0.0226888
0.0217807
0.0209762
0.0202588
0.0196156
0.019036
0.0185116
0.0180354
0.0176018
0.0172061
0.0168447
0.0165144
0.0162124
0.0159366
0.015685
0.0154562
0.0152488
0.0150623
0.0148963
0.014752
0.0146318
0.0145418
0.0144914
0.0144971
0.0145896
0.0147869
0.0150756
0.0154091
0.015728
0.0159935
0.0161889
0.0163117
0.0163681
0.0163685
0.0163251
0.0162492
0.0161621
0.0160746
0.0159925
0.0159203
0.0158611
0.0158166
0.0157872
0.0157724
0.0157705
0.0157794
0.0157962
0.0158182
0.0158423
0.0158659
0.0158864
0.0159018
0.0159105
0.0159113
0.0159036
0.0158869
0.0158612
0.0158266
0.0157836
0.0157327
0.0156744
0.0156094
0.0155383
0.0154614
0.0153792
0.0152919
0.0151995
0.0151021
0.0149994
0.0148914
0.0147777
0.0146569
0.0145279
0.0143844
0.0142275
0.0139838
0.0964779
0.0768504
0.063702
0.0543564
0.0474348
0.0421445
0.037997
0.0346758
0.0319682
0.0297264
0.0278453
0.0262482
0.0248778
0.0236908
0.0226536
0.0217402
0.0209302
0.0202071
0.019558
0.0189724
0.0184417
0.0179592
0.0175192
0.0171173
0.0167496
0.0164131
0.0161052
0.0158235
0.0155661
0.0153313
0.0151176
0.0149239
0.0147496
0.0145953
0.0144633
0.0143614
0.0143018
0.014319
0.0145454
0.0151192
0.0160473
0.0171591
0.0182482
0.0192161
0.0200225
0.0206666
0.0211674
0.0215504
0.0218409
0.022061
0.0222192
0.0223656
0.022491
0.0225865
0.0226453
0.0226632
0.0226386
0.0225725
0.0224674
0.0223274
0.0221567
0.0219601
0.0217422
0.0215073
0.0212592
0.0210013
0.0207367
0.020468
0.0201973
0.0199265
0.0196572
0.0193907
0.0191279
0.0188697
0.0186168
0.0183694
0.0181279
0.0178922
0.0176621
0.0174374
0.0172174
0.0170017
0.0167893
0.0165794
0.0163708
0.0161614
0.0159491
0.015727
0.0154941
0.0151814
0.0964763
0.0768472
0.0636974
0.0543505
0.0474276
0.042136
0.0379871
0.0346643
0.0319547
0.0297107
0.0278268
0.0262262
0.0248518
0.0236602
0.0226179
0.021699
0.020883
0.0201535
0.0194975
0.0189047
0.0183666
0.0178763
0.0174286
0.0170188
0.0166435
0.0162996
0.0159845
0.0156959
0.0154318
0.01519
0.0149688
0.0147666
0.0145816
0.0144134
0.0142621
0.0141358
0.0140471
0.0140711
0.014938
0.017421
0.021461
0.0260622
0.0302735
0.033725
0.0362867
0.0380145
0.0390332
0.0394839
0.0394999
0.0391961
0.0386639
0.0379371
0.0370751
0.0361211
0.0351146
0.0340879
0.0330657
0.0320651
0.0310977
0.0301702
0.0292859
0.0284458
0.0276497
0.0268959
0.0261827
0.0255077
0.0248687
0.0242636
0.0236904
0.023147
0.0226319
0.0221434
0.02168
0.0212404
0.0208236
0.0204304
0.0200578
0.0197034
0.0193653
0.0190416
0.0187305
0.0184301
0.0181386
0.0178539
0.0175736
0.0172947
0.0170186
0.0167375
0.016448
0.0160858
0.0964748
0.0768441
0.0636929
0.0543446
0.0474203
0.0421271
0.0379764
0.0346516
0.0319397
0.0296928
0.0278056
0.0262012
0.0248224
0.0236258
0.022578
0.0216531
0.0208305
0.0200939
0.0194304
0.0188295
0.0182829
0.0177839
0.0173272
0.0169085
0.0165243
0.0161719
0.0158487
0.0155524
0.0152808
0.0150318
0.0148031
0.0145926
0.0143978
0.0142165
0.0140451
0.0138904
0.0137566
0.0138638
0.0184103
0.0305657
0.0475844
0.0627914
0.0725618
0.0769827
0.0772642
0.0749308
0.0712149
0.0669505
0.0626341
0.0585223
0.0547109
0.0512241
0.0480794
0.0452748
0.0427856
0.0405778
0.0386152
0.0368632
0.0352909
0.0338717
0.0325835
0.0314079
0.0303314
0.0293423
0.0284348
0.027594
0.02681
0.026076
0.0253868
0.0247386
0.0241281
0.0235528
0.0230102
0.0224982
0.0220147
0.0215579
0.0211257
0.0207162
0.0203275
0.0199573
0.0196037
0.0192644
0.0189369
0.0186187
0.0183064
0.0179959
0.0176817
0.0173526
0.0170017
0.0165966
0.0964735
0.0768412
0.0636887
0.054339
0.0474131
0.0421183
0.0379657
0.0346387
0.0319243
0.0296745
0.0277839
0.0261756
0.0247923
0.0235905
0.022537
0.0216056
0.0207758
0.0200313
0.0193592
0.018749
0.0181925
0.0176831
0.0172156
0.0167861
0.0163914
0.0160288
0.015696
0.0153909
0.0151111
0.0148542
0.014618
0.0144
0.0141967
0.0140042
0.013812
0.0136202
0.0133924
0.0139002
0.0355531
0.0799757
0.122293
0.143795
0.144618
0.133569
0.118253
0.102986
0.0895776
0.0784621
0.0694843
0.0622979
0.0565445
0.0519085
0.0481366
0.0450255
0.0424188
0.0402011
0.0382932
0.0366486
0.0351947
0.0338819
0.0326808
0.0315727
0.0305447
0.0295873
0.028693
0.0278558
0.0270705
0.026333
0.0256397
0.0249875
0.0243737
0.0237958
0.0232515
0.0227387
0.0222552
0.021799
0.021368
0.0209599
0.0205726
0.0202036
0.0198506
0.019511
0.0191822
0.0188611
0.0185444
0.0182278
0.0179054
0.0175656
0.0171856
0.0167325
0.0964724
0.0768388
0.0636849
0.0543338
0.0474064
0.0421098
0.0379552
0.034626
0.0319089
0.0296559
0.0277617
0.0261492
0.024761
0.0235538
0.022494
0.0215555
0.0207178
0.0199646
0.0192827
0.0186618
0.0180938
0.0175721
0.017092
0.0166497
0.0162424
0.015868
0.0155244
0.0152096
0.0149211
0.0146566
0.0144143
0.0141932
0.0139916
0.013809
0.0136357
0.013472
0.0132662
0.013828
0.0378925
0.0877184
0.135022
0.156633
0.156358
0.143529
0.125948
0.108401
0.0929942
0.0802699
0.07007
0.0620045
0.0556487
0.0506347
0.0466591
0.0435211
0.0409882
0.0388765
0.0370694
0.0354897
0.0340845
0.0328174
0.0316626
0.0306017
0.0296211
0.0287107
0.0278626
0.0270707
0.0263298
0.0256357
0.0249849
0.0243741
0.0238007
0.0232621
0.0227558
0.0222795
0.0218307
0.0214073
0.0210068
0.0206266
0.0202644
0.0199174
0.019583
0.0192586
0.0189414
0.0186284
0.0183163
0.0180008
0.0176767
0.0173322
0.0169444
0.0164647
0.0964715
0.0768369
0.0636818
0.0543294
0.0474005
0.0421022
0.0379455
0.0346139
0.0318941
0.0296379
0.02774
0.0261232
0.02473
0.023517
0.0224506
0.0215045
0.0206581
0.019895
0.0192021
0.0185689
0.0179873
0.0174511
0.0169556
0.0164977
0.0160752
0.0156866
0.0153304
0.0150047
0.0147067
0.0144341
0.014186
0.0139645
0.0137734
0.0136228
0.0135134
0.0134591
0.0133741
0.013942
0.0370229
0.0861906
0.133946
0.1563
0.156491
0.144097
0.126878
0.109628
0.0944208
0.0817792
0.0715453
0.0633306
0.0567395
0.0514582
0.0472625
0.0438444
0.0410042
0.0386049
0.0365488
0.0347641
0.0331975
0.0318082
0.0305654
0.0294451
0.0284288
0.0275017
0.0266523
0.0258712
0.0251505
0.0244841
0.0238663
0.0232926
0.0227587
0.0222611
0.021796
0.0213603
0.0209506
0.0205636
0.0201963
0.0198454
0.0195078
0.0191806
0.0188607
0.0185454
0.0182322
0.0179182
0.0176009
0.0172765
0.0169406
0.0165816
0.0161787
0.0156767
0.096471
0.0768355
0.0636795
0.0543259
0.0473955
0.0420954
0.0379368
0.0346028
0.0318802
0.0296208
0.0277191
0.0260978
0.0246995
0.0234804
0.0224069
0.0214527
0.0205969
0.0198229
0.0191174
0.0184701
0.0178727
0.0173192
0.0168054
0.0163286
0.0158877
0.0154823
0.0151119
0.0147746
0.0144668
0.014186
0.0139327
0.0137153
0.0135499
0.013474
0.0135238
0.0137677
0.0139903
0.014588
0.0342888
0.0775615
0.121303
0.143919
0.14601
0.135804
0.121122
0.106429
0.0934236
0.0824452
0.0732996
0.0656676
0.0592554
0.053886
0.0493764
0.0455322
0.0422267
0.0393689
0.0368887
0.0347286
0.0328404
0.0311832
0.0297225
0.0284292
0.0272791
0.026252
0.0253309
0.0245017
0.0237525
0.0230734
0.0224556
0.0218916
0.0213749
0.0208994
0.0204596
0.0200505
0.0196671
0.019305
0.0189596
0.018627
0.0183031
0.0179846
0.0176681
0.0173508
0.0170301
0.0167035
0.0163685
0.0160216
0.0156592
0.0152685
0.0148361
0.0143418
0.0964707
0.0768347
0.0636778
0.0543232
0.0473914
0.0420897
0.0379291
0.0345928
0.0318675
0.0296049
0.0276993
0.0260736
0.02467
0.0234448
0.022364
0.0214011
0.0205352
0.0197492
0.0190298
0.0183663
0.0177505
0.0171763
0.01664
0.0161398
0.015676
0.0152501
0.0148637
0.0145151
0.0141993
0.0139132
0.0136606
0.0134623
0.0133622
0.0134657
0.0139224
0.014954
0.0158241
0.0163293
0.0173004
0.021176
0.0289531
0.0381171
0.0465454
0.0536622
0.0588075
0.0618102
0.0628595
0.0622914
0.0604862
0.0578201
0.0546338
0.0512146
0.0478161
0.0445567
0.0415116
0.0387205
0.036197
0.033937
0.0319249
0.0301395
0.0285571
0.0271542
0.0259088
0.0248014
0.0238145
0.0229331
0.0221439
0.0214356
0.0207981
0.0202224
0.0197003
0.0192245
0.0187879
0.0183838
0.0180059
0.0176482
0.0173051
0.0169713
0.016642
0.0163128