/*--------------------------------*- C++ -*----------------------------------*\
| =========                 |                                                 |
| \\      /  F ield         | OpenFOAM: The Open Source CFD Toolbox           |
|  \\    /   O peration     | Version:  v2012                                 |
|   \\  /    A nd           | Website:  www.openfoam.com                      |
|    \\/     M anipulation  |                                                 |
\*---------------------------------------------------------------------------*/
FoamFile
{
    version     2.0;
    format      ascii;
    class       volScalarField;
    location    "500/air";
    object      GLeaf;
}
// * * * * * * * * * * * * * * * * * * * * * * * * * * * * * * * * * * * * * //

dimensions      [1 0 -3 0 0 0 0];


internalField   nonuniform List<scalar> 
287104
(
766.873
794.766
797.35
798.82
800.325
801.558
802.441
803.008
803.312
803.401
803.313
803.08
802.725
802.27
801.729
801.116
800.441
799.713
798.938
798.125
797.277
796.401
795.499
794.576
793.635
792.677
791.707
790.726
789.737
788.74
787.739
786.733
785.725
784.714
783.693
782.667
781.656
780.67
779.68
778.677
777.672
776.659
775.665
774.706
773.741
772.77
771.81
770.857
769.913
768.977
768.051
767.136
766.23
765.335
764.451
763.577
762.714
761.861
761.018
760.185
759.362
758.547
757.743
756.948
756.163
755.39
754.63
753.885
753.157
752.448
751.757
751.082
750.422
749.772
749.128
748.488
747.855
747.232
746.626
746.04
745.474
744.921
744.366
743.777
743.097
742.29
741.551
741.864
744.638
733.576
778.25
809.071
811.513
812.682
813.904
814.853
815.466
815.78
815.838
815.678
815.336
814.843
814.228
813.511
812.711
811.84
810.909
809.928
808.903
807.841
806.748
805.629
804.488
803.328
802.152
800.963
799.762
798.553
797.338
796.118
794.895
793.671
792.447
791.22
789.974
788.709
787.478
786.312
785.138
783.925
782.707
781.462
780.251
779.127
777.984
776.813
775.659
774.514
773.38
772.257
771.146
770.047
768.961
767.888
766.826
765.777
764.741
763.717
762.705
761.705
760.716
759.738
758.771
757.814
756.87
755.94
755.027
754.131
753.253
752.391
751.542
750.703
749.872
749.048
748.236
747.441
746.671
745.935
745.238
744.58
743.952
743.338
742.724
742.092
741.401
740.611
739.901
740.437
744.209
733.774
765.852
795.874
797.948
798.856
799.88
800.657
801.115
801.291
801.224
800.95
800.499
799.905
799.194
798.387
797.5
796.547
795.539
794.483
793.388
792.259
791.101
789.92
788.72
787.505
786.275
785.034
783.783
782.524
781.259
779.992
778.722
777.453
776.187
774.917
773.623
772.297
771.014
769.83
768.635
767.382
766.122
764.821
763.56
762.426
761.267
760.059
758.875
757.699
756.536
755.386
754.249
753.126
752.015
750.918
749.833
748.762
747.705
746.662
745.632
744.615
743.61
742.617
741.636
740.667
739.713
738.775
737.854
736.951
736.061
735.183
734.311
733.445
732.587
731.743
730.924
730.139
729.4
728.711
728.074
727.48
726.912
726.346
725.765
725.162
724.511
723.748
723.013
723.56
727.698
718.198
753.612
782.832
784.726
785.503
786.412
787.088
787.458
787.559
787.429
787.099
786.599
785.963
785.215
784.374
783.456
782.474
781.439
780.36
779.242
778.092
776.916
775.718
774.503
773.273
772.031
770.779
769.517
768.247
766.971
765.691
764.409
763.128
761.851
760.571
759.261
757.909
756.6
755.42
754.23
752.964
751.69
750.364
749.076
747.951
746.799
745.578
744.384
743.2
742.029
740.872
739.728
738.598
737.479
736.373
735.28
734.202
733.138
732.088
731.052
730.028
729.016
728.016
727.029
726.055
725.097
724.155
723.228
722.312
721.403
720.496
719.592
718.695
717.814
716.961
716.148
715.385
714.678
714.029
713.434
712.881
712.35
711.807
711.227
710.595
709.889
709.051
708.213
708.655
712.826
703.794
742.26
770.862
772.67
773.379
774.212
774.817
775.127
775.18
775.012
774.65
774.123
773.469
772.706
771.853
770.924
769.93
768.884
767.795
766.669
765.514
764.333
763.131
761.913
760.681
759.439
758.188
756.93
755.664
754.391
753.114
751.833
750.553
749.276
747.999
746.696
745.345
744.029
742.849
741.667
740.406
739.14
737.82
736.528
735.41
734.272
733.058
731.873
730.699
729.54
728.395
727.263
726.144
725.035
723.94
722.858
721.793
720.742
719.706
718.684
717.673
716.675
715.69
714.719
713.764
712.824
711.897
710.978
710.062
709.144
708.226
707.317
706.427
705.574
704.77
704.023
703.334
702.703
702.126
701.594
701.098
700.613
700.1
699.516
698.832
698.03
697.099
696.21
696.597
700.644
691.679
731.36
759.443
761.199
761.86
762.636
763.184
763.449
763.473
763.288
762.915
762.391
761.735
760.973
760.119
759.185
758.186
757.135
756.042
754.915
753.759
752.579
751.379
750.163
748.933
747.694
746.448
745.198
743.943
742.683
741.417
740.145
738.872
737.6
736.333
735.053
733.737
732.431
731.23
730.041
728.796
727.556
726.283
725.017
723.884
722.755
721.569
720.41
719.266
718.14
717.028
715.93
714.844
713.773
712.717
711.68
710.66
709.659
708.673
707.703
706.749
705.811
704.89
703.989
703.106
702.238
701.379
700.522
699.664
698.807
697.963
697.148
696.383
695.684
695.063
694.518
694.041
693.62
693.244
692.904
692.589
692.272
691.915
691.469
690.895
690.184
689.376
688.688
689.229
693.042
683.429
720.704
748.308
750.021
750.638
751.353
751.835
752.041
752.029
751.836
751.47
750.995
750.346
749.589
748.736
747.802
746.8
745.748
744.655
743.53
742.378
741.202
740.007
738.796
737.571
736.335
735.094
733.853
732.614
731.375
730.132
728.883
727.629
726.373
725.127
723.902
722.68
721.431
720.188
718.98
717.785
716.616
715.472
714.308
713.171
712.095
711.041
710.015
709.02
708.051
707.103
706.175
705.268
704.385
703.528
702.697
701.89
701.104
700.338
699.594
698.872
698.173
697.5
696.85
696.22
695.603
694.994
694.39
693.796
693.226
692.699
692.241
691.87
691.601
691.437
691.371
691.389
691.47
691.595
691.746
691.906
692.032
692.11
692.093
691.943
691.654
691.264
690.964
691.622
694.455
682.215
710.208
737.346
739.024
739.603
740.259
740.659
740.771
740.673
740.417
740.018
739.574
738.891
738.113
737.261
736.337
735.352
734.32
733.249
732.147
731.018
729.866
728.693
727.502
726.293
725.069
723.839
722.612
721.395
720.189
718.989
717.788
716.581
715.391
714.239
713.181
712.225
711.206
710.024
708.913
707.967
707.091
706.359
705.591
704.605
703.741
703.032
702.335
701.678
701.051
700.453
699.897
699.39
698.937
698.536
698.183
697.874
697.605
697.379
697.197
697.061
696.972
696.927
696.919
696.942
696.987
697.054
697.147
697.283
697.483
697.768
698.155
698.654
699.264
699.978
700.786
701.673
702.617
703.59
704.558
705.49
706.318
707.05
707.64
708.073
708.361
708.545
708.785
709.767
711.769
694.48
699.847
726.524
728.173
728.73
729.345
729.677
729.682
729.436
728.983
728.315
727.287
726.262
725.321
724.43
723.519
722.57
721.586
720.568
719.517
718.436
717.327
716.193
715.034
713.852
712.681
711.535
710.423
709.357
708.346
707.384
706.461
705.563
704.679
703.839
703.17
702.744
702.205
701.216
700.317
699.801
699.392
699.295
699.15
698.407
697.874
697.723
697.565
697.464
697.405
697.39
697.419
697.502
697.64
697.825
698.045
698.294
698.572
698.883
699.229
699.609
700.019
700.45
700.893
701.339
701.787
702.245
702.73
703.266
703.874
704.568
705.35
706.214
707.146
708.135
709.17
710.242
711.336
712.425
713.481
714.488
715.462
716.247
716.777
717.078
717.243
717.371
717.622
718.562
719.935
699.751
689.624
715.839
717.461
718.003
718.602
718.905
718.847
718.467
717.691
716.046
709.902
706.349
704.085
702.51
701.242
700.125
699.081
698.062
697.037
695.99
694.91
693.795
692.642
691.449
690.266
689.09
687.927
686.796
685.715
684.696
683.735
682.813
681.85
680.853
680.046
679.604
678.939
677.358
675.854
675.029
674.349
674.207
674.04
672.743
671.753
671.453
671.094
670.788
670.519
670.302
670.161
670.108
670.136
670.23
670.376
670.571
670.82
671.127
671.495
671.917
672.384
672.883
673.406
673.952
674.531
675.163
675.872
676.677
677.589
678.605
679.713
680.893
682.129
683.407
684.72
686.057
687.405
688.75
690.106
691.647
694.651
697.25
699.213
700.605
701.646
702.601
703.762
705.736
708.125
688.87
679.545
705.3
706.891
707.416
708.003
708.312
708.285
707.938
706.832
701.461
649.978
633.213
626.876
624.049
622.334
620.926
619.537
618.076
616.532
614.926
613.29
611.658
610.06
608.517
607.04
605.634
604.302
603.051
601.896
600.843
599.879
598.967
598.068
597.197
596.626
596.631
596.36
594.632
592.898
592.129
591.445
591.455
591.404
589.462
587.815
587.158
586.319
585.483
584.645
583.84
583.1
582.431
581.814
581.231
580.673
580.151
579.677
579.26
578.902
578.597
578.337
578.121
577.954
577.855
577.849
577.964
578.219
578.621
579.16
579.819
580.579
581.423
582.34
583.323
584.361
585.439
586.526
587.591
588.715
592.272
612.967
629.48
641.631
650.458
656.998
662.199
666.953
672.405
678.66
664.783
669.614
694.914
696.475
696.98
697.549
697.854
697.839
697.514
696.373
690.586
636.783
619.422
613.152
610.601
609.212
608.117
607.005
605.776
604.418
602.956
601.425
599.864
598.31
596.794
595.339
593.952
592.627
591.36
590.165
589.064
588.073
587.172
586.285
585.41
584.914
585.241
585.265
583.196
581.048
580.304
579.651
579.978
580.341
577.957
575.881
575.219
574.258
573.265
572.241
571.23
570.246
569.268
568.261
567.2
566.086
564.931
563.743
562.522
561.27
559.981
558.659
557.32
555.995
554.727
553.555
552.51
551.607
550.85
550.231
549.746
549.396
549.188
549.131
549.229
549.473
549.845
550.314
550.851
551.519
553.64
569.773
583.703
594.807
603.646
610.893
617.257
623.648
631.675
642.505
636.925
659.834
684.686
686.222
686.708
687.259
687.549
687.525
687.195
686.05
680.278
627.142
609.962
603.774
601.271
599.919
598.861
597.789
596.604
595.292
593.879
592.399
590.89
589.392
587.945
586.583
585.318
584.132
582.991
581.881
580.82
579.854
579.004
578.204
577.441
577.153
577.96
578.486
576.226
573.781
573.235
572.787
573.637
574.726
572.168
569.933
569.64
569.001
568.383
567.804
567.297
566.844
566.401
565.932
565.433
564.919
564.398
563.865
563.301
562.687
562.021
561.316
560.596
559.888
559.217
558.591
558.002
557.425
556.833
556.2
555.515
554.772
553.972
553.113
552.185
551.171
550.054
548.816
547.456
546.073
545.84
557.409
566.592
573.328
578.471
582.75
586.739
591.238
598.152
609.533
608.395
650.203
674.615
676.131
676.603
677.137
677.415
677.382
677.049
675.918
670.236
618.036
601.147
595.057
592.586
591.246
590.2
589.142
587.974
586.683
585.292
583.834
582.344
580.859
579.428
578.102
576.915
575.844
574.818
573.772
572.688
571.626
570.67
569.803
569.019
568.809
569.969
570.906
568.346
565.436
564.928
564.504
565.671
567.332
564.4
561.731
561.538
560.955
560.457
560.054
559.732
559.427
559.083
558.737
558.415
558.138
557.9
557.671
557.428
557.173
556.928
556.728
556.608
556.591
556.682
556.866
557.115
557.398
557.689
557.977
558.257
558.525
558.77
558.972
559.103
559.135
559.046
558.823
558.484
558.211
559.816
574.172
584.746
592.008
597.166
601.07
604.261
607.432
612.206
619.95
612.038
640.714
664.697
666.199
666.665
667.191
667.458
667.416
667.076
665.953
660.358
609.041
592.434
586.437
583.998
582.673
581.64
580.597
579.447
578.177
576.81
575.375
573.904
572.43
571.004
569.7
568.582
567.649
566.804
565.907
564.859
563.695
562.557
561.522
560.635
560.437
561.884
563.218
560.38
556.979
556.459
556.004
557.393
559.584
556.275
553.104
552.937
552.385
552.003
551.742
551.5
551.158
550.693
550.179
549.707
549.309
548.951
548.586
548.199
547.817
547.499
547.274
547.158
547.144
547.206
547.309
547.426
547.54
547.65
547.758
547.861
547.952
548.011
548.015
547.945
547.795
547.575
547.306
547.037
546.976
548.907
563.4
574.409
582.388
588.44
593.302
597.497
601.824
607.845
616.073
607.099
631.361
654.918
656.414
656.886
657.418
657.691
657.647
657.298
656.172
650.647
600.144
583.796
577.888
575.484
574.182
573.17
572.151
571.026
569.782
568.443
567.038
565.592
564.131
562.703
561.396
560.317
559.513
558.89
558.239
557.334
556.124
554.768
553.461
552.361
552.083
553.724
555.425
552.37
548.497
547.933
547.421
548.941
551.606
547.975
544.318
544.185
543.741
543.563
543.474
543.245
542.74
542.03
541.304
540.697
540.215
539.783
539.345
538.901
538.493
538.164
537.928
537.772
537.658
537.545
537.402
537.215
536.982
536.706
536.383
535.991
535.5
534.876
534.094
533.151
532.063
530.867
529.611
528.362
527.265
527.419
538.549
547.139
553.22
557.524
560.641
563.17
566.052
571.055
579.943
577.317
622.139
645.273
646.763
647.247
647.8
648.104
648.087
647.748
646.62
641.15
591.39
575.286
569.463
567.096
565.82
564.834
563.841
562.743
561.527
560.216
558.839
557.421
555.976
554.54
553.203
552.114
551.387
550.975
550.634
549.999
548.856
547.307
545.647
544.199
543.698
545.393
547.392
544.185
539.876
539.229
538.633
540.182
543.227
539.347
535.272
535.228
535.019
535.137
535.207
534.875
534.064
533.014
532.041
531.3
530.746
530.265
529.799
529.364
529.002
528.728
528.52
528.332
528.118
527.85
527.523
527.144
526.719
526.24
525.684
525.014
524.194
523.205
522.052
520.766
519.402
518.032
516.739
515.612
514.811
515.416
527.068
536.526
543.623
548.99
553.259
557.106
561.411
567.838
578.292
576.58
613.058
635.767
637.245
637.733
638.311
638.664
638.714
638.439
637.363
631.981
582.945
567.096
561.366
559.029
557.765
556.786
555.799
554.707
553.497
552.192
550.825
549.417
547.977
546.523
545.132
543.971
543.23
542.955
542.924
542.663
541.744
540.115
538.098
536.192
535.31
536.893
539.109
535.831
531.167
530.433
529.758
531.26
534.606
530.6
526.27
526.464
526.676
527.188
527.38
526.84
525.655
524.287
523.172
522.438
521.97
521.615
521.313
521.077
520.92
520.821
520.73
520.605
520.426
520.199
519.941
519.66
519.348
518.972
518.493
517.88
517.122
516.235
515.261
514.261
513.309
512.483
511.859
511.513
511.585
513.221
526.815
538.122
546.823
553.6
559.189
564.215
569.263
575.583
584.45
578.679
604.126
626.414
627.872
628.352
628.935
629.327
629.46
629.31
628.408
623.305
575.354
559.895
554.288
551.952
550.651
549.622
548.58
547.431
546.164
544.807
543.396
541.961
540.507
539.034
537.59
536.334
535.509
535.277
535.511
535.695
535.197
533.714
531.479
529.113
527.738
529.053
531.404
528.142
523.227
522.415
521.651
523.007
526.543
522.511
518.085
518.652
519.387
520.252
520.409
519.505
517.903
516.313
515.226
514.69
514.495
514.445
514.461
514.531
514.638
514.742
514.809
514.829
514.819
514.802
514.78
514.733
514.621
514.396
514.029
513.519
512.894
512.209
511.53
510.928
510.466
510.195
510.149
510.392
511.219
514.421
530.872
543.994
553.848
561.439
567.614
572.874
577.57
582.652
588.745
578.5
595.344
617.216
618.655
619.117
619.684
620.081
620.261
620.23
619.62
615.356
571.315
556.918
551.429
548.902
547.357
546.115
544.927
543.716
542.479
541.238
540.023
538.846
537.695
536.529
535.34
534.238
533.476
533.325
533.818
534.506
534.623
533.582
531.4
528.694
526.774
527.667
530.029
526.794
521.652
520.674
519.662
520.601
524.026
519.812
515.172
515.911
516.842
517.557
517.114
515.4
513.145
511.269
510.232
509.939
510.065
510.359
510.832
511.38
511.938
512.465
512.952
513.415
513.873
514.32
514.721
515.024
515.18
515.168
515
514.722
514.402
514.114
513.928
513.9
514.062
514.425
514.972
515.673
516.627
519.615
536.556
549.928
559.836
567.323
573.153
577.732
581.421
585.109
589.16
576.622
586.691
608.154
609.577
610.025
610.572
610.942
611.085
611.025
610.719
609.772
605.712
603.664
602.612
601.874
601.225
600.578
599.892
599.15
598.347
597.487
596.58
595.629
594.619
593.506
592.25
590.921
589.777
589.197
589.426
590.19
590.683
590.032
587.925
584.831
582.203
582.52
584.859
581.62
576.257
575.259
574.162
574.897
578.557
574.369
569.695
570.867
572.101
572.602
571.475
569.003
566.321
564.471
563.756
563.855
564.299
564.793
565.236
565.624
565.978
566.328
566.707
567.126
567.568
567.983
568.301
568.473
568.483
568.357
568.154
567.948
567.812
567.806
567.971
568.324
568.854
569.528
570.292
571.085
571.877
572.8
574.889
576.866
578.623
580.203
581.567
582.644
583.549
584.907
586.871
572.747
578.132
599.187
600.598
601.035
601.568
601.92
602.039
601.957
601.698
601.239
600.55
599.816
599.089
598.331
597.533
596.701
595.84
594.953
594.044
593.118
592.182
591.245
590.294
589.283
588.14
586.858
585.618
584.81
584.842
585.688
586.664
586.745
585.268
582.376
579.431
579.219
581.393
578.226
572.867
571.895
570.706
571.159
574.981
571.158
566.859
568.509
569.816
569.804
567.902
564.903
562.218
560.766
560.527
560.934
561.45
561.834
562.076
562.255
562.441
562.678
562.969
563.272
563.52
563.646
563.604
563.399
563.076
562.712
562.388
562.172
562.114
562.237
562.541
563.005
563.586
564.233
564.893
565.53
566.13
566.727
567.38
568.046
568.698
569.29
569.744
570.033
570.276
571.052
572.759
559.83
569.632
590.281
591.678
592.103
592.622
592.964
593.078
592.998
592.755
592.377
591.981
591.406
590.73
589.983
589.182
588.341
587.469
586.572
585.655
584.722
583.78
582.841
581.907
580.948
579.884
578.646
577.305
576.185
575.783
576.334
577.411
578.003
577.178
574.682
571.602
570.862
572.701
569.474
564.02
562.977
561.576
561.596
565.469
561.917
557.741
559.34
560.048
558.963
556.031
552.501
549.811
548.528
548.256
548.302
548.208
547.896
547.485
547.103
546.806
546.573
546.338
546.011
545.526
544.861
544.039
543.131
542.224
541.401
540.721
540.216
539.894
539.739
539.72
539.795
539.915
540.04
540.142
540.215
540.264
540.304
540.318
540.35
540.386
540.392
540.345
540.251
540.191
540.79
543.056
534.16
561.17
581.412
582.798
583.21
583.716
584.046
584.154
584.07
583.827
583.45
583.004
582.432
581.772
581.045
580.267
579.448
578.595
577.714
576.81
575.888
574.952
574.017
573.103
572.211
571.284
570.219
568.975
567.729
566.952
567.067
567.964
568.815
568.566
566.598
563.637
562.549
564.052
560.753
555.55
554.464
552.919
552.618
556.351
553.303
549.396
550.961
551.194
549.492
546.34
543.223
541.306
540.64
540.54
540.367
539.927
539.354
538.833
538.439
538.124
537.783
537.316
536.662
535.826
534.872
533.885
532.958
532.166
531.55
531.12
530.863
530.747
530.735
530.782
530.849
530.902
530.925
530.914
530.875
530.809
530.712
530.565
530.386
530.184
529.977
529.781
529.576
529.413
530.048
532.827
524.728
552.755
572.591
573.965
574.366
574.859
575.179
575.28
575.192
574.946
574.567
574.087
573.512
572.862
572.154
571.4
570.606
569.778
568.92
568.038
567.132
566.205
565.269
564.357
563.506
562.716
561.903
560.946
559.844
558.91
558.616
559.134
559.926
559.973
558.403
555.612
554.317
555.566
552.207
546.183
545.005
543.339
542.813
547.514
545.123
541.594
543.292
543.47
541.864
539.327
537.268
536.357
536.241
536.249
536.073
535.822
535.714
535.819
536.038
536.203
536.176
535.916
535.449
534.867
534.281
533.772
533.398
533.179
533.102
533.141
533.259
533.418
533.582
533.723
533.823
533.874
533.881
533.847
533.77
533.637
533.44
533.184
532.9
532.633
532.423
532.255
532.033
531.777
532.31
534.78
524.88
544.441
563.875
565.238
565.629
566.11
566.421
566.516
566.425
566.178
565.799
565.31
564.736
564.094
563.4
562.662
561.889
561.084
560.25
559.39
558.505
557.591
556.653
555.722
554.865
554.149
553.57
553.006
552.307
551.556
551.098
551.256
551.809
551.884
550.445
547.643
546.118
547.254
544.078
542.648
541.52
539.775
539.03
539.527
537.997
535.307
537.882
538.937
538.39
537.21
536.515
536.466
536.622
536.634
536.59
536.739
537.154
537.681
538.085
538.202
538.001
537.574
537.042
536.53
536.133
535.878
535.764
535.767
535.85
535.977
536.116
536.241
536.336
536.39
536.404
536.381
536.325
536.227
536.074
535.858
535.593
535.32
535.092
534.954
534.906
534.859
534.666
534.388
534.887
536.974
525.23
536.358
555.398
556.751
557.131
557.6
557.903
557.994
557.901
557.655
557.279
556.792
556.222
555.587
554.901
554.176
553.419
552.634
551.823
550.989
550.131
549.243
548.317
547.369
546.465
545.724
545.245
544.997
544.792
544.504
544.228
544.258
544.626
544.68
543.266
540.264
538.306
539.353
536.35
520.295
518.855
516.662
515.632
531.093
530.558
528.63
532.14
533.939
534.051
533.468
533.06
532.846
532.567
532.306
532.342
532.775
533.412
533.939
534.152
534.028
533.681
533.282
532.954
532.762
532.727
532.813
532.981
533.193
533.417
533.63
533.815
533.962
534.069
534.137
534.172
534.171
534.13
534.037
533.886
533.697
533.516
533.401
533.391
533.477
533.58
533.556
533.294
532.981
533.474
535.256
522.425
528.738
547.403
548.746
549.113
549.569
549.862
549.947
549.851
549.605
549.231
548.749
548.185
547.556
546.879
546.164
545.421
544.654
543.866
543.058
542.231
541.378
540.484
539.54
538.584
537.735
537.165
536.983
537.085
537.277
537.408
537.585
537.979
538.212
537.108
534.103
531.552
532.424
531.088
564.567
561.203
556.123
552.403
518.955
518.74
517.993
522.818
525.317
525.886
525.661
525.411
525.188
525.022
525.141
525.681
526.472
527.174
527.547
527.577
527.405
527.21
527.129
527.201
527.406
527.711
528.063
528.426
528.777
529.099
529.386
529.632
529.838
530.005
530.135
530.226
530.267
530.251
530.178
530.075
529.989
529.976
530.075
530.273
530.494
530.61
530.5
530.161
529.871
530.397
531.906
518.389
521.91
540.238
541.573
541.927
542.369
542.651
542.725
542.622
542.368
541.989
541.505
540.939
540.31
539.636
538.928
538.196
537.448
536.684
535.907
535.117
534.31
533.47
532.571
531.606
530.644
529.861
529.46
529.489
529.856
530.304
530.715
531.256
531.867
531.606
529.473
526.988
528.284
525.273
478.595
471.099
466.93
467.073
507.257
511.125
511.721
517.242
519.527
519.96
519.872
519.867
519.948
520.183
520.687
521.376
521.988
522.312
522.34
522.237
522.18
522.27
522.537
522.927
523.376
523.842
524.288
524.7
525.07
525.397
525.679
525.917
526.114
526.271
526.384
526.447
526.456
526.421
526.367
526.339
526.386
526.537
526.778
527.047
527.236
527.232
526.991
526.617
526.424
527.05
528.389
514.362
516.243
534.297
535.63
535.981
536.419
536.699
536.772
536.666
536.409
536.021
535.527
534.947
534.302
533.61
532.887
532.144
531.392
530.636
529.878
529.118
528.355
527.578
526.754
525.844
524.852
523.887
523.163
522.822
522.961
523.405
523.904
524.525
525.434
526.214
525.757
524.313
525.89
515.928
251.21
245.745
247.563
256.479
503.625
512.834
512.398
515.964
516.186
515.767
515.74
516.137
516.655
517.196
517.739
518.187
518.437
518.506
518.528
518.652
518.947
519.381
519.908
520.452
520.962
521.423
521.828
522.178
522.475
522.722
522.924
523.085
523.209
523.294
523.337
523.339
523.313
523.287
523.298
523.381
523.551
523.793
524.053
524.253
524.309
524.171
523.867
523.544
523.477
524.186
525.42
511.032
512.041
529.891
531.233
531.596
532.055
532.363
532.472
532.405
532.186
531.831
531.36
530.79
530.14
529.426
528.666
527.876
527.071
526.264
525.465
524.678
523.903
523.135
522.35
521.499
520.541
519.514
518.577
517.872
517.636
517.857
518.306
518.961
520.026
521.608
522.918
523.021
525.754
510.87
68.0375
65.0512
72.457
88.7935
505.794
517.943
514.504
514.895
512.897
511.98
512.155
512.678
513.084
513.37
513.639
513.931
514.273
514.711
515.291
516.015
516.829
517.624
518.355
518.98
519.485
519.885
520.196
520.431
520.606
520.733
520.826
520.893
520.938
520.961
520.964
520.962
520.978
521.041
521.172
521.375
521.625
521.874
522.067
522.151
522.092
521.898
521.632
521.42
521.472
522.258
523.47
508.826
509.419
527.136
528.483
528.861
529.351
529.71
529.89
529.914
529.802
529.564
529.21
528.749
528.188
527.536
526.804
526.003
525.151
524.269
523.376
522.487
521.608
520.741
519.873
518.965
517.967
516.884
515.842
514.922
514.419
514.436
514.833
515.604
516.893
519.057
521.718
522.934
526.809
510.486
-3.32987
-4.92971
5.81222
25.9874
512.569
524.068
516.97
514.726
511.286
509.97
509.652
509.362
508.943
508.721
508.942
509.634
510.683
511.938
513.263
514.566
515.753
516.732
517.497
518.064
518.454
518.707
518.86
518.946
518.991
519.017
519.042
519.072
519.11
519.155
519.216
519.309
519.455
519.663
519.924
520.209
520.475
520.68
520.793
520.804
520.72
520.571
520.411
520.316
520.452
521.332
522.673
507.987
508.246
525.884
527.217
527.583
528.069
528.443
528.661
528.754
528.742
528.639
528.45
528.177
527.815
527.36
526.806
526.153
525.406
524.581
523.702
522.789
521.857
520.909
519.938
518.913
517.789
516.554
515.28
514.13
513.37
513.155
513.474
514.335
516.704
519.628
523.76
525.823
530.638
511.923
-24.4341
-31.4226
-20.1101
4.31338
526.572
536.984
525.708
520.715
514.937
511.639
509.309
507.392
506.106
505.792
506.467
507.844
509.544
511.26
512.818
514.169
514.664
515.487
516.051
516.415
516.627
516.744
516.811
516.861
516.917
516.993
517.098
517.232
517.395
517.586
517.809
518.074
518.381
518.721
519.066
519.376
519.614
519.762
519.821
519.815
519.772
519.719
519.674
519.653
519.826
520.88
522.671
508.301
508.149
525.756
527.061
527.383
527.816
528.128
528.286
528.325
528.278
528.169
528.012
527.814
527.574
527.283
526.928
526.498
525.983
525.386
524.721
524.01
523.27
522.505
521.705
520.828
519.811
518.598
517.439
516.051
514.908
514.21
513.797
514.224
516.464
519.879
525.815
529.804
538.574
521.327
-12.7667
-24.6386
-18.1389
5.03205
540.311
552.808
537.552
530.198
521.532
515.754
511.573
508.726
507.243
507.025
507.71
508.832
510.01
511.034
511.856
512.527
512.429
512.793
513.018
513.168
513.282
513.396
513.536
513.707
513.91
514.142
514.403
514.693
515.015
515.371
515.752
516.142
516.523
516.878
517.198
517.47
517.675
517.823
517.915
517.95
517.944
517.934
517.972
518.109
518.553
520.02
522.591
509.097
508.618
526.242
527.529
527.82
528.199
528.434
528.486
528.395
528.197
527.924
527.603
527.253
526.888
526.51
526.117
525.7
525.248
524.758
524.237
523.707
523.196
522.729
522.306
521.885
521.368
520.593
518.818
517.545
516.278
515.234
515.18
514.758
515.84
517.998
523.956
531.254
555.252
540.05
-18.9979
-36.6331
-31.9249
-4.81064
563.527
579.417
548.927
536.19
524.364
517.091
512.466
509.746
508.368
507.849
507.778
507.856
507.928
507.984
508.051
508.204
507.792
508.021
508.252
508.517
508.812
509.137
509.473
509.809
510.145
510.485
510.827
511.167
511.506
511.854
512.221
512.598
512.95
513.225
513.386
513.434
513.416
513.382
513.378
513.378
513.342
513.212
512.961
512.612
512.282
512.929
515.198
503.225
509.176
526.836
528.132
528.43
528.81
529.032
529.053
528.905
528.62
528.229
527.758
527.23
526.666
526.078
525.474
524.854
524.215
523.551
522.864
522.175
521.526
520.976
520.577
520.332
520.156
519.87
522.719
521.796
520.639
519.532
515.22
514.469
514.549
514.179
516.189
523.351
587.895
574.077
56.8931
35.5513
38.8009
67.725
605.428
623.876
551.414
532.836
518.54
509.843
504.629
501.865
500.589
500.123
500.047
500.149
500.337
500.587
500.89
501.28
501.107
501.536
501.971
502.442
502.93
503.44
503.943
504.406
504.816
505.185
505.522
505.849
506.164
506.44
506.633
506.719
506.7
506.615
506.49
506.333
506.126
505.875
505.616
505.431
505.382
505.488
505.695
506.037
506.935
509.248
513.291
503.092
509.526
527.206
528.512
528.828
529.235
529.49
529.549
529.439
529.19
528.825
528.366
527.832
527.241
526.603
525.927
525.215
524.462
523.659
522.798
521.881
520.941
520.053
519.326
518.841
518.548
518.028
505.65
504.24
502.623
501.236
511.617
510.491
509.537
507.083
501.96
474.07
493.539
516.771
512.039
507.397
503.603
500.24
498.146
497.33
497.434
498.18
499.417
501.2
503.345
505.705
507.397
509.693
511.679
513.35
514.714
515.815
516.684
517.382
517.942
518.39
518.763
519.063
519.276
519.391
519.4
519.304
519.119
518.874
518.606
518.352
518.146
518.019
517.993
518.082
518.276
518.544
518.853
519.243
519.959
521.678
524.319
511.079
509.585
527.256
528.558
528.87
529.28
529.544
529.619
529.534
529.317
528.991
528.577
528.093
527.553
526.966
526.34
525.676
524.968
524.205
523.369
522.446
521.435
520.383
519.398
518.599
518.052
518.841
556.02
553.987
550.523
546.973
508.324
506.805
506.845
506.502
505.007
475.34
500.793
532.896
529.216
524.402
520.951
518.784
517.845
517.927
518.772
520.109
521.704
523.544
524.834
525.854
525.995
526.602
526.993
527.221
527.31
527.341
527.315
527.267
527.227
527.208
527.195
527.156
527.062
526.898
526.663
526.364
526.024
525.671
525.338
525.052
524.838
524.709
524.668
524.697
524.757
524.798
524.798
524.828
525.103
526.144
527.705
512.99
509.417
527.068
528.359
528.657
529.05
529.297
529.355
529.253
529.021
528.682
528.258
527.767
527.225
526.641
526.02
525.365
524.669
523.923
523.108
522.198
521.17
520.031
518.87
517.789
516.876
515.772
475.318
468.467
465.023
465.444
500.575
502.547
504.301
506.018
506.959
477.195
504.49
539.841
537.746
533.874
531.112
529.343
528.321
527.921
528.025
528.447
529.065
529.756
530.232
530.578
530.154
530.194
530.091
529.901
529.637
529.405
529.175
528.977
528.832
528.727
528.623
528.485
528.293
528.044
527.747
527.419
527.091
526.796
526.559
526.391
526.301
526.284
526.32
526.371
526.388
526.336
526.232
526.154
526.252
526.936
527.941
512.735
509.142
526.781
528.066
528.357
528.738
528.97
529.011
528.891
528.64
528.285
527.847
527.348
526.801
526.218
525.604
524.958
524.273
523.539
522.734
521.83
520.796
519.629
518.402
517.144
515.131
506.393
246.944
239.6
241.183
250.632
496.023
503.647
506.24
508.563
510.176
479.546
506.724
543.173
541.542
537.722
534.683
532.554
531.122
530.266
529.913
529.918
530.163
530.461
530.673
530.813
530.239
530.1
529.849
529.539
529.171
528.889
528.626
528.41
528.25
528.121
527.983
527.808
527.59
527.342
527.085
526.842
526.637
526.488
526.403
526.383
526.416
526.481
526.545
526.569
526.519
526.394
526.237
526.104
526.07
526.518
527.294
512.038
508.874
526.509
527.799
528.092
528.472
528.7
528.731
528.597
528.329
527.955
527.498
526.981
526.423
525.835
525.222
524.582
523.907
523.178
522.375
521.47
520.438
519.283
518.065
516.738
513.827
498.643
57.2383
50.2186
56.1717
72.9663
493.797
506.247
509.21
511.268
512.392
481.154
507.423
545.738
544.104
539.626
536.12
533.74
532.184
531.143
530.538
530.222
530.104
530.078
530.051
530.023
529.337
529.084
528.745
528.361
527.912
527.577
527.256
526.982
526.755
526.55
526.336
526.103
525.862
525.633
525.436
525.288
525.199
525.174
525.206
525.278
525.367
525.443
525.478
525.448
525.351
525.215
525.078
524.941
524.827
525.156
525.89
510.808
508.683
526.321
527.621
527.926
528.319
528.558
528.598
528.469
528.2
527.817
527.347
526.812
526.232
525.622
524.989
524.333
523.644
522.905
522.094
521.185
520.158
519.011
517.776
516.349
512.844
494.493
-23.0838
-30.5153
-22.7998
-2.46676
493.047
507.563
509.935
510.797
510.586
479.781
507.472
547.288
546.01
540.562
536.804
534.351
532.826
531.756
530.957
530.351
529.904