/*--------------------------------*- C++ -*----------------------------------*\
| =========                 |                                                 |
| \\      /  F ield         | OpenFOAM: The Open Source CFD Toolbox           |
|  \\    /   O peration     | Version:  v2012                                 |
|   \\  /    A nd           | Website:  www.openfoam.com                      |
|    \\/     M anipulation  |                                                 |
\*---------------------------------------------------------------------------*/
FoamFile
{
    version     2.0;
    format      ascii;
    class       volScalarField;
    location    "500/air";
    object      ILambda_67_0;
}
// * * * * * * * * * * * * * * * * * * * * * * * * * * * * * * * * * * * * * //

dimensions      [1 0 -3 0 0 0 0];


internalField   nonuniform List<scalar> 
287104
(
166.736
166.747
166.755
166.763
166.771
166.778
166.786
166.794
166.802
166.809
166.817
166.824
166.832
166.839
166.847
166.854
166.862
166.869
166.876
166.883
166.891
166.898
166.905
166.912
166.919
166.927
166.934
166.941
166.948
166.955
166.962
166.969
166.976
166.983
166.99
166.997
167.004
167.011
167.018
167.025
167.032
167.039
167.046
167.053
167.06
167.067
167.074
167.081
167.088
167.095
167.102
167.109
167.117
167.124
167.131
167.138
167.145
167.153
167.16
167.167
167.175
167.182
167.189
167.197
167.204
167.211
167.219
167.226
167.234
167.241
167.248
167.256
167.264
167.273
167.282
167.289
167.295
167.301
167.308
167.315
167.322
167.327
167.328
167.331
167.337
167.349
167.34
167.22
167.187
171.767
166.736
166.747
166.754
166.762
166.77
166.778
166.786
166.793
166.801
166.808
166.816
166.823
166.831
166.838
166.846
166.853
166.86
166.868
166.875
166.882
166.889
166.896
166.903
166.91
166.917
166.924
166.931
166.938
166.945
166.952
166.959
166.966
166.973
166.98
166.987
166.994
167.001
167.007
167.014
167.021
167.028
167.035
167.042
167.049
167.056
167.063
167.07
167.077
167.084
167.091
167.098
167.105
167.112
167.119
167.126
167.133
167.14
167.148
167.155
167.162
167.169
167.177
167.184
167.191
167.198
167.206
167.213
167.221
167.228
167.235
167.242
167.25
167.258
167.267
167.275
167.282
167.288
167.294
167.301
167.308
167.315
167.319
167.321
167.323
167.328
167.338
167.329
167.21
167.177
171.65
166.736
166.747
166.754
166.762
166.77
166.777
166.785
166.793
166.8
166.808
166.815
166.823
166.83
166.837
166.845
166.852
166.859
166.867
166.874
166.881
166.888
166.895
166.902
166.909
166.916
166.923
166.93
166.937
166.944
166.951
166.957
166.964
166.971
166.978
166.985
166.992
166.998
167.005
167.012
167.019
167.026
167.033
167.04
167.046
167.053
167.06
167.067
167.074
167.081
167.088
167.095
167.102
167.109
167.116
167.123
167.13
167.137
167.144
167.151
167.158
167.166
167.173
167.18
167.187
167.194
167.202
167.209
167.216
167.224
167.231
167.238
167.245
167.253
167.262
167.27
167.277
167.283
167.289
167.296
167.303
167.31
167.314
167.315
167.317
167.321
167.331
167.324
167.205
167.164
171.543
166.736
166.747
166.754
166.762
166.769
166.777
166.785
166.792
166.8
166.807
166.815
166.822
166.829
166.837
166.844
166.851
166.858
166.865
166.873
166.88
166.887
166.894
166.901
166.908
166.915
166.922
166.928
166.935
166.942
166.949
166.956
166.962
166.969
166.976
166.983
166.989
166.996
167.003
167.01
167.017
167.023
167.03
167.037
167.044
167.051
167.057
167.064
167.071
167.078
167.085
167.092
167.099
167.106
167.113
167.12
167.127
167.134
167.141
167.148
167.155
167.162
167.169
167.176
167.183
167.19
167.197
167.205
167.212
167.219
167.226
167.233
167.24
167.249
167.257
167.265
167.272
167.278
167.284
167.291
167.298
167.304
167.308
167.309
167.31
167.314
167.323
167.32
167.203
167.137
171.449
166.735
166.746
166.754
166.761
166.769
166.777
166.784
166.792
166.799
166.807
166.814
166.821
166.829
166.836
166.843
166.85
166.857
166.865
166.872
166.879
166.886
166.893
166.9
166.906
166.913
166.92
166.927
166.934
166.941
166.947
166.954
166.961
166.967
166.974
166.981
166.987
166.994
167.001
167.008
167.014
167.021
167.028
167.034
167.041
167.048
167.055
167.061
167.068
167.075
167.082
167.088
167.095
167.102
167.109
167.116
167.123
167.13
167.137
167.143
167.15
167.157
167.164
167.171
167.178
167.185
167.193
167.2
167.207
167.214
167.221
167.227
167.235
167.243
167.251
167.259
167.266
167.272
167.277
167.284
167.291
167.297
167.3
167.302
167.302
167.304
167.311
167.314
167.218
167.124
171.245
166.735
166.746
166.753
166.761
166.769
166.776
166.784
166.791
166.799
166.806
166.813
166.821
166.828
166.835
166.842
166.849
166.857
166.864
166.871
166.878
166.885
166.891
166.898
166.905
166.912
166.919
166.926
166.932
166.939
166.946
166.952
166.959
166.966
166.972
166.979
166.985
166.992
166.999
167.005
167.012
167.018
167.025
167.032
167.038
167.045
167.052
167.058
167.065
167.072
167.078
167.085
167.092
167.098
167.105
167.112
167.118
167.125
167.132
167.139
167.146
167.152
167.159
167.166
167.173
167.18
167.186
167.193
167.2
167.207
167.214
167.22
167.227
167.235
167.243
167.251
167.257
167.263
167.268
167.274
167.281
167.286
167.29
167.291
167.291
167.291
167.292
167.299
167.255
167.18
170.863
166.735
166.746
166.753
166.761
166.768
166.776
166.783
166.791
166.798
166.806
166.813
166.82
166.827
166.834
166.842
166.849
166.856
166.863
166.87
166.877
166.884
166.89
166.897
166.904
166.911
166.918
166.924
166.931
166.938
166.944
166.951
166.957
166.964
166.97
166.977
166.983
166.99
166.996
167.003
167.009
167.016
167.022
167.029
167.035
167.042
167.048
167.055
167.061
167.068
167.075
167.081
167.088
167.094
167.101
167.107
167.114
167.12
167.127
167.133
167.14
167.146
167.153
167.16
167.166
167.173
167.179
167.186
167.193
167.199
167.205
167.212
167.218
167.226
167.234
167.241
167.247
167.253
167.258
167.264
167.27
167.275
167.278
167.279
167.28
167.278
167.268
167.268
167.305
167.376
170.372
166.735
166.746
166.753
166.761
166.768
166.776
166.783
166.79
166.798
166.805
166.812
166.82
166.827
166.834
166.841
166.848
166.855
166.862
166.869
166.876
166.883
166.889
166.896
166.903
166.91
166.916
166.923
166.93
166.936
166.943
166.949
166.956
166.962
166.969
166.976
166.982
166.989
166.995
167.002
167.008
167.014
167.021
167.027
167.034
167.04
167.047
167.053
167.06
167.066
167.073
167.079
167.085
167.092
167.098
167.105
167.111
167.118
167.124
167.13
167.137
167.143
167.15
167.156
167.162
167.169
167.175
167.182
167.188
167.195
167.201
167.207
167.214
167.221
167.229
167.237
167.243
167.248
167.254
167.26
167.266
167.272
167.275
167.276
167.279
167.277
167.255
167.228
167.338
167.729
170.064
166.735
166.746
166.753
166.761
166.768
166.775
166.783
166.79
166.797
166.805
166.812
166.819
166.826
166.834
166.841
166.848
166.855
166.862
166.869
166.876
166.883
166.89
166.897
166.904
166.911
166.917
166.924
166.931
166.938
166.945
166.951
166.958
166.965
166.972
166.978
166.985
166.992
166.999
167.005
167.012
167.019
167.026
167.032
167.039
167.046
167.053
167.059
167.066
167.073
167.079
167.086
167.093
167.1
167.106
167.113
167.12
167.126
167.133
167.14
167.146
167.153
167.16
167.167
167.174
167.18
167.187
167.194
167.201
167.208
167.215
167.222
167.229
167.237
167.245
167.254
167.261
167.267
167.273
167.279
167.287
167.293
167.296
167.299
167.302
167.304
167.274
167.199
167.316
168.104
170.413
166.735
166.746
166.753
166.76
166.768
166.775
166.782
166.79
166.797
166.804
166.812
166.82
166.827
166.835
166.843
166.851
166.858
166.866
166.873
166.881
166.889
166.896
166.903
166.911
166.918
166.926
166.933
166.94
166.948
166.955
166.962
166.97
166.977
166.985
166.992
166.999
167.007
167.014
167.022
167.029
167.037
167.045
167.052
167.06
167.067
167.075
167.082
167.09
167.097
167.105
167.113
167.12
167.128
167.135
167.143
167.151
167.158
167.166
167.173
167.181
167.189
167.196
167.204
167.212
167.219
167.227
167.235
167.243
167.251
167.258
167.266
167.274
167.283
167.292
167.301
167.308
167.315
167.321
167.329
167.336
167.342
167.345
167.346
167.35
167.355
167.326
167.206
167.226
168.307
171.412
166.735
166.746
166.753
166.76
166.768
166.775
166.782
166.789
166.797
166.804
166.813
166.822
166.831
166.84
166.849
166.858
166.867
166.875
166.884
166.893
166.901
166.909
166.917
166.926
166.934
166.941
166.949
166.957
166.965
166.972
166.98
166.988
166.996
167.003
167.011
167.019
167.026
167.034
167.042
167.05
167.058
167.066
167.075
167.083
167.091
167.099
167.107
167.116
167.124
167.132
167.141
167.149
167.157
167.166
167.175
167.183
167.192
167.2
167.209
167.218
167.227
167.235
167.244
167.253
167.262
167.271
167.28
167.289
167.298
167.306
167.315
167.324
167.334
167.344
167.353
167.362
167.369
167.376
167.383
167.39
167.395
167.397
167.397
167.398
167.403
167.384
167.252
167.114
168.156
172.66
166.735
166.746
166.752
166.76
166.767
166.775
166.782
166.789
166.796
166.804
166.813
166.821
166.83
166.839
166.848
166.857
166.866
166.874
166.883
166.891
166.9
166.908
166.916
166.924
166.932
166.94
166.947
166.955
166.963
166.97
166.978
166.985
166.993
167
167.008
167.015
167.023
167.03
167.038
167.046
167.054
167.062
167.069
167.077
167.085
167.093
167.101
167.109
167.118
167.126
167.134
167.143
167.151
167.16
167.169
167.177
167.186
167.195
167.204
167.214
167.223
167.232
167.242
167.251
167.261
167.27
167.28
167.29
167.3
167.309
167.319
167.328
167.339
167.35
167.36
167.369
167.377
167.385
167.393
167.401
167.406
167.409
167.409
167.41
167.413
167.404
167.303
167.066
167.726
173.408
166.735
166.746
166.752
166.76
166.767
166.774
166.782
166.789
166.796
166.804
166.812
166.821
166.83
166.839
166.847
166.856
166.865
166.874
166.882
166.89
166.899
166.907
166.915
166.923
166.931
166.938
166.946
166.953
166.961
166.968
166.975
166.983
166.99
166.997
167.004
167.011
167.019
167.026
167.034
167.041
167.049
167.056
167.063
167.071
167.078
167.086
167.094
167.101
167.109
167.116
167.124
167.132
167.139
167.147
167.155
167.162
167.17
167.178
167.186
167.194
167.201
167.209
167.217
167.226
167.234
167.242
167.25
167.259
167.267
167.275
167.283
167.292
167.302
167.312
167.321
167.33
167.338
167.345
167.353
167.362
167.368
167.372
167.373
167.374
167.377
167.369
167.299
167.109
167.45
173.053
166.735
166.746
166.752
166.76
166.767
166.774
166.781
166.789
166.796
166.803
166.812
166.82
166.829
166.838
166.847
166.855
166.864
166.873
166.881
166.889
166.898
166.906
166.914
166.922
166.929
166.937
166.944
166.952
166.959
166.967
166.974
166.981
166.988
166.995
167.003
167.01
167.018
167.025
167.032
167.04
167.047
167.054
167.061
167.069
167.076
167.084
167.091
167.099
167.106
167.114
167.121
167.129
167.137
167.144
167.152
167.159
167.167
167.175
167.182
167.19
167.197
167.205
167.213
167.22
167.228
167.236
167.243
167.251
167.259
167.266
167.273
167.281
167.29
167.298
167.307
167.314
167.321
167.327
167.334
167.34
167.345
167.347
167.346
167.347
167.349
167.336
167.256
167.131
167.647
172.225
166.735
166.745
166.752
166.76
166.767
166.774
166.781
166.788
166.795
166.803
166.811
166.82
166.829
166.837
166.846
166.855
166.863
166.872
166.88
166.889
166.897
166.905
166.913
166.92
166.928
166.936
166.943
166.951
166.958
166.965
166.972
166.98
166.987
166.994
167.002
167.009
167.017
167.024
167.031
167.038
167.045
167.053
167.06
167.067
167.075
167.082
167.09
167.097
167.105
167.113
167.12
167.128
167.136
167.143
167.151
167.159
167.167
167.175
167.183
167.191
167.199
167.207
167.215
167.223
167.231
167.239
167.248
167.256
167.265
167.273
167.281
167.29
167.3
167.31
167.32
167.328
167.336
167.343
167.352
167.36
167.366
167.369
167.37
167.371
167.376
167.368
167.266
167.066
167.743
172.93
166.735
166.745
166.752
166.759
166.767
166.774
166.781
166.788
166.795
166.802
166.811
166.819
166.828
166.837
166.845
166.854
166.862
166.871
166.879
166.888
166.896
166.904
166.912
166.919
166.927
166.934
166.942
166.949
166.957
166.964
166.971
166.978
166.985
166.993
167.001
167.008
167.015
167.022
167.029
167.036
167.043
167.051
167.058
167.065
167.073
167.08
167.088
167.096
167.103
167.111
167.118
167.126
167.134
167.142
167.15
167.158
167.165
167.174
167.182
167.19
167.198
167.206
167.215
167.223
167.232
167.24
167.249
167.258
167.267
167.276
167.285
167.294
167.304
167.315
167.325
167.335
167.343
167.351
167.36
167.37
167.377
167.381
167.382
167.383
167.388
167.387
167.298
167.027
167.489
173.499
166.735
166.745
166.752
166.759
166.766
166.773
166.781
166.788
166.795
166.802
166.81
166.819
166.827
166.836
166.845
166.853
166.862
166.87
166.878
166.887
166.895
166.903
166.91
166.918
166.926
166.933
166.941
166.948
166.955
166.962
166.969
166.976
166.984
166.991
166.998
167.005
167.011
167.017
167.024
167.031
167.039
167.047
167.055
167.062
167.069
167.076
167.084
167.091
167.099
167.106
167.114
167.121
167.129
167.136
167.144
167.152
167.16
167.168
167.176
167.184
167.192
167.2
167.208
167.216
167.225
167.233
167.241
167.25
167.258
167.266
167.274
167.283
167.292
167.302
167.311
167.319
167.326
167.333
167.34
167.348
167.353
167.355
167.353
167.349
167.348
167.348
167.297
167.074
167.249
172.382
166.735
166.745
166.752
166.759
166.766
166.773
166.78
166.787
166.794
166.802
166.81
166.818
166.827
166.835
166.844
166.852
166.861
166.869
166.877
166.886
166.894
166.901
166.909
166.917
166.924
166.932
166.939
166.946
166.953
166.96
166.967
166.973
166.98
166.986
166.991
166.996
167.002
167.009
167.015
167.022
167.03
167.038
167.046
167.054
167.061
167.068
167.075
167.082
167.089
167.097
167.104
167.111
167.118
167.126
167.133
167.14
167.148
167.155
167.162
167.17
167.177
167.185
167.192
167.199
167.207
167.214
167.221
167.229
167.236
167.242
167.249
167.256
167.264
167.271
167.279
167.285
167.289
167.294
167.299
167.303
167.306
167.305
167.301
167.294
167.287
167.285
167.269
167.153
167.154
170.815
166.735
166.745
166.752
166.759
166.766
166.773
166.78
166.787
166.794
166.801
166.81
166.818
166.826
166.835
166.843
166.851
166.86
166.868
166.876
166.884
166.892
166.899
166.907
166.914
166.921
166.928
166.934
166.941
166.947
166.954
166.96
166.967
166.972
166.976
166.978
166.982
166.99
166.999
167.007
167.012
167.017
167.023
167.032
167.043
167.05
167.056
167.063
167.07
167.077
167.084
167.091
167.097
167.104
167.111
167.118
167.125
167.132
167.138
167.145
167.152
167.158
167.165
167.171
167.178
167.184
167.191
167.197
167.203
167.209
167.215
167.22
167.226
167.232
167.239
167.245
167.25
167.254
167.258
167.262
167.266
167.268
167.267
167.262
167.255
167.246
167.242
167.244
167.207
167.19
169.87
166.735
166.745
166.752
166.759
166.766
166.773
166.78
166.787
166.794
166.801
166.809
166.817
166.825
166.833
166.841
166.848
166.856
166.864
166.871
166.878
166.885
166.892
166.899
166.906
166.912
166.918
166.924
166.931
166.937
166.943
166.949
166.955
166.96
166.965
166.969
166.974
166.983
166.994
167.004
167.008
167.009
167.011
167.018
167.029
167.036
167.042
167.049
167.056
167.063
167.069
167.076
167.083
167.089
167.096
167.103
167.109
167.115
167.122
167.128
167.134
167.14
167.146
167.152
167.158
167.164
167.17
167.175
167.181
167.187
167.192
167.197
167.203
167.209
167.216
167.222
167.227
167.231
167.235
167.24
167.244
167.248
167.248
167.244
167.237
167.229
167.222
167.23
167.239
167.281
169.447
166.735
166.745
166.751
166.759
166.766
166.773
166.78
166.787
166.793
166.8
166.807
166.814
166.82
166.827
166.834
166.84
166.847
166.854
166.86
166.867
166.873
166.88
166.886
166.892
166.899
166.905
166.911
166.918
166.924
166.93
166.935
166.94
166.948
166.963
166.983
166.998
167.003
167.004
167.01
167.018
167.02
167.021
167.019
167.016
167.023
167.031
167.037
167.043
167.05
167.056
167.063
167.069
167.075
167.082
167.088
167.094
167.101
167.107
167.113
167.12
167.126
167.132
167.138
167.144
167.15
167.157
167.163
167.169
167.175
167.18
167.186
167.192
167.199
167.206
167.213
167.218
167.223
167.227
167.233
167.238
167.243
167.245
167.242
167.236
167.228
167.221
167.228
167.257
167.373
169.416
166.735
166.745
166.751
166.758
166.765
166.772
166.779
166.786
166.793
166.8
166.807
166.813
166.82
166.827
166.833
166.84
166.847
166.853
166.86
166.866
166.873
166.879
166.885
166.891
166.898
166.904
166.91
166.917
166.923
166.929
166.933
166.937
166.947
166.977
167.027
167.066
167.064
167.038
167.029
167.043
167.053
167.065
167.053
167.015
167.019
167.033
167.037
167.044
167.051
167.058
167.065
167.071
167.078
167.085
167.091
167.098
167.104
167.111
167.118
167.124
167.131
167.137
167.144
167.15
167.157
167.163
167.17
167.176
167.182
167.189
167.195
167.201
167.208
167.216
167.223
167.229
167.234
167.239
167.244
167.25
167.255
167.257
167.255
167.25
167.242
167.235
167.24
167.267
167.429
169.722
166.734
166.744
166.751
166.758
166.765
166.772
166.779
166.785
166.792
166.799
166.806
166.812
166.819
166.826
166.832
166.839
166.846
166.852
166.859
166.865
166.872
166.878
166.884
166.89
166.897
166.903
166.91
166.916
166.922
166.928
166.933
166.936
166.944
166.971
167.028
167.087
167.097
167.063
167.04
167.054
167.067
167.087
167.084
167.022
167.016
167.034
167.039
167.046
167.053
167.06
167.068
167.075
167.082
167.089
167.096
167.103
167.11
167.117
167.124
167.131
167.138
167.145
167.152
167.159
167.166
167.172
167.179
167.186
167.193
167.2
167.206
167.213
167.22
167.228
167.236
167.242
167.248
167.253
167.259
167.266
167.272
167.274
167.273
167.267
167.26
167.254
167.26
167.279
167.439
170.156
166.734
166.744
166.75
166.757
166.764
166.771
166.778
166.785
166.791
166.798
166.805
166.812
166.818
166.825
166.831
166.838
166.845
166.851
166.858
166.864
166.87
166.877
166.883
166.889
166.896
166.903
166.909
166.915
166.92
166.927
166.937
166.947
166.941
166.904
166.862
166.871
166.945
167.026
167.052
167.044
167.03
166.993
167.008
167.038
167.022
167.03
167.039
167.046
167.053
167.061
167.068
167.075
167.083
167.09
167.097
167.104
167.111
167.118
167.125
167.132
167.139
167.146
167.153
167.16
167.167
167.174
167.181
167.188
167.195
167.202
167.208
167.215
167.223
167.231
167.239
167.245
167.251
167.256
167.263
167.27
167.276
167.279
167.277
167.271
167.264
167.261
167.274
167.302
167.484
170.211
166.733
166.743
166.749
166.756
166.763
166.77
166.777
166.784
166.79
166.797
166.804
166.81
166.817
166.824
166.83
166.837
166.843
166.85
166.856
166.863
166.869
166.875
166.882
166.889
166.895
166.902
166.908
166.913
166.918
166.925
166.944
166.971
166.951
166.778
166.463
166.264
166.436
166.852
167.102
167.049
166.965
166.725
166.687
167.047
167.052
167.016
167.038
167.043
167.051
167.058
167.065
167.073
167.08
167.087
167.094
167.101
167.108
167.115
167.121
167.128
167.135
167.142
167.149
167.156
167.162
167.169
167.176
167.183
167.19
167.197
167.203
167.21
167.218
167.226
167.234
167.241
167.246
167.252
167.259
167.266
167.272
167.275
167.274
167.267
167.258
167.259
167.284
167.339
167.556
170.007
166.732
166.742
166.749
166.756
166.762
166.769
166.776
166.783
166.789
166.796
166.803
166.809
166.816
166.823
166.829
166.836
166.842
166.849
166.855
166.861
166.868
166.874
166.881
166.887
166.894
166.9
166.905
166.911
166.916
166.923
166.946
166.993
166.982
166.703
166.071
165.526
165.706
166.541
167.189
167.093
166.947
166.415
166.143
167.002
167.105
166.995
167.033
167.036
167.044
167.051
167.058
167.065
167.072
167.079
167.086
167.093
167.1
167.107
167.114
167.121
167.128
167.134
167.141
167.148
167.155
167.163
167.17
167.177
167.184
167.191
167.198
167.205
167.213
167.221
167.229
167.236
167.242
167.248
167.255
167.262
167.269
167.272
167.271
167.263
167.252
167.255
167.297
167.39
167.639
169.78
166.732
166.742
166.748
166.755
166.762
166.769
166.775
166.782
166.789
166.796
166.802
166.809
166.815
166.822
166.829
166.835
166.842
166.848
166.854
166.861
166.867
166.874
166.88
166.886
166.892
166.897
166.902
166.909
166.916
166.921
166.93
166.965
167.012
166.89
166.361
165.681
165.621
166.371
167.149
167.06
166.942
166.378
165.868
166.856
167.133
166.987
167.025
167.029
167.037
167.044
167.052
167.059
167.066
167.073
167.08
167.088
167.095
167.102
167.109
167.116
167.123
167.13
167.138
167.145
167.152
167.16
167.167
167.174
167.182
167.189
167.196
167.203
167.212
167.22
167.229
167.236
167.242
167.247
167.254
167.262
167.269
167.273
167.272
167.263
167.249
167.251
167.31
167.451
167.736
169.624
166.732
166.742
166.748
166.755
166.762
166.769
166.776
166.782
166.789
166.796
166.802
166.809
166.815
166.822
166.829
166.835
166.841
166.848
166.854
166.861
166.867
166.874
166.88
166.886
166.89
166.895
166.9
166.909
166.92
166.924
166.89
166.843
166.971
167.479
168.103
168.215
167.756
167.145
166.803
166.809
166.819
166.949
166.854
166.66
167.029
167.027
167.015
167.028
167.035
167.043
167.051
167.058
167.066
167.073
167.08
167.087
167.095
167.102
167.109
167.116
167.124
167.131
167.138
167.146
167.153
167.161
167.169
167.176
167.184
167.191
167.198
167.206
167.215
167.223
167.232
167.239
167.245
167.251
167.258
167.265
167.272
167.277
167.276
167.267
167.25
167.247
167.319
167.515
167.859
169.539
166.733
166.743
166.749
166.756
166.763
166.77
166.777
166.783
166.79
166.797
166.803
166.81
166.816
166.823
166.829
166.836
166.842
166.849
166.855
166.862
166.868
166.875
166.881
166.887
166.893
166.899
166.905
166.915
166.931
166.934
166.843
166.634
166.776
168.299
171.354
173.807
173.35
170.203
166.979
167.2
167.356
168.761
169.961
166.647
166.681
167.137
167.006
167.037
167.042
167.05
167.057
167.064
167.071
167.078
167.085
167.092
167.1
167.107
167.114
167.121
167.129
167.136
167.144
167.151
167.159
167.167
167.174
167.182
167.19
167.197
167.205
167.213
167.221
167.23
167.239
167.247
167.253
167.258
167.265
167.272
167.279
167.284
167.284
167.275
167.255
167.244
167.318
167.571
168.008
169.536
166.735
166.745
166.751
166.758
166.765
166.772
166.778
166.785
166.792
166.798
166.805
166.812
166.818
166.825
166.831
166.838
166.844
166.851
166.857
166.864
166.87
166.876
166.883
166.89
166.901
166.912
166.922
166.931
166.945
166.951
166.823
166.436
166.43
168.844
174.897
181.047
181.699
176.623
170.674
171.254
171.602
173.62
174.992
167.193
166.076
167.3
167.007
167.057
167.058
167.064
167.07
167.076
167.083
167.089
167.096
167.103
167.109
167.116
167.124
167.131
167.138
167.146
167.153
167.161
167.169
167.177
167.184
167.192
167.2
167.208
167.215
167.223
167.232
167.241
167.25
167.258
167.264
167.269
167.275
167.282
167.288
167.293
167.294
167.287
167.265
167.244
167.307
167.6
168.166
169.632
166.738
166.748
166.754
166.761
166.767
166.774
166.781
166.788
166.794
166.801
166.807
166.814
166.821
166.827
166.834
166.84
166.847
166.853
166.86
166.866
166.872
166.878
166.884
166.896
166.914
166.934
166.948
166.954
166.96
166.967
166.852
166.377
166.075
168.631
176.819
186.843
189.777
185.27
180.431
181.417
182.223
183.097
180.682
168.634
165.365
167.455
167.026
167.085
167.083
167.087
167.091
167.096
167.101
167.107
167.112
167.118
167.125
167.131
167.138
167.146
167.153
167.16
167.168
167.175
167.183
167.191
167.198
167.206
167.214
167.221
167.229
167.237
167.246
167.255
167.263
167.271
167.277
167.282
167.287
167.293
167.299
167.303
167.305
167.299
167.278
167.249
167.288
167.588
168.295
169.839
166.74
166.75
166.756
166.763
166.77
166.776
166.783
166.79
166.796
166.803
166.81
166.816
166.823
166.829
166.836
166.842
166.849
166.855
166.862
166.868
166.874
166.88
166.886
166.9
166.924
166.95
166.965
166.968
166.964
166.97
166.917
166.51
165.916
167.666
176.006
188.794
194.482
191.725
191.432
192.644
194.212
193.837
185.987
171.122
164.78
167.538
167.066
167.118
167.114
167.115
167.117
167.12
167.124
167.128
167.133
167.138
167.144
167.151
167.157
167.164
167.171
167.178
167.185
167.193
167.2
167.207
167.215
167.222
167.23
167.237
167.244
167.252
167.26
167.269
167.277
167.285
167.29
167.295
167.3
167.305
167.31
167.313
167.315
167.311
167.293
167.259
167.27
167.531
168.343
170.139
166.741
166.751
166.757
166.764
166.771
166.777
166.784
166.791
166.797
166.804
166.811
166.817
166.824
166.83
166.837
166.843
166.85
166.856
166.863
166.87
166.876
166.881
166.887
166.9
166.923
166.946
166.955
166.955
166.951
166.96
166.973
166.748
166.052
166.507
173.057
187.024
195.637
192.064
192.712
193.9
196.036
197.75
190.92
174.761
164.488
167.528
167.12
167.153
167.147
167.146
167.145
167.146
167.148
167.151
167.155
167.16
167.166
167.171
167.177
167.184
167.19
167.197
167.204
167.211
167.218
167.225
167.232
167.239
167.246
167.252
167.259
167.266
167.274
167.282
167.29
167.297
167.302
167.306
167.311
167.316
167.319
167.322
167.323
167.32
167.305
167.272
167.26
167.447
168.267
170.477
166.74
166.75
166.756
166.763
166.77
166.777
166.783
166.79
166.797
166.803
166.81
166.816
166.823
166.83
166.836
166.843
166.849
166.856
166.862
166.869
166.876
166.882
166.888
166.893
166.905
166.921
166.921
166.916
166.928
166.948
166.994
166.944
166.387
165.809
169.602
183.218
195.861
189.046
184.193
185.179
187.056
193.277
195.641
179.935
164.536
167.447
167.168
167.18
167.174
167.171
167.169
167.169
167.169
167.172
167.175
167.179
167.184
167.189
167.195
167.2
167.206
167.212
167.219
167.225
167.232
167.238
167.245
167.252
167.258
167.264
167.27
167.277
167.284
167.292
167.299
167.304
167.309
167.313
167.318
167.322
167.325
167.327
167.327
167.324
167.311
167.282
167.259
167.368
168.067
170.741
166.737
166.747
166.753
166.76
166.767
166.774
166.78
166.787
166.794
166.8
166.807
166.814
166.82
166.827
166.833
166.84
166.846
166.853
166.859
166.866
166.873
166.882
166.888
166.881
166.875
166.895
166.912
166.901
166.935
166.961
166.984
167.02
166.719
165.807
166.999
178.453
197.5
189.5
176.8
177.39
178.271
186.29
199.931
187.58
164.983
167.336
167.193
167.191
167.186
167.182
167.18
167.179
167.18
167.182
167.185
167.189
167.193
167.198
167.203
167.208
167.213
167.219
167.225
167.231
167.237
167.243
167.249
167.256
167.262
167.267
167.273
167.279
167.286
167.293
167.298
167.303
167.307
167.311
167.316
167.321
167.324
167.325
167.324
167.32
167.308
167.282
167.259
167.317
167.816
170.747
166.733
166.743
166.749
166.756
166.763
166.77
166.776
166.783
166.79
166.796
166.803
166.809
166.816
166.823
166.829
166.836
166.842
166.849
166.855
166.862
166.869
166.88
166.886
166.87
166.847
166.896
166.989
166.977
167.024
167.03
166.966
167.009
166.896
166.231
165.881
172.803
201.179
196.097
170.045
169.854
169.637
174.975
204.067
199.131
165.988
167.233
167.193
167.184
167.178
167.175
167.173
167.173
167.174
167.176
167.179
167.182
167.185
167.188
167.193
167.198
167.203
167.209
167.214
167.22
167.225
167.231
167.237
167.243
167.248
167.254
167.259
167.265
167.271
167.277
167.282
167.286
167.289
167.293
167.299
167.304
167.308
167.308
167.306
167.301
167.29
167.266
167.244
167.288
167.656
170.226
166.729
166.739
166.745
166.752
166.759
166.765
166.772
166.779
166.785
166.792
166.799
166.805
166.812
166.818
166.825
166.831
166.838
166.845
166.851
166.857
166.865
166.876
166.884
166.864
166.83
166.922
167.135
167.119
167.163
167.131
166.95
166.979
166.918
166.591
166.323
166.95
167.442
167.16
167.162
167.152
167.147
167.144
167.144
167.144
167.146
167.148
167.15
167.152
167.154
167.156
167.159
167.164
167.17
167.175
167.18
167.184
167.189
167.195
167.2
167.205
167.21
167.215
167.221
167.226
167.232
167.238
167.243
167.246
167.249
167.253
167.259
167.266
167.27
167.271
167.269
167.265
167.256
167.235
167.215
167.254
167.56
169.621
166.726
166.736
166.742
166.749
166.756
166.762
166.769
166.776
166.782
166.789
166.796
166.802
166.809
166.815
166.822
166.829
166.835
166.842
166.848
166.855
166.862
166.872
166.881
166.867
166.834
166.934
167.204
167.151
167.164
167.136
166.94
166.959
166.905
166.579
166.519
167.861
167.119
167.14
167.121
167.113
167.108
167.105
167.104
167.104
167.105
167.107
167.109
167.11
167.111
167.113
167.117
167.122
167.128
167.135
167.14
167.145
167.151
167.156
167.162
167.167
167.173
167.178
167.184
167.19
167.196
167.202
167.208
167.212
167.216
167.22
167.227
167.235
167.242
167.244
167.244
167.242
167.234
167.217
167.199
167.232
167.493
169.274
166.725
166.735
166.741
166.748
166.755
166.762
166.768
166.775
166.782
166.788
166.795
166.802
166.808
166.815
166.821
166.828
166.835
166.841
166.848
166.854
166.861
166.869
166.879
166.877
166.857
166.914
167.083
166.951
166.903
166.94
166.933
166.933
166.922
166.695
166.557
167.673
167.148
167.108
167.096
167.087
167.081
167.078
167.077
167.077
167.078
167.08
167.082
167.085
167.088
167.092
167.097
167.101
167.106
167.112
167.117
167.123
167.128
167.134
167.14
167.146
167.152
167.158
167.164
167.17
167.176
167.183
167.189
167.194
167.198
167.203
167.21
167.218
167.225
167.229
167.229
167.228
167.222
167.207
167.19
167.219
167.452
169.07
166.727
166.737
166.743
166.75
166.757
166.764
166.77
166.777
166.784
166.79
166.797
166.803
166.81
166.817
166.823
166.83
166.836
166.843
166.849
166.856
166.863
166.869
166.877
166.883
166.883
166.907
166.949
166.783
166.694
166.762
166.922
166.911
166.917
166.806
166.746
167.693
167.117
167.091
167.078
167.069
167.064
167.062
167.061
167.061
167.063
167.064
167.068
167.073
167.081
167.09
167.097
167.1
167.099
167.1
167.106
167.112
167.118
167.124
167.13
167.136
167.142
167.148
167.154
167.16
167.167
167.174
167.18
167.185
167.19
167.195
167.202
167.209
167.216
167.219
167.221
167.221
167.216
167.201
167.185
167.213
167.432
168.955
166.73
166.74
166.746
166.753
166.76
166.767
166.773
166.78
166.787
166.793
166.8
166.807
166.813
166.82
166.826
166.833
166.839
166.846
166.852
166.859
166.866
166.872
166.878
166.885
166.895
166.928
166.966
166.877
166.819
166.832
166.902
166.906
166.912
166.87
166.866
167.656
167.105
167.078
167.066
167.059
167.054
167.052
167.052
167.053
167.055
167.057
167.061
167.071
167.085
167.1
167.11
167.112
167.104
167.097
167.101
167.11
167.115
167.121
167.127
167.133
167.139
167.145
167.151
167.158
167.164
167.171
167.178
167.184
167.189
167.195
167.201
167.207
167.212
167.215
167.217
167.218
167.214
167.199
167.183
167.21
167.427
168.911
166.734
166.743
166.75
166.756
166.763
166.77
166.777
166.783
166.79
166.796
166.803
166.81
166.816
166.823
166.829
166.836
166.842
166.849
166.855
166.862
166.869
166.875
166.882
166.888
166.896
166.913
166.938
166.935
166.928
166.914
166.903
166.912
166.914
166.895
166.915
167.599
167.09
167.07
167.059
167.052
167.048
167.047
167.048