/*--------------------------------*- C++ -*----------------------------------*\
| =========                 |                                                 |
| \\      /  F ield         | OpenFOAM: The Open Source CFD Toolbox           |
|  \\    /   O peration     | Version:  v2012                                 |
|   \\  /    A nd           | Website:  www.openfoam.com                      |
|    \\/     M anipulation  |                                                 |
\*---------------------------------------------------------------------------*/
FoamFile
{
    version     2.0;
    format      ascii;
    class       volScalarField;
    location    "500/air";
    object      ILambda_28_0;
}
// * * * * * * * * * * * * * * * * * * * * * * * * * * * * * * * * * * * * * //

dimensions      [1 0 -3 0 0 0 0];


internalField   nonuniform List<scalar> 
287104
(
205.394
222.171
222.974
223.383
224.553
225.75
226.763
227.633
228.409
229.11
229.745
230.322
230.849
231.334
231.781
232.196
232.582
232.942
233.28
233.597
233.896
234.179
234.448
234.703
234.946
235.179
235.402
235.615
235.821
236.019
236.21
236.395
236.573
236.747
236.915
237.078
237.237
237.394
237.546
237.695
237.84
237.982
238.122
238.26
238.395
238.528
238.659
238.788
238.915
239.04
239.164
239.286
239.406
239.526
239.643
239.76
239.875
239.988
240.101
240.212
240.321
240.429
240.536
240.641
240.745
240.848
240.949
241.049
241.147
241.245
241.341
241.437
241.532
241.626
241.72
241.812
241.904
241.996
242.087
242.179
242.273
242.369
242.468
242.571
242.68
242.795
242.922
243.082
243.389
244.758
204.77
221.245
222.004
222.377
223.5
224.65
225.619
226.449
227.188
227.852
228.453
228.998
229.494
229.949
230.368
230.754
231.113
231.448
231.76
232.053
232.328
232.588
232.833
233.066
233.288
233.499
233.7
233.893
234.078
234.256
234.427
234.592
234.752
234.906
235.054
235.198
235.338
235.477
235.612
235.743
235.87
235.993
236.114
236.235
236.354
236.47
236.583
236.695
236.805
236.914
237.021
237.127
237.231
237.335
237.436
237.537
237.637
237.735
237.832
237.928
238.022
238.116
238.208
238.299
238.388
238.476
238.563
238.649
238.734
238.818
238.9
238.983
239.064
239.145
239.225
239.305
239.384
239.462
239.54
239.619
239.7
239.782
239.868
239.958
240.054
240.156
240.269
240.42
240.752
242.272
204.175
220.39
221.135
221.5
222.602
223.732
224.683
225.497
226.221
226.873
227.461
227.994
228.48
228.924
229.333
229.711
230.061
230.386
230.69
230.975
231.243
231.495
231.733
231.959
232.174
232.378
232.573
232.759
232.938
233.109
233.274
233.432
233.585
233.733
233.876
234.012
234.146
234.279
234.409
234.533
234.654
234.77
234.884
235
235.114
235.224
235.331
235.437
235.541
235.644
235.745
235.845
235.944
236.041
236.137
236.232
236.325
236.418
236.509
236.599
236.688
236.776
236.862
236.947
237.031
237.114
237.195
237.275
237.354
237.432
237.509
237.586
237.662
237.737
237.812
237.885
237.958
238.031
238.103
238.177
238.252
238.329
238.409
238.494
238.585
238.684
238.794
238.945
239.29
240.804
203.587
219.547
220.28
220.64
221.724
222.836
223.773
224.574
225.286
225.928
226.506
227.031
227.508
227.945
228.347
228.718
229.062
229.382
229.681
229.96
230.223
230.471
230.704
230.926
231.136
231.337
231.528
231.71
231.885
232.052
232.213
232.368
232.517
232.662
232.8
232.933
233.062
233.192
233.319
233.44
233.557
233.669
233.779
233.892
234.003
234.109
234.213
234.316
234.417
234.516
234.614
234.711
234.807
234.901
234.994
235.085
235.176
235.265
235.354
235.441
235.527
235.612
235.696
235.778
235.859
235.939
236.018
236.096
236.173
236.248
236.323
236.398
236.471
236.545
236.617
236.689
236.761
236.831
236.903
236.975
237.049
237.126
237.207
237.292
237.384
237.485
237.596
237.75
238.098
239.598
203.008
218.717
219.439
219.793
220.86
221.955
222.877
223.666
224.367
224.998
225.568
226.084
226.554
226.984
227.38
227.745
228.083
228.398
228.691
228.966
229.225
229.468
229.698
229.915
230.122
230.319
230.507
230.686
230.857
231.021
231.179
231.33
231.476
231.618
231.753
231.882
232.008
232.134
232.258
232.376
232.489
232.599
232.705
232.814
232.922
233.025
233.126
233.225
233.323
233.419
233.514
233.608
233.7
233.791
233.88
233.969
234.056
234.142
234.227
234.311
234.394
234.476
234.556
234.635
234.713
234.79
234.866
234.94
235.014
235.086
235.158
235.229
235.3
235.37
235.439
235.508
235.576
235.644
235.712
235.781
235.853
235.927
236.005
236.087
236.176
236.274
236.383
236.532
236.865
238.323
202.439
217.9
218.611
218.96
220.012
221.089
221.997
222.774
223.464
224.086
224.647
225.154
225.617
226.04
226.43
226.789
227.122
227.432
227.721
227.992
228.246
228.486
228.712
228.926
229.129
229.323
229.507
229.683
229.852
230.013
230.168
230.316
230.459
230.597
230.729
230.856
230.979
231.1
231.219
231.333
231.444
231.55
231.653
231.758
231.86
231.959
232.055
232.15
232.243
232.335
232.425
232.513
232.6
232.686
232.77
232.853
232.935
233.015
233.095
233.173
233.25
233.325
233.4
233.472
233.544
233.614
233.682
233.75
233.816
233.881
233.944
234.007
234.069
234.13
234.19
234.249
234.307
234.363
234.42
234.477
234.536
234.597
234.662
234.729
234.803
234.884
234.977
235.102
235.389
236.724
201.878
217.097
217.797
218.141
219.177
220.238
221.133
221.898
222.578
223.19
223.741
224.24
224.695
225.111
225.494
225.849
226.177
226.483
226.768
227.034
227.285
227.521
227.744
227.955
228.155
228.345
228.526
228.699
228.865
229.023
229.174
229.319
229.458
229.591
229.72
229.845
229.964
230.077
230.188
230.296
230.401
230.503
230.601
230.696
230.788
230.879
230.966
231.052
231.135
231.216
231.296
231.373
231.449
231.523
231.595
231.666
231.736
231.804
231.87
231.935
231.999
232.06
232.12
232.179
232.235
232.29
232.343
232.394
232.444
232.491
232.537
232.581
232.624
232.665
232.704
232.742
232.777
232.811
232.843
232.875
232.908
232.943
232.98
233.021
233.067
233.123
233.19
233.284
233.504
234.614
201.327
216.306
216.996
217.335
218.355
219.401
220.282
221.036
221.705
222.304
222.858
223.355
223.8
224.207
224.583
224.931
225.255
225.556
225.837
226.101
226.349
226.583
226.804
227.012
227.21
227.397
227.575
227.744
227.906
228.06
228.207
228.347
228.48
228.606
228.728
228.847
228.959
229.058
229.152
229.246
229.339
229.431
229.52
229.595
229.668
229.743
229.816
229.886
229.953
230.018
230.08
230.14
230.197
230.253
230.306
230.358
230.407
230.453
230.498
230.54
230.58
230.618
230.653
230.687
230.718
230.747
230.773
230.798
230.82
230.84
230.858
230.875
230.89
230.903
230.914
230.924
230.931
230.937
230.943
230.95
230.953
230.958
230.968
230.984
231.011
231.05
231.104
231.18
231.338
232.153
200.785
215.528
216.207
216.542
217.547
218.577
219.445
220.187
220.844
221.419
221.975
222.448
222.865
223.249
223.61
223.952
224.277
224.586
224.878
225.155
225.417
225.664
225.897
226.118
226.324
226.517
226.698
226.867
227.027
227.177
227.319
227.452
227.576
227.691
227.803
227.915
228.019
228.099
228.17
228.248
228.327
228.41
228.49
228.544
228.593
228.651
228.706
228.758
228.806
228.85
228.892
228.932
228.97
229.007
229.041
229.073
229.103
229.13
229.155
229.179
229.2
229.22
229.237
229.253
229.267
229.28
229.29
229.299
229.307
229.313
229.317
229.321
229.324
229.326
229.327
229.326
229.325
229.324
229.323
229.329
229.323
229.319
229.32
229.328
229.351
229.393
229.457
229.544
229.687
230.327
200.252
214.762
215.431
215.761
216.751
217.766
218.621
219.35
219.988
220.543
220.109
219.918
220.126
220.499
220.917
221.356
221.804
222.248
222.677
223.084
223.466
223.821
224.149
224.449
224.72
224.965
225.186
225.385
225.567
225.735
225.89
226.036
226.169
226.288
226.403
226.523
226.633
226.708
226.77
226.847
226.929
227.022
227.114
227.163
227.205
227.263
227.32
227.37
227.416
227.457
227.495
227.531
227.564
227.594
227.62
227.642
227.66
227.674
227.684
227.691
227.695
227.695
227.692
227.686
227.677
227.665
227.649
227.632
227.611
227.588
227.564
227.537
227.509
227.48
227.45
227.418
227.385
227.352
227.32
227.289
227.558
227.866
228.082
228.223
228.329
228.429
228.541
228.674
228.867
229.528
199.727
214.009
214.668
214.993
215.968
216.968
217.81
218.528
219.134
219.764
212.306
209.315
209.356
210.28
211.348
212.409
213.424
214.366
215.22
215.981
216.649
217.228
217.721
218.134
218.474
218.75
218.969
219.143
219.28
219.391
219.485
219.566
219.638
219.701
219.766
219.845
219.923
219.959
219.985
220.039
220.105
220.192
220.287
220.33
220.367
220.433
220.5
220.563
220.622
220.676
220.728
220.775
220.817
220.853
220.881
220.902
220.915
220.92
220.918
220.907
220.888
220.86
220.823
220.777
220.723
220.659
220.587
220.506
220.416
220.318
220.213
220.1
219.98
219.855
219.723
219.587
219.444
219.296
219.142
218.894
221.376
223.813
225.497
226.598
227.334
227.843
228.225
228.559
228.947
229.883
199.211
213.267
213.916
214.237
215.198
216.183
217.012
217.717
218.307
218.885
211.486
208.518
208.543
209.453
210.518
211.583
212.606
213.559
214.427
215.203
215.886
216.479
216.983
217.406
217.752
218.03
218.248
218.416
218.543
218.64
218.717
218.783
218.841
218.897
218.963
219.059
219.162
219.214
219.256
219.343
219.453
219.599
219.764
219.862
219.953
220.089
220.234
220.38
220.528
220.68
220.835
220.994
221.153
221.312
221.469
221.625
221.778
221.929
222.077
222.219
222.356
222.485
222.607
222.718
222.819
222.907
222.98
223.039
223.081
223.106
223.113
223.101
223.071
223.022
222.955
222.87
222.767
222.648
222.513
222.346
224.25
226.101
227.373
228.205
228.761
229.148
229.451
229.77
230.261
231.535
198.703
212.538
213.177
213.494
214.44
215.41
216.227
216.922
217.501
218.061
210.77
207.837
207.856
208.749
209.796
210.845
211.854
212.795
213.652
214.419
215.094
215.677
216.172
216.584
216.919
217.185
217.389
217.541
217.649
217.724
217.776
217.816
217.85
217.881
217.925
218.007
218.098
218.119
218.121
218.18
218.262
218.388
218.54
218.602
218.648
218.752
218.866
218.98
219.097
219.218
219.342
219.467
219.59
219.713
219.834
219.955
220.077
220.198
220.321
220.445
220.57
220.696
220.824
220.953
221.084
221.218
221.353
221.49
221.628
221.768
221.909
222.05
222.191
222.331
222.468
222.603
222.732
222.855
222.97
223.064
224.962
226.715
227.89
228.66
229.197
229.603
229.953
230.36
231.014
232.67
198.204
211.82
212.449
212.762
213.694
214.649
215.454
216.138
216.708
217.259
210.081
207.192
207.208
208.086
209.116
210.15
211.144
212.072
212.917
213.673
214.338
214.913
215.401
215.805
216.134
216.395
216.597
216.746
216.851
216.919
216.962
216.99
217.013
217.036
217.074
217.157
217.253
217.262
217.241
217.289
217.363
217.489
217.649
217.697
217.719
217.812
217.916
218.022
218.129
218.24
218.349
218.454
218.551
218.641
218.727
218.808
218.887
218.961
219.033
219.1
219.163
219.221
219.276
219.327
219.374
219.417
219.456
219.491
219.523
219.551
219.576
219.598
219.618
219.635
219.651
219.664
219.675
219.682
219.681
219.6
221.448
223.152
224.273
225.006
225.536
225.965
226.365
226.834
227.492
228.924
197.712
211.114
211.733
212.041
212.959
213.9
214.694
215.368
215.929
216.471
209.408
206.565
206.58
207.444
208.458
209.475
210.454
211.367
212.2
212.945
213.6
214.167
214.646
215.043
215.366
215.623
215.824
215.975
216.082
216.149
216.187
216.207
216.22
216.235
216.27
216.358
216.465
216.468
216.431
216.474
216.548
216.679
216.857
216.901
216.912
217.005
217.115
217.23
217.349
217.468
217.583
217.69
217.791
217.89
217.988
218.086
218.182
218.274
218.362
218.445
218.523
218.597
218.667
218.734
218.798
218.86
218.918
218.973
219.024
219.072
219.115
219.154
219.189
219.218
219.242
219.259
219.269
219.27
219.257
219.168
220.937
222.549
223.584
224.231
224.668
225
225.305
225.676
226.253
227.64
197.228
210.419
211.029
211.332
212.236
213.163
213.945
214.608
215.162
215.695
208.745
205.948
205.964
206.814
207.812
208.813
209.777
210.678
211.498
212.232
212.877
213.434
213.906
214.296
214.611
214.864
215.064
215.22
215.333
215.405
215.442
215.455
215.459
215.466
215.497
215.59
215.709
215.712
215.663
215.704
215.78
215.919
216.117
216.164
216.168
216.269
216.393
216.527
216.665
216.799
216.921
217.031
217.137
217.245
217.357
217.47
217.581
217.69
217.797
217.901
218.005
218.107
218.209
218.311
218.412
218.514
218.617
218.72
218.824
218.93
219.038
219.147
219.258
219.372
219.488
219.606
219.725
219.848
219.974
220.096
221.916
223.559
224.633
225.319
225.795
226.169
226.524
226.955
227.627
229.336
196.753
209.734
210.335
210.634
211.525
212.437
213.207
213.861
214.406
214.932
208.092
205.341
205.359
206.197
207.181
208.167
209.117
210.003
210.811
211.534
212.169
212.718
213.181
213.563
213.872
214.118
214.316
214.474
214.597
214.68
214.723
214.733
214.728
214.725
214.749
214.844
214.974
214.979
214.921
214.96
215.037
215.182
215.398
215.451
215.453
215.565
215.71
215.869
216.028
216.173
216.297
216.408
216.517
216.633
216.756
216.882
217.006
217.127
217.247
217.365
217.483
217.601
217.719
217.838
217.957
218.077
218.199
218.321
218.444
218.568
218.693
218.818
218.943
219.067
219.19
219.309
219.424
219.535
219.641
219.735
221.506
223.117
224.168
224.825
225.262
225.583
225.864
226.2
226.774
228.305
196.285
209.061
209.653
209.948
210.824
211.723
212.481
213.125
213.663
214.184
207.443
204.731
204.751
205.58
206.552
207.524
208.46
209.333
210.127
210.837
211.46
211.996
212.447
212.816
213.111
213.343
213.53
213.683
213.809
213.901
213.95
213.958
213.94
213.918
213.924
214.006
214.135
214.133
214.06
214.089
214.16
214.302
214.528
214.586
214.59
214.718
214.889
215.072
215.246
215.39
215.504
215.601
215.7
215.81
215.926
216.041
216.152
216.256
216.357
216.453
216.547
216.638
216.726
216.812
216.895
216.975
217.052
217.125
217.194
217.259
217.317
217.37
217.415
217.453
217.481
217.499
217.505
217.499
217.476
217.41
219.134
220.731
221.767
222.41
222.833
223.137
223.386
223.655
224.093
225.277
195.825
208.4
208.982
209.273
210.136
211.022
211.768
212.403
212.934
213.461
206.785
204.095
204.11
204.93
205.892
206.852
207.771
208.621
209.387
210.062
210.645
211.137
211.54
211.859
212.103
212.284
212.423
212.536
212.633
212.709
212.747
212.739
212.694
212.634
212.599
212.645
212.75
212.726
212.628
212.638
212.696
212.832
213.067
213.143
213.17
213.337
213.556
213.783
213.984
214.138
214.251
214.346
214.443
214.547
214.65
214.741
214.818
214.879
214.928
214.967
214.998
215.023
215.041
215.055
215.064
215.068
215.067
215.062
215.051
215.035
215.013
214.985
214.95
214.909
214.86
214.803
214.737
214.659
214.55
214.335
216.124
217.861
219.041
219.816
220.353
220.747
221.054
221.337
221.705
222.67
195.374
207.75
208.324
208.61
209.46
210.332
211.067
211.694
212.226
212.757
206.856
204.571
204.623
205.366
206.234
207.092
207.891
208.608
209.23
209.753
210.182
210.522
210.784
210.976
211.109
211.198
211.261
211.318
211.381
211.444
211.487
211.488
211.444
211.373
211.318
211.343
211.44
211.413
211.305
211.306
211.357
211.484
211.723
211.813
211.863
212.071
212.342
212.616
212.85
213.026
213.161
213.284
213.41
213.536
213.647
213.733
213.782
213.8
213.792
213.767
213.731
213.687
213.638
213.586
213.531
213.476
213.418
213.36
213.299
213.237
213.172
213.105
213.036
212.964
212.889
212.811
212.727
212.635
212.531
212.342
214.273
216.141
217.437
218.303
218.9
219.323
219.635
219.89
220.17
220.94
194.929
207.111
207.675
207.958
208.795
209.653
210.377
210.996
211.539
211.991
212.273
212.554
212.871
213.201
213.53
213.846
214.147
214.429
214.694
214.941
215.171
215.385
215.583
215.765
215.928
216.076
216.217
216.368
216.542
216.733
216.916
217.052
217.124
217.143
217.157
217.257
217.443
217.479
217.397
217.423
217.479
217.585
217.799
217.806
217.738
217.847
218.011
218.149
218.22
218.225
218.208
218.211
218.251
218.315
218.384
218.444
218.495
218.537
218.573
218.604
218.632
218.654
218.673
218.688
218.701
218.71
218.718
218.722
218.725
218.726
218.726
218.724
218.721
218.716
218.71
218.702
218.693
218.684
218.676
218.68
218.736
218.803
218.866
218.92
218.968
219.015
219.065
219.13
219.255
219.874
194.491
206.479
207.034
207.313
208.137
208.982
209.695
210.307
210.849
211.33
211.747
212.13
212.49
212.827
213.141
213.433
213.705
213.959
214.196
214.418
214.627
214.823
215.008
215.181
215.34
215.484
215.618
215.758
215.923
216.116
216.316
216.485
216.59
216.629
216.642
216.729
216.911
216.95
216.872
216.898
216.947
217.038
217.246
217.258
217.197
217.315
217.476
217.591
217.625
217.602
217.575
217.585
217.638
217.712
217.786
217.851
217.907
217.958
218.005
218.049
218.089
218.126
218.158
218.188
218.215
218.238
218.258
218.276
218.291
218.304
218.315
218.323
218.33
218.334
218.337
218.338
218.338
218.336
218.333
218.334
218.343
218.357
218.374
218.394
218.418
218.446
218.482
218.532
218.653
219.327
194.055
205.851
206.398
206.673
207.484
208.316
209.019
209.621
210.157
210.639
211.072
211.465
211.826
212.159
212.466
212.752
213.017
213.265
213.496
213.714
213.918
214.111
214.295
214.469
214.632
214.78
214.915
215.047
215.198
215.38
215.584
215.773
215.909
215.971
215.99
216.063
216.231
216.267
216.186
216.207
216.245
216.316
216.518
216.54
216.494
216.624
216.781
216.877
216.892
216.869
216.865
216.909
216.994
217.091
217.182
217.263
217.337
217.406
217.473
217.535
217.592
217.646
217.695
217.74
217.781
217.818
217.852
217.882
217.91
217.934
217.956
217.975
217.992
218.007
218.02
218.031
218.041
218.049
218.057
218.065
218.076
218.091
218.11
218.135
218.164
218.2
218.241
218.298
218.449
219.272
193.622
205.227
205.766
206.036
206.835
207.654
208.346
208.939
209.468
209.944
210.375
210.767
211.125
211.454
211.757
212.039
212.3
212.545
212.773
212.988
213.19
213.38
213.562
213.737
213.903
214.058
214.199
214.331
214.47
214.635
214.829
215.024
215.179
215.263
215.291
215.354
215.506
215.533
215.455
215.464
215.478
215.514
215.68
215.695
215.646
215.764
215.894
215.953
215.943
215.917
215.926
215.984
216.07
216.158
216.237
216.309
216.376
216.44
216.501
216.556
216.606
216.65
216.69
216.725
216.756
216.782
216.806
216.826
216.843
216.859
216.872
216.884
216.896
216.907
216.917
216.928
216.94
216.952
216.965
216.981
217.001
217.026
217.058
217.097
217.143
217.197
217.257
217.338
217.526
218.388
193.192
204.608
205.137
205.404
206.191
206.997
207.677
208.261
208.782
209.252
209.678
210.064
210.418
210.743
211.042
211.321
211.579
211.821
212.048
212.26
212.46
212.649
212.828
213.002
213.172
213.336
213.491
213.634
213.774
213.928
214.107
214.296
214.46
214.557
214.592
214.648
214.785
214.802
214.682
214.649
214.599
214.546
214.655
214.615
214.513
214.571
214.635
214.631
214.574
214.523
214.513
214.539
214.575
214.605
214.627
214.647
214.668
214.688
214.704
214.717
214.727
214.735
214.742
214.749
214.757
214.766
214.778
214.792
214.808
214.827
214.848
214.873
214.9
214.929
214.962
214.996
215.033
215.072
215.114
215.159
215.208
215.262
215.323
215.391
215.466
215.547
215.636
215.752
215.974
216.78
192.768
203.996
204.517
204.78
205.554
206.348
207.018
207.593
208.106
208.569
208.989
209.37
209.719
210.04
210.336
210.612
210.868
211.107
211.332
211.543
211.742
211.929
212.106
212.277
212.447
212.619
212.791
212.955
213.111
213.268
213.439
213.621
213.785
213.887
213.92
213.966
214.092
214.096
214.078
213.922
213.627
213.293
212.983
212.716
212.451
212.365
212.299
212.182
212.04
211.923
211.853
211.808
211.77
211.739
211.724
211.728
211.75
211.785
211.827
211.874
211.927
211.985
212.048
212.114
212.184
212.257
212.332
212.409
212.487
212.566
212.645
212.725
212.805
212.885
212.965
213.044
213.123
213.202
213.281
213.361
213.443
213.527
213.616
213.71
213.808
213.911
214.022
214.162
214.398
215.117
192.356
203.402
203.915
204.174
204.937
205.718
206.378
206.945
207.45
207.906
208.32
208.697
209.041
209.358
209.651
209.923
210.177
210.415
210.638
210.848
211.046
211.233
211.408
211.576
211.743
211.916
212.099
212.285
212.467
212.642
212.82
213.002
213.171
213.28
213.312
213.345
213.464
213.446
212.545
211.688
210.637
209.632
209.481
209.044
208.629
208.48
208.408
208.334
208.276
208.264
208.295
208.353
208.43
208.53
208.657
208.809
208.972
209.138
209.301
209.46
209.616
209.768
209.916
210.061
210.202
210.34
210.474
210.605
210.732
210.856
210.977
211.095
211.209
211.321
211.43
211.535
211.638
211.738
211.837
211.935
212.034
212.134
212.238
212.344
212.453
212.568
212.693
212.848
213.085
213.735
191.968
202.844
203.349
203.605
204.356
205.126
205.776
206.335
206.833
207.283
207.691
208.063
208.403
208.717
209.007
209.276
209.528
209.764
209.986
210.196
210.395
210.582
210.758
210.924
211.086
211.253
211.434
211.63
211.833
212.033
212.229
212.423
212.608
212.743
212.795
212.827
212.954
212.756
213.657
211.828
209.493
207.932
205.165
204.328
204.221
204.468
204.775
205.061
205.336
205.614
205.885
206.142
206.392
206.647
206.91
207.173
207.424
207.66
207.878
208.083
208.277
208.462
208.639
208.808
208.969
209.124
209.273
209.417
209.556
209.691
209.822
209.948
210.071
210.19
210.305
210.417
210.526
210.632
210.736
210.839
210.943
211.047
211.154
211.262
211.373
211.491
211.623
211.787
212.025
212.63
191.623
202.347
202.844
203.097
203.838
204.597
205.239
205.79
206.281
206.726
207.129
207.496
207.833
208.143
208.43
208.698
208.949
209.184
209.406
209.616
209.815
210.005
210.183
210.351
210.51
210.668
210.837
211.025
211.232
211.446
211.659
211.869
212.08
212.262
212.376
212.445
212.584
212.294
205.586
200.931
198.656
197.659
200.153
201.231
201.653
202.279
202.955
203.564
204.094
204.558
204.956
205.301
205.617
205.919
206.21
206.482
206.73
206.954
207.158
207.348
207.53
207.705
207.873
208.036
208.194
208.346
208.494
208.637
208.775
208.909
209.037
209.162
209.282
209.399
209.512
209.622
209.728
209.832
209.934
210.035
210.136
210.238
210.342
210.448
210.558
210.675
210.811
210.977
211.209
211.786
191.337
201.936
202.428
202.678
203.411
204.162
204.797
205.342
205.828
206.268
206.667
207.031
207.364
207.671
207.956
208.222
208.471
208.705
208.927
209.138
209.34
209.532
209.715
209.887
210.047
210.201
210.358
210.528
210.72
210.931
211.148
211.369
211.6
211.834
212.033
212.165
212.318
212.16
192.242
185.174
183.773
183.109
196.559
200.556
201.02
201.496
202.154
202.806
203.39
203.901
204.344
204.739
205.103
205.44
205.745
206.02
206.265
206.488
206.695
206.889
207.074
207.251
207.42
207.583
207.739
207.889
208.033
208.171
208.304
208.431
208.554
208.673
208.787
208.898
209.006
209.11
209.212
209.311
209.409
209.506
209.603
209.703
209.804
209.908
210.018
210.139
210.279
210.451
210.683
211.243
191.127
201.634
202.122
202.37
203.098
203.844
204.475
205.017
205.501
205.939
206.336
206.698
207.029
207.335
207.618
207.882
208.129
208.363
208.584
208.795
208.997
209.192
209.378
209.555
209.721
209.877
210.03
210.188
210.365
210.564
210.779
211.005
211.246
211.516
211.789
211.973
212.15
212.122
182.333
173.625
172.923
172.482
194.28
200.43
200.863
201.145
201.697
202.297
202.851
203.348
203.8
204.222
204.618
204.989
205.332
205.642
205.923
206.181
206.422
206.645
206.852
207.045
207.226
207.396
207.555
207.705
207.847
207.981
208.108
208.231
208.348
208.462
208.572
208.678
208.781
208.881
208.979
209.075
209.171
209.266
209.364
209.464
209.567
209.675
209.791
209.922
210.075
210.262
210.511
211.074
190.997
201.448
201.933
202.18
202.905
203.649
204.279
204.821
205.306
205.745
206.145
206.509
206.842
207.15
207.435
207.7
207.948
208.181
208.401
208.612
208.814
209.009
209.197
209.377
209.547
209.706
209.861
210.018
210.192
210.39
210.606
210.836
211.086
211.373
211.675
211.83
211.974
212.063
178.726
169.476
169.079
168.765
194.317
201.374
201.616
201.607
201.912
202.323
202.733
203.128
203.519
203.915
204.313
204.706
205.083
205.435
205.762
206.068
206.353
206.614
206.852
207.07
207.268
207.449
207.616
207.771
207.915
208.05
208.179
208.302
208.42
208.534
208.644
208.75
208.852
208.952
209.05
209.147
209.245
209.344
209.447
209.554
209.667
209.788
209.92
210.068
210.24
210.452
210.738
211.329
190.94
201.366
201.849
202.095
202.819
203.561
204.19
204.733
205.22
205.662
206.065
206.434
206.774
207.088
207.379
207.651
207.904
208.143
208.368
208.582
208.788
208.986
209.177
209.361
209.534
209.696
209.85
210.005
210.178
210.376
210.596
210.809
211.17
211.452
211.71
211.707
211.743
212.089
178.466
169.266
169.062
168.889
199.06
206.696
206.014
205.027
204.522
204.31
204.242
204.274
204.398
204.605
204.876
205.184
205.507
205.828
206.138
206.452
206.632
206.878
207.123
207.345
207.548
207.734
207.908
208.071
208.224
208.37
208.508
208.641
208.769
208.891
209.008
209.119
209.226
209.332
209.437
209.544
209.652
209.762
209.875
209.995
210.126
210.272
210.436
210.616
210.817
211.055
211.372
212.037
190.936
201.36
201.842
202.087
202.809
203.55
204.178
204.719
205.204
205.646
206.049
206.42
206.763
207.082
207.38
207.66
207.923
208.171
208.407
208.632
208.849
209.059
209.263
209.46
209.647
209.819
209.983
210.132
210.286
210.458
210.632
210.786
211.041
211.159
211.196
210.915
211.041
211.511
178.567
169.502
169.383
169.396
202.051
210.83
210.181
208.995
208.252
207.771
207.378
207.051
206.813
206.677
206.636
206.669
206.754
206.876
207.024
207.211
207.301
207.48
207.675
207.866
208.053
208.237
208.417
208.594
208.766
208.933
209.095
209.25
209.4
209.544
209.682
209.811
209.933
210.051
210.17
210.295
210.426
210.56
210.695
210.828
210.964
211.109
211.278
211.484
211.741
212.07
212.515
213.4
190.959
201.395
201.877
202.121
202.843
203.583
204.209
204.747
205.229
205.667
206.067
206.434
206.774
207.09
207.388
207.669
207.935
208.19
208.433
208.669
208.898
209.123
209.346
209.564
209.775
209.97
210.112
210.245
210.355
210.445
210.533
210.521
210.525
210.264
209.807
209.313
210.27
211.183
178.078
168.695
168.523
168.704
202.698
212.274
211.12
209.664
209.012
208.711
208.48
208.265
208.074
207.921
207.811
207.744
207.717
207.724
207.769
207.872
207.9
208.038
208.213
208.402
208.604
208.815
209.03
209.247
209.463
209.676
209.884
210.083
210.272
210.451
210.623
210.793
210.96
211.122
211.275
211.421
211.566
211.721
211.893
212.084
212.289
212.501
212.723
212.966
213.258
213.643
214.197
215.375
190.988
201.436
201.919
202.164
202.887
203.628
204.254
204.792
205.273
205.709
206.106
206.47
206.805
207.117
207.41
207.687
207.95
208.203
208.447
208.684
208.917
209.149
209.381
209.614
209.842
210.052
210.334
210.428
210.398
210.277
209.958
209.634
209.306
208.625
207.655
207.062
208.592
209.559
179.86
172.051
171.855
172.126
204.822
214.035
212.684
212.054
210.888
209.839
209.123
208.646
208.322
208.118
208.006
207.968
207.989
208.064
208.187
208.37
208.48
208.701
208.964
209.244
209.533
209.827
210.122
210.41
210.685
210.947
211.194
211.43
211.659
211.877
212.083
212.274
212.457
212.641
212.831
213.025
213.215
213.398
213.577
213.763
213.967
214.191
214.42
214.639
214.845
215.061
215.339
216.056
191.006
201.463
201.947
202.193
202.917
203.659
204.287
204.827
205.31
205.747
206.146
206.51
206.846
207.159
207.451
207.727
207.99
208.242
208.486
208.724
208.959
209.194
209.433
209.673
209.909
210.12
209.663
209.345
208.852
208.241
208.153
207.664
207.208
206.558
205.725
204.202
202.047
214.193
212.298
210.293
209.353
208.823
208.534
208.43
208.481
208.64
208.871
209.167
209.499
209.855
210.053
210.312
210.542
210.74
210.922
211.095
211.265
211.437
211.608
211.773
211.936
212.095
212.249
212.396
212.537
212.671
212.799
212.918
213.027
213.126
213.214
213.291
213.358
213.415
213.465
213.507
213.544
213.585
213.642
213.734
213.894
214.43
191.01
201.468
201.952
202.198
202.922
203.665
204.294
204.835
205.319
205.758
206.158
206.524
206.862
207.177
207.472
207.75
208.016
208.272
208.52
208.763
209.005
209.249
209.498
209.75
209.999
210.059
211.862
211.2
209.74
208.625
205.776
204.867
204.857
204.991
205.355
204.624
201.378
214.074
212.754
210.953
210.103
209.664
209.405
209.297
209.322
209.443
209.609
209.843
210.067
210.259
210.277
210.368
210.462
210.546
210.626
210.708
210.794
210.884
210.978
211.075
211.172
211.268
211.361
211.452
211.538
211.62
211.698
211.769
211.834
211.891
211.943
211.99
212.033
212.075
212.115
212.154
212.195
212.247
212.319
212.42
212.578
213.067
191.002
201.456
201.94
202.185
202.909
203.651
204.279
204.82
205.303
205.742
206.142
206.509
206.847
207.162
207.457
207.737
208.004
208.262
208.513
208.761
209.009
209.26
209.52
209.782
210.005
209.974
204.827
201.291
199.533
198.805
201.482
202.67
203.394
204.203
205.364
205.318
201.301
214.119
212.931
211.185
210.334
209.855
209.506
209.285
209.186
209.174
209.216
209.327
209.455
209.575
209.552
209.605
209.668
209.725
209.781
209.841
209.907
209.978
210.054
210.134
210.214
210.293
210.371
210.447
210.52
210.589
210.654
210.715
210.773
210.827
210.878
210.926
210.973
211.02
211.067
211.115
211.17
211.237
211.323
211.433
211.593
212.067
190.989
201.437
201.92
202.165
202.888
203.63
204.257
204.797
205.28
205.718
206.118
206.484
206.822
207.137
207.433
207.713
207.981
208.239
208.492
208.742
208.992
209.246
209.507
209.761
209.913
209.975
191.207
184.772
183.666
183.209
197.735
202.175
203.111
203.974
205.404
205.752
201.318
214.15
212.947
211.097
210.126
209.53
209.088
208.797
208.64
208.586
208.615
208.692
208.776
208.874
208.846
208.896
208.954
209.004
209.052
209.102
209.156
209.213
209.274
209.338
209.404
209.47
209.536
209.602
209.666
209.729
209.79
209.849
209.907
209.963
210.018
210.072
210.127
210.182
210.24
210.301
210.372
210.455
210.554
210.67
210.833
211.299
190.976
201.419
201.902
202.147
202.87
203.611
204.237
204.777
205.259
205.696
206.095
206.461
206.799
207.113
207.408
207.688
207.956
208.214
208.466
208.716
208.966
209.219
209.476
209.716
209.798
209.884
180.651
172.157
171.603
171.332
195.022
201.907
202.925
203.667
205.051
205.445
201.472
214.445
213.167
211.341
210.348
209.677
209.147
208.793
208.589
208.503
208.49
208.516
208.562
208.636
208.597
208.635
208.68
208.716
208.746
208.776
208.808
208.842
208.879
208.919
208.962
209.007
209.053
209.101
209.151
209.201
209.253
209.305
209.358
209.412
209.466
209.523
209.581
209.641
209.706
209.776
209.856
209.949
210.053
210.172
210.34
210.809
190.968
201.407
201.891
202.136
202.859
203.6
204.227
204.766
205.248
205.685
206.083
206.448
206.785
207.099
207.393
207.671
207.936
208.192
208.442
208.688
208.934
209.183
209.432
209.656
209.69
209.767
176.444
167.15
166.827
166.69
194.35
202.22
203.094
203.518
204.529
204.576
201.884
215.281
214.014
212.122
211.015
210.225
209.589
209.169
208.928