/*--------------------------------*- C++ -*----------------------------------*\
| =========                 |                                                 |
| \\      /  F ield         | OpenFOAM: The Open Source CFD Toolbox           |
|  \\    /   O peration     | Version:  v2012                                 |
|   \\  /    A nd           | Website:  www.openfoam.com                      |
|    \\/     M anipulation  |                                                 |
\*---------------------------------------------------------------------------*/
FoamFile
{
    version     2.0;
    format      ascii;
    class       volScalarField;
    location    "500/air";
    object      ILambda_59_0;
}
// * * * * * * * * * * * * * * * * * * * * * * * * * * * * * * * * * * * * * //

dimensions      [1 0 -3 0 0 0 0];


internalField   nonuniform List<scalar> 
287104
(
166.757
166.824
166.886
166.946
167.005
167.063
167.12
167.176
167.23
167.284
167.337
167.39
167.441
167.492
167.543
167.593
167.642
167.691
167.74
167.788
167.835
167.883
167.93
167.976
168.023
168.069
168.115
168.16
168.205
168.251
168.295
168.34
168.384
168.428
168.472
168.516
168.56
168.603
168.646
168.69
168.732
168.775
168.818
168.86
168.902
168.945
168.986
169.028
169.07
169.111
169.153
169.194
169.235
169.276
169.317
169.358
169.398
169.439
169.479
169.52
169.56
169.6
169.64
169.68
169.72
169.76
169.8
169.84
169.88
169.919
169.959
169.999
170.038
170.078
170.118
170.158
170.198
170.238
170.279
170.319
170.36
170.401
170.444
170.487
170.531
170.574
170.587
170.468
170.427
174.492
166.697
166.694
166.688
166.684
166.68
166.677
166.675
166.673
166.671
166.67
166.67
166.669
166.669
166.67
166.67
166.671
166.673
166.674
166.676
166.677
166.68
166.682
166.684
166.687
166.689
166.692
166.695
166.698
166.702
166.705
166.709
166.712
166.716
166.72
166.723
166.727
166.731
166.736
166.74
166.744
166.748
166.753
166.757
166.762
166.767
166.771
166.776
166.781
166.786
166.791
166.796
166.801
166.806
166.811
166.816
166.821
166.827
166.832
166.838
166.843
166.849
166.854
166.86
166.865
166.871
166.877
166.883
166.889
166.895
166.9
166.906
166.913
166.919
166.925
166.931
166.937
166.943
166.95
166.956
166.962
166.969
166.975
166.982
166.989
166.993
166.986
166.933
166.762
166.949
172.442
166.72
166.731
166.736
166.743
166.749
166.755
166.761
166.767
166.773
166.779
166.785
166.791
166.797
166.803
166.809
166.815
166.821
166.827
166.832
166.838
166.844
166.85
166.856
166.862
166.867
166.873
166.879
166.885
166.891
166.896
166.902
166.908
166.914
166.92
166.925
166.931
166.937
166.943
166.949
166.954
166.96
166.966
166.972
166.978
166.984
166.989
166.995
167.001
167.007
167.013
167.019
167.025
167.031
167.036
167.042
167.048
167.054
167.06
167.066
167.072
167.078
167.084
167.089
167.095
167.101
167.107
167.113
167.119
167.125
167.131
167.136
167.142
167.148
167.154
167.16
167.165
167.171
167.177
167.182
167.188
167.194
167.2
167.205
167.21
167.212
167.203
167.162
167.045
167.313
172.589
166.731
166.743
166.75
166.758
166.766
166.773
166.781
166.789
166.797
166.805
166.812
166.82
166.828
166.835
166.843
166.85
166.858
166.865
166.873
166.88
166.888
166.895
166.903
166.91
166.917
166.925
166.932
166.94
166.947
166.954
166.961
166.969
166.976
166.983
166.991
166.998
167.005
167.012
167.019
167.027
167.034
167.041
167.048
167.055
167.062
167.069
167.077
167.084
167.091
167.098
167.105
167.112
167.119
167.126
167.133
167.14
167.147
167.154
167.161
167.168
167.175
167.182
167.189
167.196
167.202
167.209
167.216
167.223
167.23
167.237
167.243
167.25
167.257
167.264
167.27
167.277
167.284
167.291
167.298
167.304
167.311
167.318
167.324
167.331
167.336
167.334
167.306
167.204
167.459
172.593
166.739
166.751
166.757
166.765
166.773
166.781
166.789
166.796
166.804
166.812
166.819
166.827
166.835
166.842
166.85
166.857
166.865
166.872
166.88
166.887
166.895
166.902
166.91
166.917
166.925
166.932
166.94
166.947
166.954
166.962
166.969
166.977
166.984
166.991
166.999
167.006
167.013
167.021
167.028
167.035
167.043
167.05
167.057
167.065
167.072
167.079
167.086
167.093
167.101
167.108
167.115
167.122
167.129
167.136
167.144
167.151
167.158
167.165
167.172
167.179
167.186
167.193
167.2
167.207
167.214
167.221
167.228
167.235
167.242
167.249
167.256
167.263
167.27
167.277
167.284
167.291
167.298
167.305
167.312
167.319
167.325
167.331
167.339
167.346
167.354
167.357
167.333
167.231
167.468
172.502
166.746
166.758
166.765
166.772
166.78
166.788
166.795
166.803
166.81
166.818
166.825
166.833
166.84
166.848
166.855
166.863
166.87
166.877
166.885
166.892
166.9
166.907
166.914
166.922
166.929
166.936
166.944
166.951
166.958
166.965
166.973
166.98
166.987
166.994
167.002
167.009
167.016
167.023
167.03
167.038
167.045
167.052
167.059
167.066
167.073
167.08
167.087
167.094
167.101
167.108
167.115
167.122
167.129
167.136
167.143
167.15
167.157
167.164
167.171
167.178
167.185
167.192
167.199
167.206
167.213
167.22
167.227
167.234
167.241
167.248
167.255
167.262
167.269
167.276
167.283
167.291
167.297
167.304
167.309
167.314
167.319
167.324
167.331
167.34
167.348
167.353
167.335
167.238
167.448
172.201
166.752
166.763
166.77
166.778
166.785
166.793
166.8
166.808
166.815
166.823
166.83
166.837
166.845
166.852
166.86
166.867
166.874
166.882
166.889
166.896
166.904
166.911
166.918
166.925
166.933
166.94
166.947
166.954
166.961
166.968
166.976
166.983
166.99
166.997
167.004
167.011
167.018
167.025
167.032
167.039
167.046
167.053
167.06
167.067
167.074
167.081
167.088
167.095
167.101
167.108
167.115
167.122
167.129
167.136
167.143
167.149
167.156
167.163
167.17
167.177
167.184
167.19
167.197
167.204
167.211
167.218
167.225
167.231
167.238
167.245
167.252
167.259
167.266
167.273
167.28
167.287
167.293
167.298
167.301
167.304
167.306
167.31
167.316
167.324
167.333
167.339
167.331
167.261
167.427
171.518
166.755
166.766
166.773
166.781
166.788
166.795
166.803
166.81
166.818
166.825
166.833
166.84
166.847
166.855
166.862
166.869
166.877
166.884
166.891
166.898
166.906
166.913
166.92
166.927
166.934
166.941
166.949
166.956
166.963
166.97
166.977
166.984
166.991
166.998
167.005
167.012
167.018
167.025
167.032
167.039
167.046
167.053
167.059
167.066
167.073
167.08
167.087
167.093
167.1
167.107
167.113
167.12
167.127
167.133
167.14
167.147
167.153
167.16
167.166
167.173
167.18
167.186
167.193
167.199
167.206
167.212
167.219
167.225
167.232
167.238
167.245
167.251
167.258
167.265
167.272
167.278
167.283
167.286
167.286
167.286
167.286
167.289
167.294
167.302
167.31
167.318
167.32
167.295
167.448
170.534
166.756
166.767
166.774
166.781
166.789
166.796
166.804
166.811
166.818
166.826
166.833
166.84
166.848
166.855
166.862
166.87
166.877
166.884
166.892
166.899
166.906
166.913
166.92
166.927
166.935
166.942
166.949
166.956
166.963
166.97
166.976
166.983
166.99
166.997
167.004
167.011
167.017
167.024
167.031
167.038
167.044
167.051
167.057
167.064
167.071
167.077
167.084
167.09
167.097
167.103
167.11
167.116
167.122
167.129
167.135
167.142
167.148
167.154
167.16
167.167
167.173
167.179
167.186
167.192
167.198
167.205
167.211
167.217
167.223
167.23
167.236
167.242
167.249
167.256
167.263
167.269
167.273
167.274
167.273
167.271
167.27
167.272
167.277
167.285
167.294
167.303
167.31
167.315
167.478
169.944
166.756
166.767
166.773
166.781
166.788
166.796
166.803
166.811
166.818
166.825
166.833
166.84
166.847
166.855
166.862
166.87
166.877
166.885
166.892
166.899
166.907
166.914
166.921
166.929
166.936
166.943
166.95
166.957
166.964
166.972
166.979
166.986
166.993
167
167.007
167.014
167.021
167.028
167.035
167.042
167.049
167.056
167.063
167.069
167.076
167.083
167.09
167.097
167.103
167.11
167.117
167.123
167.13
167.136
167.143
167.149
167.156
167.162
167.168
167.175
167.181
167.187
167.194
167.2
167.206
167.213
167.219
167.225
167.231
167.237
167.243
167.25
167.256
167.263
167.27
167.275
167.279
167.279
167.277
167.274
167.272
167.274
167.279
167.287
167.296
167.3
167.303
167.33
167.572
170.063
166.755
166.766
166.773
166.78
166.788
166.795
166.802
166.81
166.817
166.825
166.833
166.841
166.85
166.859
166.867
166.876
166.884
166.893
166.901
166.909
166.917
166.925
166.933
166.941
166.949
166.957
166.965
166.973
166.98
166.988
166.996
167.003
167.011
167.019
167.026
167.034
167.042
167.049
167.057
167.065
167.073
167.08
167.088
167.096
167.104
167.111
167.119
167.127
167.134
167.142
167.15
167.157
167.165
167.172
167.18
167.187
167.195
167.202
167.209
167.216
167.223
167.23
167.237
167.244
167.251
167.257
167.264
167.27
167.276
167.283
167.289
167.295
167.302
167.309
167.315
167.32
167.323
167.323
167.319
167.314
167.311
167.31
167.315
167.324
167.33
167.316
167.287
167.359
167.936
171.211
166.755
166.766
166.772
166.78
166.787
166.795
166.802
166.809
166.816
166.824
166.832
166.841
166.849
166.858
166.867
166.875
166.884
166.892
166.901
166.909
166.917
166.926
166.934
166.942
166.95
166.958
166.966
166.974
166.981
166.989
166.997
167.005
167.012
167.02
167.028
167.036
167.044
167.052
167.06
167.068
167.076
167.084
167.092
167.1
167.108
167.117
167.125
167.134
167.142
167.151
167.159
167.168
167.177
167.186
167.195
167.204
167.213
167.223
167.232
167.242
167.251
167.261
167.271
167.281
167.291
167.301
167.311
167.321
167.331
167.341
167.351
167.361
167.372
167.382
167.393
167.402
167.408
167.411
167.41
167.407
167.404
167.406
167.413
167.425
167.424
167.361
167.241
167.462
169.087
174.201
166.755
166.766
166.772
166.78
166.787
166.794
166.801
166.809
166.816
166.823
166.832
166.84
166.849
166.857
166.866
166.874
166.883
166.891
166.9
166.908
166.916
166.924
166.932
166.94
166.948
166.956
166.964
166.971
166.979
166.987
166.994
167.002
167.009
167.017
167.025
167.032
167.04
167.047
167.055
167.063
167.07
167.078
167.086
167.094
167.101
167.109
167.117
167.125
167.133
167.141
167.149
167.157
167.165
167.174
167.182
167.19
167.199
167.208
167.216
167.225
167.234
167.243
167.253
167.262
167.272
167.282
167.292
167.302
167.313
167.323
167.335
167.346
167.358
167.371
167.383
167.395
167.405
167.411
167.413
167.414
167.416
167.422
167.436
167.455
167.457
167.373
167.2
167.447
169.663
176.549
166.755
166.766
166.772
166.78
166.787
166.794
166.801
166.808
166.816
166.823
166.831
166.84
166.848
166.857
166.865
166.874
166.882
166.891
166.899
166.907
166.915
166.923
166.931
166.939
166.947
166.955
166.962
166.97
166.977
166.985
166.992
167
167.007
167.015
167.022
167.03
167.037
167.045
167.052
167.059
167.067
167.074
167.082
167.09
167.097
167.105
167.112
167.12
167.127
167.135
167.142
167.15
167.158
167.165
167.173
167.18
167.188
167.196
167.203
167.211
167.219
167.227
167.234
167.242
167.25
167.258
167.266
167.274
167.282
167.29
167.298
167.307
167.316
167.326
167.335
167.343
167.349
167.352
167.351
167.347
167.345
167.347
167.356
167.37
167.372
167.323
167.239
167.408
168.77
174.026
166.755
166.765
166.772
166.779
166.787
166.794
166.801
166.808
166.815
166.823
166.831
166.839
166.848
166.856
166.865
166.873
166.881
166.89
166.898
166.906
166.914
166.922
166.93
166.938
166.946
166.953
166.961
166.968
166.976
166.983
166.991
166.998
167.006
167.013
167.02
167.028
167.035
167.043
167.05
167.057
167.065
167.072
167.08
167.087
167.095
167.102
167.11
167.117
167.125
167.132
167.14
167.147
167.155
167.162
167.17
167.177
167.185
167.192
167.2
167.207
167.215
167.222
167.23
167.238
167.245
167.253
167.26
167.268
167.275
167.283
167.291
167.298
167.307
167.315
167.323
167.33
167.335
167.336
167.332
167.326
167.321
167.32
167.325
167.334
167.339
167.322
167.274
167.283
168.049
172.8
166.755
166.765
166.772
166.779
166.786
166.794
166.801
166.808
166.815
166.822
166.831
166.839
166.847
166.856
166.864
166.872
166.881
166.889
166.897
166.905
166.913
166.921
166.929
166.937
166.944
166.952
166.96
166.967
166.974
166.982
166.989
166.997
167.004
167.011
167.019
167.026
167.033
167.041
167.048
167.056
167.063
167.071
167.078
167.086
167.093
167.101
167.108
167.116
167.123
167.131
167.138
167.146
167.154
167.161
167.169
167.177
167.184
167.192
167.2
167.208
167.215
167.223
167.231
167.239
167.247
167.255
167.263
167.272
167.28
167.288
167.296
167.305
167.314
167.323
167.333
167.341
167.347
167.349
167.347
167.342
167.338
167.338
167.344
167.354
167.365
167.353
167.261
167.14
168.062
174.374
166.755
166.765
166.772
166.779
166.786
166.793
166.8
166.808
166.815
166.822
166.83
166.838
166.847
166.855
166.863
166.872
166.88
166.888
166.896
166.904
166.912
166.92
166.928
166.935
166.943
166.951
166.958
166.966
166.973
166.98
166.988
166.995
167.002
167.01
167.017
167.024
167.032
167.039
167.047
167.054
167.061
167.069
167.076
167.084
167.092
167.099
167.107
167.114
167.122
167.13
167.137
167.145
167.153
167.161
167.169
167.176
167.184
167.192
167.2
167.209
167.217
167.225
167.233
167.242
167.25
167.259
167.268
167.277
167.285
167.295
167.304
167.313
167.323
167.334
167.344
167.354
167.361
167.364
167.364
167.36
167.357
167.357
167.363
167.376
167.387
167.354
167.208
167.147
168.582
175.088
166.754
166.765
166.771
166.779
166.786
166.793
166.8
166.807
166.814
166.822
166.83
166.838
166.846
166.854
166.863
166.871
166.879
166.887
166.895
166.903
166.911
166.919
166.926
166.934
166.942
166.949
166.957
166.964
166.971
166.979
166.986
166.993
167.001
167.008
167.015
167.022
167.03
167.037
167.044
167.051
167.059
167.066
167.073
167.081
167.088
167.096
167.103
167.111
167.118
167.126
167.134
167.141
167.149
167.157
167.164
167.172
167.18
167.188
167.196
167.204
167.212
167.221
167.229
167.237
167.246
167.254
167.263
167.271
167.28
167.289
167.298
167.307
167.316
167.326
167.335
167.344
167.35
167.352
167.351
167.346
167.34
167.338
167.341
167.35
167.356
167.317
167.196
167.238
168.541
173.657
166.754
166.765
166.771
166.779
166.786
166.793
166.8
166.807
166.814
166.821
166.829
166.837
166.845
166.853
166.862
166.87
166.878
166.886
166.894
166.902
166.91
166.917
166.925
166.932
166.94
166.947
166.954
166.962
166.969
166.976
166.983
166.99
166.997
167.004
167.011
167.017
167.024
167.031
167.038
167.045
167.052
167.059
167.066
167.073
167.08
167.087
167.094
167.102
167.109
167.116
167.124
167.131
167.138
167.146
167.153
167.161
167.168
167.176
167.183
167.191
167.198
167.206
167.213
167.221
167.228
167.236
167.243
167.251
167.258
167.266
167.273
167.281
167.288
167.296
167.304
167.311
167.315
167.316
167.312
167.305
167.297
167.292
167.292
167.297
167.299
167.276
167.219
167.27
168.014
171.73
166.754
166.765
166.771
166.778
166.785
166.792
166.799
166.806
166.813
166.821
166.828
166.837
166.845
166.853
166.861
166.869
166.877
166.884
166.892
166.899
166.907
166.914
166.921
166.928
166.935
166.942
166.949
166.955
166.962
166.969
166.975
166.982
166.988
166.995
167.001
167.007
167.014
167.02
167.027
167.033
167.04
167.047
167.053
167.06
167.067
167.074
167.081
167.088
167.095
167.102
167.109
167.116
167.123
167.13
167.137
167.143
167.15
167.157
167.164
167.17
167.177
167.183
167.19
167.196
167.203
167.209
167.216
167.222
167.228
167.235
167.241
167.248
167.254
167.261
167.268
167.273
167.277
167.277
167.272
167.265
167.257
167.251
167.249
167.252
167.254
167.247
167.235
167.257
167.573
170.393
166.754
166.764
166.771
166.778
166.785
166.792
166.799
166.806
166.813
166.82
166.827
166.834
166.841
166.848
166.854
166.861
166.868
166.875
166.882
166.889
166.895
166.902
166.909
166.916
166.922
166.929
166.935
166.942
166.948
166.955
166.961
166.968
166.974
166.981
166.987
166.994
167
167.006
167.013
167.019
167.025
167.032
167.038
167.045
167.051
167.058
167.064
167.07
167.077
167.083
167.09
167.096
167.102
167.109
167.115
167.121
167.127
167.134
167.14
167.146
167.152
167.159
167.165
167.171
167.177
167.183
167.189
167.195
167.202
167.208
167.214
167.22
167.227
167.234
167.24
167.246
167.249
167.25
167.246
167.239
167.232
167.227
167.226
167.228
167.231
167.232
167.235
167.234
167.384
169.808
166.754
166.764
166.77
166.778
166.784
166.791
166.798
166.805
166.812
166.819
166.826
166.833
166.84
166.846
166.853
166.86
166.867
166.873
166.88
166.887
166.893
166.9
166.906
166.913
166.92
166.926
166.933
166.939
166.945
166.952
166.958
166.965
166.971
166.977
166.984
166.99
166.997
167.003
167.009
167.016
167.022
167.028
167.035
167.041
167.047
167.054
167.06
167.066
167.072
167.079
167.085
167.091
167.097
167.104
167.11
167.116
167.122
167.128
167.134
167.14
167.147
167.153
167.159
167.165
167.171
167.177
167.183
167.189
167.195
167.202
167.208
167.214
167.221
167.228
167.234
167.24
167.244
167.244
167.241
167.235
167.228
167.223
167.222
167.223
167.226
167.229
167.231
167.215
167.331
169.837
166.754
166.764
166.77
166.777
166.784
166.791
166.798
166.805
166.812
166.818
166.825
166.832
166.839
166.846
166.852
166.859
166.866
166.872
166.879
166.886
166.892
166.899
166.905
166.912
166.918
166.925
166.931
166.938
166.944
166.951
166.957
166.964
166.97
166.976
166.983
166.989
166.995
167.002
167.008
167.014
167.021
167.027
167.034
167.04
167.046
167.053
167.059
167.065
167.072
167.078
167.084
167.091
167.097
167.104
167.11
167.116
167.123
167.129
167.135
167.142
167.148
167.154
167.161
167.167
167.174
167.18
167.186
167.193
167.199
167.206
167.212
167.219
167.226
167.233
167.24
167.247
167.251
167.252
167.249
167.244
167.237
167.233
167.231
167.233
167.235
167.236
167.232
167.197
167.331
170.409
166.754
166.764
166.77
166.777
166.784
166.791
166.797
166.804
166.811
166.818
166.825
166.831
166.838
166.845
166.851
166.858
166.865
166.871
166.878
166.884
166.891
166.898
166.904
166.911
166.917
166.924
166.93
166.936
166.943
166.949
166.956
166.962
166.968
166.975
166.981
166.988
166.994
167
167.007
167.013
167.019
167.025
167.032
167.038
167.045
167.051
167.057
167.064
167.07
167.077
167.083
167.089
167.096
167.102
167.109
167.115
167.122
167.128
167.135
167.141
167.148
167.154
167.161
167.168
167.174
167.181
167.188
167.194
167.201
167.208
167.214
167.221
167.229
167.236
167.243
167.25
167.254
167.256
167.254
167.249
167.243
167.239
167.238
167.239
167.24
167.238
167.231
167.209
167.439
170.704
166.753
166.764
166.77
166.777
166.783
166.79
166.797
166.804
166.811
166.817
166.824
166.831
166.837
166.844
166.851
166.857
166.864
166.87
166.877
166.883
166.89
166.896
166.903
166.909
166.916
166.922
166.929
166.935
166.941
166.948
166.954
166.96
166.967
166.973
166.98
166.986
166.992
166.998
167.005
167.011
167.017
167.023
167.03
167.036
167.042
167.049
167.055
167.062
167.068
167.074
167.081
167.087
167.094
167.1
167.107
167.113
167.12
167.126
167.133
167.139
167.146
167.153
167.159
167.166
167.172
167.179
167.186
167.192
167.199
167.206
167.213
167.22
167.227
167.235
167.242
167.248
167.253
167.255
167.253
167.248
167.242
167.239
167.238
167.239
167.237
167.233
167.23
167.253
167.593
170.602
166.753
166.763
166.769
166.776
166.783
166.79
166.797
166.803
166.81
166.817
166.823
166.83
166.837
166.843
166.85
166.856
166.863
166.869
166.876
166.882
166.889
166.895
166.902
166.908
166.914
166.921
166.927
166.934
166.94
166.946
166.953
166.959
166.965
166.972
166.978
166.984
166.99
166.996
167.002
167.009
167.015
167.021
167.027
167.034
167.04
167.046
167.053
167.059
167.065
167.072
167.078
167.085
167.091
167.097
167.104
167.11
167.117
167.123
167.13
167.136
167.143
167.149
167.156
167.162
167.169
167.176
167.182
167.189
167.196
167.202
167.209
167.216
167.224
167.231
167.238
167.245
167.249
167.251
167.249
167.244
167.239
167.236
167.235
167.235
167.232
167.227
167.235
167.307
167.719
170.351
166.753
166.763
166.769
166.776
166.783
166.79
166.796
166.803
166.809
166.816
166.823
166.829
166.836
166.842
166.849
166.855
166.862
166.868
166.875
166.881
166.888
166.894
166.9
166.907
166.913
166.919
166.926
166.932
166.938
166.945
166.951
166.957
166.964
166.97
166.976
166.983
166.99
166.998
167.005
167.01
167.015
167.019
167.024
167.031
167.037
167.043
167.049
167.056
167.062
167.068
167.075
167.081
167.087
167.094
167.1
167.106
167.113
167.119
167.126
167.132
167.139
167.145
167.152
167.158
167.165
167.172
167.178
167.185
167.192
167.198
167.205
167.212
167.219
167.227
167.234
167.241
167.245
167.247
167.245
167.24
167.235
167.232
167.231
167.23
167.226
167.223
167.245
167.354
167.792
170.125
166.753
166.763
166.769
166.776
166.783
166.789
166.796
166.802
166.809
166.816
166.822
166.829
166.835
166.842
166.848
166.855
166.861
166.867
166.874
166.88
166.887
166.893
166.899
166.906
166.912
166.918
166.924
166.931
166.937
166.943
166.949
166.956
166.962
166.969
166.975
166.979
166.975
166.957
166.939
166.943
166.955
166.989
167.027
167.026
167.033
167.039
167.045
167.052
167.058
167.064
167.071
167.077
167.083
167.09
167.096
167.103
167.109
167.115
167.122
167.128
167.135
167.141
167.148
167.154
167.161
167.168
167.174
167.181
167.187
167.194
167.201
167.208
167.215
167.222
167.23
167.236
167.241
167.242
167.24
167.236
167.231
167.228
167.227
167.226
167.221
167.221
167.256
167.389
167.828
169.937
166.753
166.763
166.769
166.776
166.782
166.789
166.795
166.802
166.808
166.815
166.822
166.828
166.834
166.841
166.847
166.854
166.86
166.866
166.873
166.879
166.885
166.892
166.898
166.904
166.91
166.917
166.923
166.929
166.935
166.942
166.948
166.954
166.96
166.964
166.966
166.975
167.048
167.271
167.545
167.573
167.563
167.319
166.955
167.027
167.026
167.033
167.039
167.046
167.052
167.059
167.065
167.072
167.078
167.085
167.091
167.098
167.104
167.111
167.117
167.124
167.13
167.137
167.143
167.15
167.156
167.163
167.169
167.176
167.183
167.189
167.196
167.203
167.21
167.218
167.225
167.231
167.236
167.237
167.235
167.231
167.227
167.224
167.223
167.221
167.217
167.221
167.266
167.417
167.848
169.789
166.753
166.763
166.769
166.775
166.782
166.788
166.795
166.801
166.808
166.814
166.821
166.827
166.834
166.84
166.847
166.853
166.859
166.866
166.872
166.878
166.884
166.891
166.897
166.903
166.909
166.915
166.922
166.928
166.934
166.94
166.946
166.952
166.959
166.965
166.967
166.969
167.037
167.279
167.557
167.513
167.476
167.268
166.957
167.012
167.016
167.023
167.03
167.037
167.044
167.051
167.058
167.065
167.072
167.078
167.085
167.092
167.098
167.105
167.112
167.118
167.125
167.131
167.138
167.145
167.151
167.158
167.165
167.171
167.178
167.185
167.191
167.198
167.206
167.213
167.22
167.227
167.231
167.233
167.231
167.228
167.224
167.221
167.22
167.218
167.214
167.221
167.277
167.444
167.874
169.696
166.753
166.762
166.768
166.775
166.782
166.788
166.795
166.801
166.808
166.814
166.82
166.827
166.833
166.84
166.846
166.852
166.858
166.865
166.871
166.877
166.883
166.89
166.896
166.902
166.908
166.914
166.92
166.927
166.933
166.939
166.945
166.951
166.96
166.97
166.968
166.941
166.95
167.13
167.342
167.206
167.164
167.112
166.994
166.99
167.006
167.013
167.021
167.029
167.036
167.044
167.051
167.058
167.065
167.072
167.079
167.086
167.093
167.1
167.107
167.114
167.12
167.127
167.134
167.14
167.147
167.154
167.161
167.167
167.174
167.181
167.188
167.195
167.202
167.21
167.217
167.224
167.229
167.23
167.229
167.226
167.222
167.22
167.219
167.216
167.213
167.223
167.291
167.48
167.927
169.69
166.752
166.762
166.768
166.775
166.781
166.788
166.794
166.801
166.807
166.813
166.82
166.826
166.833
166.839
166.845
166.851
166.858
166.864
166.87
166.876
166.882
166.889
166.895
166.901
166.907
166.913
166.919
166.925
166.932
166.938
166.943
166.95
166.961
166.973
166.963
166.913
166.903
167.1
167.337
167.171
167.129
167.103
167.003
166.979
167.002
167.008
167.017
167.025
167.033
167.04
167.048
167.055
167.062
167.069
167.076
167.083
167.09
167.097
167.104
167.111
167.118
167.125
167.132
167.138
167.145
167.152
167.159
167.166
167.173
167.18
167.187
167.194
167.202
167.209
167.217
167.224
167.229
167.231
167.23
167.228
167.225
167.223
167.222
167.218
167.214
167.228
167.311
167.539
168.04
169.809
166.752
166.762
166.768
166.775
166.781
166.787
166.794
166.8
166.807
166.813
166.819
166.826
166.832
166.838
166.845
166.851
166.857
166.863
166.869
166.876
166.882
166.888
166.894
166.9
166.906
166.912
166.918
166.924
166.931
166.937
166.943
166.95
166.959
166.97
166.967
166.933
166.891
166.897
166.913
166.857
166.918
167.007
167.014
166.99
167.008
167.013
167.021
167.028
167.036
167.043
167.05
167.057
167.064
167.071
167.078
167.085
167.092
167.099
167.105
167.112
167.119
167.126
167.133
167.14
167.147
167.154
167.161
167.168
167.175
167.182
167.19
167.197
167.205
167.213
167.221
167.228
167.234
167.237
167.237
167.235
167.233
167.232
167.23
167.226
167.221
167.238
167.341
167.632
168.251
170.12
166.752
166.762
166.768
166.774
166.781
166.787
166.794
166.8
166.806
166.813
166.819
166.825
166.832
166.838
166.844
166.85
166.856
166.863
166.869
166.875
166.881
166.887
166.893
166.899
166.905
166.911
166.917
166.924
166.93
166.936
166.942
166.949
166.956
166.965
166.97
166.962
166.938
166.903
166.875
166.887
166.939
166.994
167.013
167.009
167.019
167.025
167.032
167.038
167.045
167.051
167.058
167.064
167.071
167.078
167.084
167.091
167.098
167.105
167.112
167.119
167.126
167.133
167.14
167.147
167.154
167.161
167.168
167.176
167.183
167.191
167.198
167.206
167.215
167.224
167.232
167.24
167.246
167.25
167.251
167.25
167.249
167.249
167.247
167.241
167.236
167.258
167.384
167.752
168.586
170.784
166.752
166.762
166.767
166.774
166.78
166.787
166.793
166.8
166.806
166.812
166.819
166.825
166.831
166.837
166.843
166.85
166.856
166.862
166.868
166.874
166.88
166.886
166.892
166.898
166.904
166.911
166.917
166.923
166.929
166.935
166.942
166.947
166.952
166.959
166.97
166.98
166.981
166.981
166.982
166.993
167.002
167.007
167.013
167.022
167.029
167.036
167.044
167.051
167.058
167.065
167.071
167.078
167.085
167.091
167.098
167.104
167.111
167.118
167.125
167.132
167.139
167.146
167.154
167.161
167.168
167.176
167.184
167.192
167.199
167.208
167.216
167.225
167.234
167.244
167.253
167.262
167.269
167.274
167.276
167.277
167.278
167.278
167.276
167.269
167.264
167.298
167.462
167.905
168.918
171.789
166.752
166.761
166.767
166.774
166.78
166.787
166.793
166.799
166.806
166.812
166.818
166.824
166.831
166.837
166.843
166.849
166.855
166.861
166.867
166.873
166.879
166.886
166.892
166.898
166.903
166.909
166.915
166.922
166.927
166.932
166.938
166.95
166.969
166.975
166.948
166.93
167.011
167.023
167.035
167.043
167.045
167.048
167.056
167.063
167.066
167.077
167.085
167.09
167.095
167.099
167.103
167.108
167.113
167.118
167.124
167.13
167.136
167.143
167.15
167.157
167.164
167.171
167.179
167.187
167.195
167.203
167.211
167.22
167.229
167.238
167.247
167.257
167.267
167.277
167.288
167.297
167.305
167.311
167.314
167.315
167.315
167.314
167.308
167.296
167.292
167.346
167.562
168.065
169.038
171.768
166.751
166.761
166.767
166.774
166.78
166.786
166.793
166.799
166.805
166.811
166.818
166.824
166.83
166.836
166.842
166.849
166.855
166.861
166.867
166.873
166.879
166.885
166.891
166.897
166.904
166.911
166.918
166.923
166.929
166.937
166.943
166.932
166.896
166.91
167.194
168.105
167.161
167.146
167.141
167.137
167.136
167.137
167.139
167.142
167.145
167.15
167.154
167.159
167.164
167.17
167.176
167.182
167.188
167.195
167.202
167.209
167.216
167.224
167.232
167.24
167.249
167.257
167.266
167.275
167.284
167.293
167.302
167.31
167.316
167.319
167.319
167.317
167.314
167.308
167.297
167.281
167.282
167.361
167.615
168.106
168.859
170.888
166.751
166.761
166.767
166.773
166.78
166.786
166.792
166.799
166.805
166.811
166.817
166.823
166.83
166.836
166.842
166.848
166.854
166.86
166.866
166.872
166.878
166.885
166.89
166.893
166.892
166.882
166.871
166.872
166.883
166.922
166.961
166.914
166.814
166.855
167.357
168.356
167.193
167.168
167.158
167.152
167.149
167.148
167.148
167.15
167.152
167.154
167.158
167.161
167.166
167.171
167.176
167.182
167.187
167.194
167.2
167.207
167.214
167.221
167.229
167.236
167.243
167.251
167.258
167.266
167.273
167.281
167.288
167.293
167.297
167.299
167.297
167.294
167.289
167.282
167.269
167.254
167.265
167.363
167.621
168.04
168.576
170.205
166.751
166.761
166.766
166.773
166.779
166.786
166.792
166.798
166.804
166.811
166.817
166.823
166.829
166.835
166.841
166.847
166.853
166.859
166.866
166.871
166.877
166.881
166.886
166.897
166.949
167.102
167.303
167.358
167.377
167.206
166.919
166.925
166.757
166.712
167.202
168.319
167.184
167.159
167.15
167.144
167.14
167.139
167.138
167.139
167.141
167.143
167.146
167.15
167.154
167.159
167.164
167.169
167.175
167.181
167.187
167.193
167.2
167.206
167.213
167.219
167.226
167.232
167.239
167.245
167.252
167.258
167.265
167.27
167.273
167.274
167.273
167.27
167.265
167.257
167.244
167.233
167.251
167.355
167.589
167.924
168.318
169.782
166.751
166.761
166.766
166.773
166.779
166.785
166.792
166.798
166.804
166.81
166.816
166.823
166.829
166.835
166.841
166.847
166.853
166.859
166.865
166.87
166.876
166.884
166.891
166.892
166.912
167.025
167.171
167.13
167.13
167.082
166.965
166.933
166.702
166.477
166.849
168.168
167.163
167.143
167.135
167.129
167.125
167.123
167.123
167.123
167.125
167.127
167.13
167.134
167.138
167.143
167.148
167.153
167.158
167.164
167.17
167.176
167.182
167.188
167.194
167.2
167.206
167.212
167.218
167.224
167.23
167.237
167.243
167.248
167.251
167.253
167.252
167.249
167.244
167.237
167.225
167.217
167.24
167.336
167.534
167.793
168.106
169.513
166.751
166.76
166.766
166.773
166.779
166.785
166.791
166.798
166.804
166.81
166.816
166.822
166.828
166.834
166.84
166.846
166.852
166.858
166.864
166.87
166.879
166.892
166.895
166.858
166.798
166.819
166.866
166.691
166.679
166.861
167.038
166.924
166.657
166.281
166.521
167.934
167.149
167.13
167.121
167.115
167.111
167.109
167.107
167.108
167.109
167.111
167.114
167.118
167.122
167.126
167.131
167.136
167.141
167.147
167.152
167.158
167.164
167.17
167.176
167.181
167.187
167.193
167.199
167.205
167.212
167.218
167.224
167.229
167.233
167.235
167.234
167.232
167.227
167.221
167.211
167.206
167.229
167.311
167.468
167.665
167.936
169.353
166.751
166.76
166.766
166.772
166.779
166.785
166.791
166.797
166.804
166.81
166.816
166.822
166.828
166.834
166.84
166.846
166.852
166.858
166.863
166.87
166.882
166.898
166.892
166.823
166.724
166.739
166.79
166.568
166.554
166.81
167.07
166.918
166.627
166.154
166.282
167.69
167.144
167.122
167.112
167.105
167.1
167.096
167.094
167.094