/*--------------------------------*- C++ -*----------------------------------*\
| =========                 |                                                 |
| \\      /  F ield         | OpenFOAM: The Open Source CFD Toolbox           |
|  \\    /   O peration     | Version:  v2012                                 |
|   \\  /    A nd           | Website:  www.openfoam.com                      |
|    \\/     M anipulation  |                                                 |
\*---------------------------------------------------------------------------*/
FoamFile
{
    version     2.0;
    format      ascii;
    class       volScalarField;
    location    "500/air";
    object      k;
}
// * * * * * * * * * * * * * * * * * * * * * * * * * * * * * * * * * * * * * //

dimensions      [0 2 -2 0 0 0 0];


internalField   nonuniform List<scalar> 
287104
(
0.0834013
0.0717041
0.0633095
0.0569921
0.0520819
0.0481711
0.0449945
0.0423718
0.0401763
0.0383163
0.0367242
0.0353492
0.034152
0.0331023
0.0321759
0.0313536
0.0306199
0.029962
0.0293695
0.0288337
0.0283472
0.027904
0.0274989
0.0271275
0.0267859
0.0264708
0.0261795
0.0259095
0.0256585
0.0254248
0.0252065
0.0250022
0.0248105
0.0246303
0.0244604
0.0242999
0.0241478
0.0240034
0.0238659
0.0237345
0.0236088
0.0234881
0.023372
0.0232599
0.0231515
0.0230463
0.0229441
0.0228446
0.0227476
0.0226528
0.02256
0.0224691
0.0223801
0.0222927
0.022207
0.0221228
0.0220402
0.021959
0.0218793
0.0218011
0.0217244
0.0216491
0.0215752
0.0215027
0.0214316
0.0213619
0.0212935
0.0212264
0.0211605
0.0210958
0.0210322
0.0209697
0.020908
0.0208472
0.020787
0.0207273
0.0206679
0.0206086
0.0205491
0.0204891
0.0204281
0.0203658
0.0203012
0.0202335
0.0201612
0.0200816
0.0199916
0.0198797
0.019749
0.0194492
0.0833979
0.0716976
0.0633006
0.0569813
0.0520696
0.0481577
0.0449801
0.0423567
0.0401605
0.0383001
0.0367078
0.0353325
0.0341353
0.0330856
0.0321594
0.0313374
0.030604
0.0299464
0.0293542
0.0288188
0.0283327
0.02789
0.0274853
0.0271143
0.0267731
0.0264586
0.0261678
0.0258984
0.0256481
0.025415
0.0251976
0.0249941
0.0248035
0.0246243
0.0244556
0.0242963
0.0241455
0.0240025
0.0238664
0.0237366
0.0236124
0.0234933
0.0233787
0.0232681
0.0231612
0.0230576
0.0229568
0.0228587
0.0227629
0.0226692
0.0225775
0.0224876
0.0223994
0.0223128
0.0222277
0.022144
0.0220618
0.0219809
0.0219014
0.0218233
0.0217466
0.0216712
0.0215972
0.0215245
0.0214531
0.021383
0.0213142
0.0212467
0.0211804
0.0211152
0.0210511
0.020988
0.0209257
0.0208643
0.0208034
0.0207431
0.0206829
0.0206229
0.0205625
0.0205016
0.0204397
0.0203763
0.0203107
0.0202419
0.0201685
0.020088
0.0199972
0.0198848
0.0197541
0.0194578
0.0833965
0.0716948
0.0632967
0.0569765
0.0520641
0.0481514
0.0449732
0.0423492
0.0401525
0.0382917
0.036699
0.0353236
0.0341264
0.0330767
0.0321506
0.0313287
0.0305955
0.0299382
0.0293462
0.028811
0.0283252
0.0278827
0.0274784
0.0271077
0.0267669
0.0264527
0.0261624
0.0258935
0.0256437
0.0254113
0.0251945
0.0249919
0.0248021
0.0246239
0.0244562
0.024298
0.0241484
0.0240066
0.0238719
0.0237435
0.0236207
0.0235031
0.02339
0.023281
0.0231756
0.0230735
0.0229742
0.0228776
0.0227832
0.022691
0.0226008
0.0225123
0.0224254
0.0223402
0.0222564
0.0221741
0.0220932
0.0220137
0.0219355
0.0218588
0.0217834
0.0217094
0.0216367
0.0215654
0.0214955
0.0214269
0.0213596
0.0212935
0.0212288
0.0211651
0.0211026
0.0210411
0.0209805
0.0209207
0.0208616
0.0208029
0.0207445
0.0206861
0.0206274
0.020568
0.0205077
0.0204458
0.0203816
0.0203143
0.0202423
0.0201634
0.0200745
0.0199645
0.0198368
0.0195482
0.0833952
0.0716918
0.0632922
0.0569706
0.0520569
0.048143
0.0449636
0.0423386
0.040141
0.0382793
0.0366861
0.0353103
0.0341129
0.0330632
0.0321371
0.0313154
0.0305823
0.029925
0.0293332
0.0287981
0.0283124
0.02787
0.0274657
0.0270951
0.0267545
0.0264405
0.0261504
0.0258818
0.0256324
0.0254005
0.0251843
0.0249824
0.0247933
0.024616
0.0244494
0.0242923
0.024144
0.0240035
0.0238702
0.0237432
0.023622
0.0235059
0.0233943
0.0232868
0.0231829
0.0230822
0.0229844
0.022889
0.0227959
0.0227048
0.0226156
0.022528
0.022442
0.0223575
0.0222744
0.0221926
0.0221122
0.022033
0.0219552
0.0218786
0.0218034
0.0217295
0.0216569
0.0215856
0.0215156
0.0214469
0.0213794
0.0213132
0.0212482
0.0211842
0.0211213
0.0210593
0.0209982
0.0209377
0.0208777
0.0208181
0.0207586
0.0206989
0.0206386
0.0205775
0.020515
0.0204507
0.0203838
0.0203134
0.0202383
0.0201561
0.0200639
0.0199509
0.0198204
0.0195308
0.0833939
0.0716892
0.0632884
0.0569656
0.0520508
0.0481358
0.0449554
0.0423292
0.0401306
0.0382681
0.0366742
0.0352981
0.0341004
0.0330508
0.0321248
0.0313032
0.0305703
0.0299133
0.0293217
0.0287868
0.0283012
0.027859
0.0274548
0.0270844
0.0267439
0.0264302
0.0261405
0.0258722
0.0256233
0.025392
0.0251765
0.0249754
0.0247873
0.0246112
0.0244457
0.02429
0.0241432
0.0240044
0.0238727
0.0237475
0.0236281
0.0235139
0.0234042
0.0232986
0.0231965
0.0230977
0.0230016
0.0229079
0.0228165
0.022727
0.0226392
0.0225531
0.0224684
0.0223851
0.0223032
0.0222226
0.0221432
0.0220652
0.0219884
0.0219128
0.0218386
0.0217656
0.0216939
0.0216235
0.0215544
0.0214865
0.0214199
0.0213545
0.0212902
0.021227
0.0211649
0.0211036
0.021043
0.0209832
0.0209237
0.0208645
0.0208053
0.0207458
0.0206855
0.0206242
0.0205612
0.0204962
0.0204283
0.0203569
0.0202808
0.0201979
0.0201055
0.0199932
0.0198644
0.0195801
0.0833927
0.0716865
0.0632843
0.0569601
0.0520439
0.0481275
0.0449456
0.0423181
0.0401182
0.0382547
0.0366602
0.0352839
0.0340864
0.033037
0.0321114
0.0312902
0.0305576
0.0299007
0.0293092
0.0287743
0.0282888
0.0278465
0.0274423
0.0270719
0.0267315
0.0264179
0.0261284
0.0258605
0.0256122
0.0253815
0.025167
0.024967
0.0247802
0.0246056
0.0244419
0.0242882
0.0241435
0.024007
0.0238779
0.0237554
0.0236388
0.0235275
0.0234208
0.0233183
0.0232193
0.0231235
0.0230304
0.0229398
0.0228514
0.0227649
0.0226801
0.0225969
0.0225151
0.0224347
0.0223556
0.0222779
0.0222014
0.0221262
0.0220524
0.0219799
0.0219087
0.0218389
0.0217705
0.0217036
0.021638
0.0215739
0.0215111
0.0214497
0.0213896
0.0213308
0.0212731
0.0212165
0.0211609
0.0211062
0.0210522
0.0209987
0.0209453
0.020892
0.0208381
0.0207834
0.0207272
0.0206693
0.020609
0.0205459
0.0204792
0.0204072
0.0203277
0.0202318
0.0201224
0.019872
0.0833915
0.0716839
0.0632803
0.0569547
0.0520369
0.0481189
0.0449352
0.0423057
0.0401037
0.0382381
0.0366421
0.035265
0.0340673
0.0330181
0.0320929
0.0312721
0.0305399
0.0298835
0.0292923
0.0287576
0.0282722
0.02783
0.027426
0.0270558
0.0267156
0.0264025
0.0261135
0.0258465
0.0255992
0.0253699
0.025157
0.024959
0.0247746
0.0246026
0.024442
0.0242916
0.0241507
0.0240183
0.0238935
0.0237755
0.0236637
0.0235574
0.0234559
0.0233581
0.0232638
0.0231727
0.0230843
0.0229984
0.0229147
0.0228329
0.0227529
0.0226744
0.0225975
0.0225219
0.0224477
0.0223748
0.0223032
0.022233
0.0221642
0.0220969
0.022031
0.0219666
0.0219038
0.0218426
0.021783
0.0217251
0.0216689
0.0216143
0.0215614
0.0215101
0.0214605
0.0214124
0.0213659
0.0213208
0.021277
0.0212343
0.0211926
0.0211515
0.0211106
0.0210695
0.0210274
0.020984
0.0209391
0.0208926
0.0208441
0.0207926
0.0207376
0.0206736
0.0206078
0.0204255
0.0833903
0.0716812
0.0632761
0.056949
0.0520296
0.0481097
0.0449239
0.0422921
0.0400878
0.0382202
0.0366235
0.035247
0.0340505
0.0330025
0.0320782
0.0312579
0.0305258
0.029869
0.029277
0.0287412
0.0282545
0.027811
0.0274056
0.0270341
0.026693
0.0263792
0.02609
0.0258231
0.0255766
0.0253486
0.0251376
0.0249421
0.0247604
0.0245914
0.0244341
0.0242875
0.0241505
0.0240223
0.023902
0.0237885
0.0236812
0.0235791
0.0234817
0.0233881
0.023298
0.0232107
0.023126
0.0230434
0.0229627
0.0228837
0.0228062
0.0227302
0.0226556
0.0225824
0.0225106
0.0224403
0.0223714
0.022304
0.0222381
0.0221738
0.0221111
0.02205
0.0219906
0.0219328
0.0218766
0.0218221
0.0217692
0.021718
0.0216683
0.0216201
0.0215733
0.021528
0.0214839
0.021441
0.0213992
0.0213582
0.0213178
0.0212777
0.0212373
0.0211959
0.0211528
0.0211077
0.0210608
0.0210122
0.0209618
0.0209092
0.0208545
0.0207961
0.0207493
0.0206556
0.0833891
0.0716785
0.0632719
0.0569431
0.0520215
0.048099
0.0449099
0.0422736
0.0400629
0.0381877
0.0365952
0.0352354
0.0340607
0.033033
0.0321235
0.0313106
0.0305786
0.0299155
0.0293122
0.0287616
0.0282581
0.027797
0.0273744
0.0269868
0.0266313
0.0263052
0.0260058
0.025731
0.0254786
0.0252467
0.0250334
0.024837
0.0246561
0.0244893
0.0243353
0.0241927
0.0240603
0.023937
0.0238212
0.0237118
0.0236077
0.0235082
0.0234123
0.0233196
0.0232294
0.0231415
0.0230557
0.0229718
0.0228899
0.0228097
0.0227312
0.0226543
0.0225788
0.0225049
0.0224325
0.0223615
0.0222921
0.0222243
0.0221581
0.0220935
0.0220307
0.0219695
0.0219101
0.0218523
0.0217964
0.0217421
0.0216896
0.0216388
0.0215897
0.0215423
0.0214966
0.0214525
0.0214101
0.0213691
0.0213296
0.0212914
0.0212544
0.0212182
0.0211823
0.0211451
0.021105
0.021063
0.0210204
0.0209773
0.0209333
0.0208879
0.0208409
0.0207909
0.0207503
0.0206815
0.0833879
0.0716759
0.0632677
0.0569371
0.0520135
0.0480885
0.0448961
0.0422557
0.0400392
0.0381602
0.0376078
0.0373392
0.0369267
0.0362959
0.0354882
0.0345721
0.0336093
0.0326456
0.0317124
0.0308295
0.030008
0.0292533
0.0285668
0.0279471
0.0273913
0.026895
0.026453
0.0260591
0.0257066
0.0253887
0.0250982
0.0248274
0.024592
0.0243959
0.0242298
0.0240862
0.0239593
0.0238446
0.0237389
0.02364
0.0235457
0.0234548
0.0233661
0.023279
0.0231958
0.023118
0.0230455
0.0229778
0.0229142
0.0228541
0.0227968
0.022742
0.0226892
0.0226382
0.0225888
0.0225411
0.0224949
0.0224503
0.0224073
0.0223657
0.0223257
0.0222871
0.02225
0.0222143
0.0221801
0.0221473
0.0221159
0.022086
0.0220575
0.0220304
0.0220048
0.0219807
0.0219582
0.0219373
0.021918
0.0219001
0.0218837
0.0218683
0.0218535
0.0218364
0.0217235
0.0215903
0.021462
0.0213456
0.0212417
0.0211485
0.0210637
0.0209824
0.0209139
0.0208177
0.0833868
0.0716732
0.0632634
0.0569308
0.0520045
0.0480756
0.0448766
0.0422244
0.0399763
0.0382126
0.118877
0.142481
0.142309
0.133943
0.123712
0.113915
0.10527
0.0979031
0.0917386
0.0866423
0.082476
0.0791126
0.0764393
0.0743552
0.0727694
0.0715985
0.0707653
0.0701989
0.0698349
0.069616
0.069494
0.0694284
0.0694011
0.0694113
0.0694527
0.0695127
0.0695796
0.069645
0.0697044
0.0697568
0.0698036
0.0698484
0.0698889
0.0699253
0.0699565
0.0699864
0.0700229
0.0700741
0.0701475
0.0702495
0.0703841
0.0705542
0.0707619
0.0710089
0.0712956
0.0716215
0.071987
0.0723933
0.0728413
0.0733314
0.0738635
0.0744371
0.0750516
0.075706
0.0763993
0.0771299
0.0778964
0.0786967
0.079529
0.0803909
0.0812797
0.0821923
0.0831261
0.0840784
0.0850484
0.0860376
0.0870562
0.0881242
0.089368
0.0905211
0.0579058
0.0420404
0.0334897
0.0285439
0.0255444
0.0236655
0.0224613
0.0216689
0.0211464
0.0207251
0.0833856
0.0716707
0.0632593
0.056925
0.0519967
0.0480653
0.0448632
0.0422071
0.0399535
0.0381845
0.11887
0.142526
0.142291
0.133785
0.123378
0.113394
0.104563
0.09702
0.0906928
0.0854496
0.0811541
0.077681
0.074919
0.0727686
0.0711398
0.0699494
0.0691193
0.0685768
0.0682544
0.0680909
0.0680326
0.0680337
0.0680566
0.0680728
0.0680611
0.0680068
0.0678998
0.0677335
0.0675043
0.0672114
0.0668554
0.0664385
0.0659725
0.0654637
0.0649175
0.0643405
0.0637402
0.0631235
0.062496
0.0618617
0.0612253
0.0605913
0.0599642
0.0593481
0.0587472
0.0581661
0.0576095
0.057082
0.0565899
0.0561379
0.0557312
0.0553761
0.0550794
0.0548479
0.0546882
0.0546066
0.054609
0.0547005
0.0548853
0.0551666
0.0555463
0.0560253
0.0566033
0.0572796
0.0580527
0.0589209
0.0598888
0.0609601
0.0622343
0.0634624
0.0442115
0.0340949
0.0282917
0.0247578
0.0225227
0.0210763
0.0201271
0.0194835
0.0190334
0.0185748
0.0833845
0.0716682
0.0632553
0.0569193
0.051989
0.0480551
0.0448496
0.0421891
0.0399292
0.038152
0.118641
0.14229
0.142109
0.133658
0.123291
0.113329
0.104504
0.0969585
0.0906236
0.0853728
0.0810739
0.0776053
0.0748589
0.0727379
0.071154
0.070025
0.069273
0.0688239
0.0686087
0.0685639
0.0686336
0.0687698
0.0689331
0.0690925
0.0692255
0.0693165
0.0693553
0.0693353
0.0692536
0.0691098
0.068905
0.0686418
0.068324
0.0679562
0.0675438
0.0670931
0.0666105
0.0661023
0.0655743
0.0650321
0.0644806
0.0639235
0.063364
0.0628041
0.0622448
0.061686
0.0611271
0.0605673
0.0600042
0.0594373
0.0588665
0.0582914
0.0577109
0.0571241
0.0565305
0.0559303
0.055324
0.0547129
0.0540986
0.0534835
0.0528707
0.0522637
0.0516671
0.0510864
0.0505287
0.0500027
0.0495233
0.0491022
0.0488213
0.0484698
0.0341604
0.0268782
0.0228018
0.0203386
0.0187542
0.0176794
0.0169144
0.0163246
0.0158452
0.0152443
0.0833834
0.0716658
0.0632516
0.0569142
0.0519824
0.0480468
0.0448394
0.0421768
0.0399146
0.0381353
0.118562
0.142208
0.142038
0.133594
0.123227
0.11326
0.104428
0.0968733
0.09053
0.0852723
0.0809687
0.0774983
0.0747535
0.072638
0.0710641
0.0699497
0.069217
0.0687921
0.0686057
0.0685939
0.0687003
0.0688764
0.0690826
0.069288
0.0694696
0.0696114
0.0697024
0.069735
0.0697052
0.0696114
0.0694539
0.0692347
0.0689573
0.0686267
0.0682496
0.0678347
0.067391
0.0669277
0.0664535
0.0659763
0.0655029
0.0650392
0.0646076
0.0642096
0.0638414
0.0634989
0.0631789
0.0628789
0.0625975
0.0623351
0.0620932
0.0618732
0.0616752
0.0614987
0.0613436
0.0612098
0.0610971
0.0610044
0.0609303
0.0608733
0.0608317
0.0608037
0.0607875
0.0607813
0.0607846
0.0607982
0.0608308
0.0608986
0.0611102
0.0615011
0.0435948
0.0348258
0.0300147
0.0271114
0.0251996
0.0238278
0.0227528
0.0218219
0.0210307
0.0202083
0.0833824
0.0716634
0.0632481
0.0569095
0.0519764
0.0480394
0.0448304
0.042166
0.0399018
0.0381203
0.118464
0.142085
0.141914
0.133477
0.123117
0.113155
0.104326
0.0967714
0.0904269
0.0851674
0.0808621
0.077391
0.074647
0.0725345
0.0709659
0.0698595
0.0691373
0.0687254
0.0685543
0.0685599
0.0686855
0.0688827
0.0691117
0.0693415
0.0695488
0.0697173
0.0698349
0.0698929
0.0698855
0.0698092
0.0696624
0.0694454
0.0691609
0.0688135
0.068411
0.0679633
0.067481
0.0669747
0.0664543
0.0659288
0.0654056
0.0648908
0.0643892
0.0639042
0.0634384
0.0629929
0.0625684
0.0621651
0.0617852
0.0614386
0.0611223
0.0608319
0.0605635
0.0603145
0.0600833
0.0598691
0.0596733
0.0594978
0.0593444
0.0592143
0.0591086
0.0590295
0.0589797
0.058962
0.0589804
0.0590409
0.0591547
0.0593407
0.0597075
0.0603012
0.0430449
0.0346638
0.0301301
0.0274544
0.0257466
0.0245687
0.0236851
0.0229457
0.0222311
0.0212903
0.0833813
0.0716612
0.0632448
0.0569052
0.0519711
0.0480331
0.0448232
0.0421578
0.0398926
0.0381099
0.118397
0.141989
0.141805
0.13336
0.122995
0.113029
0.104197
0.0966411
0.0902954
0.0850356
0.0807311
0.0772618
0.074521
0.0724129
0.0708501
0.0697505
0.0690362
0.0686329
0.0684708
0.0684859
0.0686213
0.0688286
0.0690686
0.0693104
0.0695311
0.0697141
0.0698468
0.0699191
0.0699228
0.0698518
0.0697012
0.069469
0.0691563
0.0687676
0.0683117
0.0678007
0.0672476
0.0666654
0.0660661
0.06546
0.0648556
0.0642593
0.0636755
0.0631073
0.0625564
0.0620234
0.061508
0.0610093
0.0605261
0.0600569
0.0596003
0.0591546
0.0587181
0.0582889
0.0578652
0.0574452
0.0570273
0.0566099
0.0561916
0.0557709
0.0553465
0.0549172
0.0544821
0.0540407
0.0535934
0.0531414
0.0526923
0.0522497
0.0518749
0.0513705
0.0365498
0.0292071
0.0252033
0.0228198
0.0212668
0.0201518
0.0192694
0.0184899
0.0177623
0.0168176
0.0833803
0.0716591
0.0632417
0.0569013
0.0519666
0.0480281
0.0448178
0.0421522
0.039887
0.0381042
0.118361
0.141926
0.141716
0.133249
0.122866
0.112886
0.104043
0.0964803
0.0901312
0.084871
0.0805691
0.077105
0.0743714
0.0722721
0.0707188
0.0696289
0.0689235
0.0685276
0.0683709
0.0683893
0.0685263
0.0687343
0.0689751
0.0692196
0.0694461
0.0696388
0.0697853
0.0698736
0.0698926
0.0698316
0.0696804
0.0694326
0.0690866
0.0686467
0.0681237
0.0675333
0.0668924
0.0662177
0.0655241
0.0648241
0.0641271
0.0634403
0.0627681
0.0621132
0.0614765
0.0608576
0.0602552
0.0596675
0.0590927
0.0585285
0.0579729
0.0574237
0.0568789
0.0563368
0.0557957
0.0552544
0.054712
0.0541679
0.0536221
0.053075
0.0525278
0.0519821
0.0514408
0.0509077
0.0503885
0.0498901
0.0494249
0.049001
0.0486914
0.0482907
0.0341976
0.0271266
0.0232374
0.0209294
0.0194636
0.0184692
0.0177483
0.0171718
0.0166836
0.016044
0.0833793
0.071657
0.0632388
0.0568978
0.0519626
0.0480238
0.0448135
0.0421479
0.0398829
0.0380998
0.118299
0.141809
0.141561
0.133073
0.122682
0.112703
0.103866
0.0963122
0.0899747
0.0847284
0.080443
0.0769987
0.0742886
0.0722165
0.0706933
0.0696348
0.0689609
0.068595
0.0684664
0.0685114
0.068675
0.0689124
0.0691887
0.0694779
0.0697612
0.0700241
0.0702529
0.0704313
0.0705407
0.0705596
0.0704667
0.0702466
0.069894
0.0694149
0.0688271
0.0681555
0.067427
0.0666672
0.065898
0.0651368
0.0643958
0.0636833
0.0630039
0.0623591
0.0617485
0.0611699
0.0606208
0.0600987
0.0596017
0.0591279
0.0586756
0.0582436
0.0578309
0.0574373
0.057063
0.0567089
0.0563765
0.0560679
0.0557859
0.0555337
0.0553149
0.0551339
0.0549954
0.0549051
0.0548695
0.0548971
0.0550018
0.055197
0.0555855
0.0559956
0.0396329
0.0314296
0.0269117
0.0242307
0.0225384
0.0214106
0.0206186
0.0200196
0.0195349
0.018972
0.0833784
0.071655
0.0632361
0.0568948
0.0519596
0.0480214
0.0448125
0.0421494
0.0398887
0.0381115
0.118396
0.141863
0.141536
0.132979
0.122541
0.112541
0.103716
0.0962057
0.0899476
0.0848188
0.0806894
0.0774381
0.0749529
0.0731297
0.0718697
0.0710789
0.0706687
0.0705574
0.0706726
0.0709524
0.0713465
0.0718156
0.0723306
0.0728699
0.0734167
0.0739546
0.0744636
0.0749147
0.0752704
0.075485
0.0755123
0.0753197
0.0748972
0.0742592
0.0734432
0.0724998
0.0714828
0.0704423
0.0694209
0.0684514
0.0675563
0.0667497
0.0660376
0.0654206
0.0648946
0.0644528
0.0640905
0.0638025
0.0635819
0.0634205
0.0633104
0.0632446
0.0632178
0.0632264
0.0632683
0.0633425
0.0634493
0.0635896
0.0637647
0.0639762
0.0642261
0.0645161
0.0648486
0.0652262
0.0656531
0.066136
0.0666907
0.0673512
0.0683105
0.0695929
0.0484646
0.0378222
0.0318462
0.0282103
0.0258615
0.0242719
0.0231522
0.0223257
0.0216801
0.0210555
0.0833774
0.0716531
0.0632335
0.0568918
0.0519567
0.0480189
0.044811
0.0421497
0.039892
0.0381167
0.118225
0.141573
0.141291
0.132861
0.122677
0.113088
0.104843
0.0980782
0.0927074
0.0885733
0.0855027
0.0833264
0.0818871
0.081042
0.0806649
0.080647
0.0808973
0.0813422
0.0819247
0.0826021
0.0833438
0.0841295
0.0849461
0.0857849
0.086639
0.0874983
0.0883441
0.0891419
0.0898385
0.0903584
0.090614
0.0905303
0.0900642
0.0892148
0.0880232
0.0865605
0.0849123
0.0831679
0.0814121
0.0797198
0.0781534
0.0767607
0.075575
0.0746151
0.0738869
0.0733824
0.073131
0.0731176
0.073293
0.0736045
0.0740079
0.0744702
0.0749689
0.0754897
0.0760244
0.076569
0.0771221
0.0776838
0.0782551
0.0788372
0.0794315
0.080039
0.0806611
0.0812999
0.0819585
0.0826437
0.083373
0.084179
0.0852137
0.0863736
0.0566366
0.042065
0.0341225
0.0294509
0.0265497
0.0246738
0.0234222
0.0225613
0.0219567
0.0214711
0.0833765
0.0716513
0.0632312
0.0568894
0.0519549
0.0480191
0.0448158
0.0421643
0.0399366
0.0380447
0.0367432
0.0356296
0.0345084
0.0334832
0.0325377
0.0316659
0.0308647
0.0301311
0.0294616
0.0288526
0.0283001
0.0278
0.0273484
0.0269414
0.0265752
0.0262463
0.0259514
0.0256876
0.0254523
0.0252431
0.0250582
0.0248961
0.0247556
0.0246363
0.0245381
0.0244612
0.0244061
0.0243724
0.0243586
0.0243614
0.0243742
0.0243893
0.0243988
0.0243959
0.0243761
0.0243358
0.0242747
0.0241942
0.0240971
0.0239866
0.0238662
0.0237397
0.0236104
0.0234815
0.0233555
0.0232346
0.0231204
0.0230142
0.0229166
0.0228276
0.022747
0.0226741
0.0226083
0.0225487
0.0224945
0.022445
0.0223994
0.0223573
0.022318
0.0222813
0.0222467
0.0222141
0.0221833
0.0221543
0.0221268
0.022101
0.0220767
0.0220537
0.0220319
0.0220087
0.0219003
0.0217737
0.0216517
0.0215408
0.0214421
0.0213542
0.0212756
0.021203
0.0211444
0.021058
0.0833756
0.0716494
0.0632286
0.0568865
0.051952
0.0480165
0.0448142
0.0421642
0.0399394
0.0380494
0.0364317
0.035037
0.0338231
0.0327575
0.0318151
0.030976
0.0302246
0.0295484
0.0289371
0.0283825
0.0278779
0.0274176
0.0269971
0.0266124
0.0262603
0.0259382
0.0256436
0.0253748
0.02513
0.0249082
0.0247083
0.0245298
0.0243723
0.0242364
0.0241228
0.0240331
0.0239691
0.0239319
0.0239212
0.0239332
0.0239594
0.0239892
0.0240119
0.024019
0.0240055
0.02397
0.0239129
0.0238361
0.0237424
0.0236353
0.0235179
0.0233937
0.0232656
0.0231359
0.0230069
0.02288
0.0227568
0.0226382
0.0225252
0.0224182
0.0223176
0.0222234
0.0221358
0.0220545
0.0219793
0.0219099
0.0218461
0.0217873
0.0217334
0.021684
0.0216388
0.0215974
0.0215597
0.0215253
0.0214942
0.0214659
0.0214402
0.0214168
0.0213951
0.0213736
0.0213506
0.0213266
0.021303
0.0212799
0.0212574
0.0212347
0.0212118
0.0211865
0.0211685
0.0211087
0.0833747
0.0716475
0.0632261
0.0568835
0.051949
0.048014
0.0448129
0.0421652
0.0399443
0.0380594
0.0364444
0.0350485
0.0338316
0.032762
0.0318152
0.0309717
0.0302158
0.0295349
0.0289188
0.028359
0.0278489
0.0273826
0.0269556
0.026564
0.0262045
0.0258746
0.0255719
0.0252947
0.0250414
0.0248109
0.0246025
0.0244157
0.0242506
0.0241082
0.0239901
0.0238993
0.0238396
0.023815
0.0238279
0.0238742
0.0239417
0.0240144
0.0240761
0.0241146
0.0241236
0.0241016
0.0240496
0.0239711
0.0238699
0.0237509
0.0236191
0.0234789
0.0233335
0.0231852
0.0230373
0.0228926
0.0227531
0.0226203
0.0224953
0.0223788
0.0222711
0.0221724
0.0220825
0.0220014
0.0219286
0.0218639
0.0218067
0.0217566
0.0217132
0.0216761
0.0216447
0.0216186
0.0215974
0.0215808
0.0215681
0.0215591
0.0215531
0.0215496
0.0215478
0.0215467
0.021545
0.0215423
0.0215384
0.0215331
0.0215254
0.0215142
0.0214978
0.021471
0.0214353
0.0213119
0.0833737
0.0716456
0.0632233
0.0568801
0.051945
0.0480096
0.0448081
0.0421602
0.0399388
0.0380529
0.0364354
0.0350356
0.033814
0.0327397
0.0317883
0.0309401
0.0301797
0.0294943
0.0288736
0.0283092
0.0277943
0.0273231
0.026891
0.0264943
0.0261295
0.0257943
0.0254863
0.0252036
0.0249449
0.0247089
0.0244949
0.0243026
0.0241321
0.0239847
0.023863
0.0237716
0.0237174
0.0237091
0.0237564
0.0238573
0.0239953
0.0241446
0.0242777
0.0243753
0.0244287
0.0244367
0.0244021
0.0243304
0.0242282
0.0241025
0.023963
0.0238141
0.0236607
0.0235066
0.0233553
0.0232096
0.0230718
0.0229435
0.0228262
0.0227207
0.0226276
0.022547
0.0224787
0.0224224
0.0223775
0.022343
0.0223181
0.0223015
0.0222922
0.0222889
0.0222904
0.0222955
0.022303
0.0223119
0.022321
0.0223295
0.0223364
0.0223408
0.022342
0.0223389
0.0223306
0.0223161
0.022295
0.0222667
0.0222306
0.0221852
0.0221292
0.0220562
0.0219677
0.0217793
0.0833728
0.0716436
0.0632204
0.0568764
0.0519406
0.0480046
0.0448026
0.0421542
0.0399323
0.0380456
0.0364265
0.0350242
0.0337992
0.0327207
0.0317645
0.0309112
0.0301453
0.029454
0.0288272
0.0282566
0.0277352
0.0272575
0.0268188
0.0264154
0.0260442
0.0257026
0.0253883
0.0250995
0.0248347
0.0245926
0.0243721
0.0241729
0.0239951
0.0238398
0.0237102
0.0236129
0.0235582
0.0235644
0.0236646
0.0238775
0.0241872
0.0245427
0.0248801
0.0251593
0.0253638
0.0254918
0.0255505
0.025551
0.0255057
0.0254265
0.0253356
0.025244
0.0251579
0.0250822
0.02502
0.0249733
0.0249424
0.0249269
0.0249251
0.0249346
0.0249525
0.0249758
0.0250014
0.0250264
0.0250481
0.0250644
0.0250737
0.0250747
0.0250666
0.0250491
0.025022
0.0249856
0.0249402
0.0248864
0.0248248
0.024756
0.0246805
0.0245988
0.0245114
0.0244184
0.0243198
0.0242156
0.0241057
0.0239898
0.0238674
0.0237373
0.0235978
0.0234423
0.0232717
0.0230054
0.0833719
0.0716416
0.0632174
0.0568724
0.0519357
0.0479986
0.0447955
0.0421456
0.0399221
0.0380332
0.0364113
0.0350054
0.0337761
0.0326929
0.0317316
0.0308729
0.0301012
0.0294039
0.0287708
0.0281936
0.0276654
0.0271807
0.0267349
0.0263244
0.025946
0.0255974
0.0252762
0.0249807
0.0247091
0.0244599
0.0242321
0.0240246
0.0238372
0.0236708
0.0235278
0.0234171
0.0233523
0.023371
0.0236167
0.0242339
0.0252157
0.0263673
0.0274715
0.0284345
0.0292245
0.0298479
0.030328
0.0306926
0.0309677
0.0311753
0.0313242
0.0314617
0.0315793
0.0316688
0.0317239
0.0317408
0.0317181
0.0316566
0.0315586
0.0314275
0.0312674
0.0310825
0.0308767
0.0306541
0.030418
0.0301716
0.0299177
0.0296587
0.0293965
0.0291331
0.0288698
0.0286081
0.0283488
0.0280929
0.0278409
0.0275935
0.0273507
0.0271128
0.0268796
0.0266508
0.026426
0.0262045
0.0259857
0.0257686
0.0255519
0.0253337
0.0251114
0.0248778
0.0246319
0.0242996
0.083371
0.0716396
0.0632144
0.0568683
0.0519305
0.0479922
0.0447877
0.0421363
0.0399109
0.0380198
0.0363951
0.0349858
0.0337526
0.0326648
0.0316984
0.0308339
0.0300559
0.0293518
0.0287114
0.0281264
0.0275901
0.027097
0.0266426
0.0262233
0.0258364
0.0254792
0.0251498
0.0248462
0.0245666
0.0243094
0.0240729
0.0238555
0.0236559
0.0234737
0.023309
0.0231712
0.0230743
0.0231005
0.0240398
0.0266349
0.0306081
0.0348399
0.0384985
0.0413717
0.0434409
0.044809
0.0456058
0.0459562
0.0459685
0.0457326
0.0453176
0.0447482
0.0440678
0.0433088
0.0425007
0.0416685
0.0408315
0.0400038
0.0391954
0.0384124
0.0376583
0.0369349
0.0362426
0.035581
0.0349492
0.0343459
0.0337698
0.0332197
0.0326942
0.0321921
0.0317124
0.031254
0.0308161
0.0303976
0.0299981
0.0296186
0.0292569
0.0289109
0.0285788
0.028259
0.02795
0.0276502
0.0273578
0.0270708
0.0267867
0.0265026
0.02622
0.0259307
0.025631
0.0252536
0.0833702
0.0716377
0.0632114
0.0568642
0.0519251
0.0479854
0.0447793
0.042126
0.0398984
0.0380045
0.0363767
0.0349635
0.0337259
0.0326332
0.0316611
0.0307903
0.0300055
0.0292939
0.0286455
0.0280518
0.0275063
0.0270035
0.0265392
0.0261099
0.0257129
0.025346
0.0250071
0.0246945
0.0244062
0.0241403
0.0238948
0.0236678
0.0234567
0.0232594
0.023072
0.0229023
0.022755
0.0228731
0.0276341
0.0387461
0.0520452
0.0626139
0.0689512
0.0717241
0.0718988
0.0704438
0.0680952
0.065349
0.0625092
0.0597427
0.0571199
0.0546664
0.0524056
0.0503474
0.0484848
0.0468024
0.0452811
0.0439011
0.0426439
0.041493
0.0404342
0.0394558
0.038549
0.0377061
0.0369244
0.0361926
0.0355035
0.0348521
0.0342349
0.0336492
0.0330929
0.0325642
0.0320616
0.0315837
0.031129
0.0306963
0.0302841
0.029891
0.0295154
0.0291556
0.0288099
0.0284763
0.0281526
0.0278362
0.0275242
0.0272124
0.026895
0.0265606
0.0262016
0.0257838
0.0833694
0.0716359
0.0632086
0.0568603
0.0519199
0.0479787
0.0447709
0.0421156
0.0398856
0.0379889
0.0363577
0.0349407
0.0336986
0.0326007
0.0316227
0.0307453
0.029953
0.0292331
0.0285754
0.0279718
0.0274155
0.0269013
0.0264251
0.0259838
0.0255748
0.0251962
0.0248463
0.0245233
0.0242251
0.0239498
0.0236952
0.023459
0.0232378
0.0230273
0.0228161
0.0226043
0.0223516
0.0229131
0.0428539
0.0735717
0.09765
0.108784
0.109199
0.103564
0.0954874
0.0870815
0.0793485
0.0726406
0.066988
0.0622857
0.0583894
0.0551527
0.0524476
0.0501628
0.0482077
0.0465126
0.0450292
0.0437306
0.0425662
0.0415009
0.040514
0.0395927
0.0387283
0.0379145
0.0371462
0.0364197
0.0357316
0.0350792
0.0344602
0.0338728
0.0333152
0.0327859
0.0322834
0.0318063
0.0313532
0.0309227
0.0305131
0.0301228
0.0297501
0.029393
0.0290494
0.0287171
0.0283935
0.028076
0.0277611
0.0274445
0.0271204
0.0267766
0.0263894
0.0259235
0.0833688
0.0716344
0.0632061
0.0568567
0.051915
0.0479723
0.0447626
0.0421052
0.0398727
0.0379731
0.0363384
0.0349173
0.0336703
0.0325668
0.0315825
0.0306978
0.0298973
0.0291681
0.0285001
0.027885
0.0273163
0.0267887
0.0262985
0.0258428
0.0254196
0.0250274
0.0246649
0.0243303
0.0240216
0.0237369
0.0234746
0.0232339
0.0230134
0.0228127
0.0226215
0.0224401
0.0222109
0.0228337
0.0447137
0.0782468
0.104314
0.115167
0.115032
0.108651
0.0995865
0.0901078
0.0813541
0.0737527
0.0673645
0.0620905
0.0577715
0.0542471
0.0513692
0.0490397
0.0471181
0.0454855
0.0440647
0.0428036
0.041666
0.0406266
0.0396676
0.0387761
0.0379429
0.037161
0.0364251
0.035731
0.0350755
0.0344558
0.0338695
0.0333146
0.0327894
0.0322921
0.0318211
0.0313748
0.0309514
0.0305493
0.0301665
0.0298011
0.0294509
0.0291136
0.028787
0.0284684
0.0281553
0.0278447
0.0275334
0.027217
0.0268899
0.0265399
0.0261431
0.0256473
0.0833683
0.0716332
0.0632041
0.0568536
0.0519107
0.0479665
0.044755
0.0420954
0.0398604
0.0379577
0.0363194
0.0348941
0.0336422
0.0325329
0.0315418
0.0306494
0.0298398
0.0291003
0.0284206
0.0277924
0.027209
0.0266655
0.0261584
0.0256853
0.0252449
0.0248363
0.024459
0.0241113
0.023791
0.0234961
0.0232261
0.0229836
0.0227736
0.0226073
0.0224861
0.0224258
0.0223312
0.0229591
0.044027
0.0773357
0.103759
0.115004
0.115098
0.108938
0.100077
0.0907875
0.082185
0.0746755
0.068308
0.0629738
0.0585249
0.0548347
0.0518119
0.0492826
0.0471305
0.0452734
0.043651
0.0422181
0.0409397
0.0397892
0.0387456
0.0377926
0.0369174
0.0361099
0.0353619
0.0346669
0.0340194
0.0334149
0.0328497
0.0323203
0.0318237
0.0313573
0.0309183
0.0305042
0.0301123
0.02974
0.0293846
0.0290432
0.0287132
0.0283916
0.0280757
0.0277629
0.0274504
0.0271354
0.0268153
0.0264858
0.0261424
0.0257726
0.025354
0.0248268
0.083368
0.0716324
0.0632025
0.0568511
0.051907
0.0479614
0.0447482
0.0420864
0.0398488
0.0379431
0.0363012
0.0348715
0.0336145
0.0324991
0.0315009
0.0306001
0.0297808
0.0290299
0.0283371
0.0276937
0.0270933
0.026531
0.0260036
0.0255095
0.0250482
0.0246202
0.024226
0.0238641
0.0235316
0.0232261
0.0229488
0.0227094
0.0225265
0.0224423
0.0224975
0.0227673
0.023012
0.023663
0.041832
0.072084
0.0971229
0.108848
0.1099
0.104718
0.097028
0.0890145
0.0816071
0.0750822
0.0694219
0.0645155
0.060244
0.0565474
0.0533466
0.0505402
0.0480632
0.0458692
0.0439216
0.0421896
0.0406459
0.0392664
0.03803
0.0369182
0.0359151
0.0350071
0.0341826
0.0334316
0.0327457
0.0321175
0.0315406
0.0310093
0.0305185
0.0300634
0.0296395
0.0292426
0.0288684
0.0285129
0.0281722
0.0278424
0.0275198
0.0272008
0.0268824
0.0265614
0.0262351
0.0259006
0.0255554
0.0251951
0.0248158
0.024403
0.023941
0.0234045
0.0833678
0.0716319
0.0632014
0.0568492
0.051904
0.047957
0.0447421
0.0420784
0.0398382
0.0379295
0.0362839
0.0348499
0.0335877
0.0324662
0.0314606
0.030551
0.0297212
0.028958
0.0282504
0.0275899
0.0269696
0.0263848
0.0258327
0.0253124
0.0248252
0.0243734
0.02396
0.0235839
0.0232405
0.0229273
0.0226489
0.0224293
0.022318
0.0224331
0.0229375
0.024057
0.0249814
0.0255103
0.0265121
0.0303369
0.0373718
0.0448917
0.051287
0.0563902
0.05994
0.0619641
0.0626644
0.0622874
0.061079
0.0592713
0.0570733
0.0546666
0.0522202
0.0498188
0.0475216
0.0453661
0.0433723
0.041547
0.0398875
0.0383856
0.0370293
0.0358057
0.0347015
0.0337045
0.0328033
0.0319876
0.0312482
0.0305769
0.0299663
0.0294095
0.0289
0.0284319
0.0279991
0.0275959