/*--------------------------------*- C++ -*----------------------------------*\
| =========                 |                                                 |
| \\      /  F ield         | OpenFOAM: The Open Source CFD Toolbox           |
|  \\    /   O peration     | Version:  v2012                                 |
|   \\  /    A nd           | Website:  www.openfoam.com                      |
|    \\/     M anipulation  |                                                 |
\*---------------------------------------------------------------------------*/
FoamFile
{
    version     2.0;
    format      ascii;
    class       volScalarField;
    location    "500/air";
    object      nut;
}
// * * * * * * * * * * * * * * * * * * * * * * * * * * * * * * * * * * * * * //

dimensions      [0 2 -1 0 0 0 0];


internalField   nonuniform List<scalar> 
287104
(
0.00648531
0.00601335
0.0056504
0.00536108
0.00512493
0.00492876
0.00476348
0.00462257
0.00450121
0.00439578
0.00430349
0.00422216
0.00415005
0.00408577
0.00402819
0.00397639
0.00392959
0.00388714
0.00384852
0.00381325
0.00378094
0.00375127
0.00372395
0.00369871
0.00367535
0.00365367
0.00363351
0.00361473
0.00359718
0.00358075
0.00356535
0.00355087
0.00353724
0.00352437
0.0035122
0.00350065
0.00348968
0.00347923
0.00346925
0.0034597
0.00345053
0.0034417
0.00343318
0.00342494
0.00341695
0.00340918
0.00340162
0.00339424
0.00338702
0.00337996
0.00337303
0.00336623
0.00335956
0.003353
0.00334655
0.0033402
0.00333396
0.00332782
0.00332178
0.00331585
0.00331001
0.00330427
0.00329863
0.00329309
0.00328765
0.0032823
0.00327705
0.00327188
0.00326681
0.00326182
0.0032569
0.00325206
0.00324728
0.00324256
0.00323788
0.00323324
0.00322861
0.00322398
0.00321933
0.00321464
0.00320986
0.00320497
0.0031999
0.00319457
0.00318886
0.00318257
0.00317544
0.00316656
0.00315614
0.00313212
0.00648518
0.00601308
0.00565
0.00536056
0.00512432
0.00492807
0.00476272
0.00462174
0.00450033
0.00439486
0.00430253
0.00422116
0.00414903
0.00408474
0.00402716
0.00397536
0.00392856
0.00388613
0.00384752
0.00381226
0.00377998
0.00375033
0.00372302
0.00369781
0.00367447
0.00365283
0.0036327
0.00361395
0.00359644
0.00358007
0.00356472
0.0035503
0.00353674
0.00352394
0.00351185
0.00350039
0.00348952
0.00347917
0.00346929
0.00345985
0.00345079
0.00344207
0.00343367
0.00342554
0.00341767
0.00341001
0.00340256
0.00339528
0.00338816
0.00338118
0.00337434
0.00336762
0.00336101
0.00335451
0.00334811
0.0033418
0.0033356
0.00332948
0.00332346
0.00331753
0.0033117
0.00330596
0.00330031
0.00329475
0.00328929
0.00328392
0.00327864
0.00327345
0.00326834
0.00326331
0.00325836
0.00325348
0.00324866
0.00324389
0.00323916
0.00323447
0.00322978
0.0032251
0.00322038
0.00321562
0.00321077
0.0032058
0.00320064
0.00319523
0.00318944
0.00318308
0.00317589
0.00316696
0.00315655
0.00313281
0.00648513
0.00601296
0.00564983
0.00536034
0.00512405
0.00492775
0.00476235
0.00462133
0.00449988
0.00439437
0.00430201
0.00422063
0.00414849
0.00408419
0.00402661
0.00397481
0.00392802
0.0038856
0.00384699
0.00381175
0.00377948
0.00374984
0.00372255
0.00369736
0.00367404
0.00365242
0.00363232
0.00361361
0.00359614
0.00357981
0.00356451
0.00355014
0.00353664
0.00352391
0.00351189
0.00350052
0.00348973
0.00347947
0.00346969
0.00346035
0.0034514
0.00344279
0.0034345
0.00342649
0.00341873
0.00341119
0.00340384
0.00339668
0.00338967
0.00338281
0.00337608
0.00336946
0.00336296
0.00335657
0.00335027
0.00334407
0.00333797
0.00333196
0.00332604
0.00332022
0.0033145
0.00330886
0.00330333
0.00329788
0.00329254
0.00328728
0.00328212
0.00327705
0.00327207
0.00326716
0.00326234
0.00325759
0.0032529
0.00324827
0.00324368
0.00323912
0.00323457
0.00323002
0.00322544
0.00322081
0.00321609
0.00321124
0.0032062
0.00320091
0.00319525
0.00318902
0.00318199
0.00317327
0.00316312
0.00314004
0.00648507
0.00601284
0.00564963
0.00536006
0.0051237
0.00492732
0.00476184
0.00462075
0.00449923
0.00439366
0.00430126
0.00421984
0.00414767
0.00408336
0.00402577
0.00397396
0.00392717
0.00388474
0.00384614
0.0038109
0.00377862
0.00374898
0.00372169
0.0036965
0.00367319
0.00365158
0.00363149
0.00361279
0.00359535
0.00357904
0.00356378
0.00354947
0.00353601
0.00352335
0.0035114
0.00350011
0.00348941
0.00347925
0.00346957
0.00346033
0.00345149
0.003443
0.00343482
0.00342692
0.00341927
0.00341183
0.0034046
0.00339753
0.00339062
0.00338384
0.00337718
0.00337064
0.0033642
0.00335787
0.00335162
0.00334546
0.0033394
0.00333342
0.00332753
0.00332173
0.00331602
0.0033104
0.00330487
0.00329943
0.00329408
0.00328882
0.00328365
0.00327856
0.00327356
0.00326863
0.00326378
0.00325899
0.00325426
0.00324958
0.00324493
0.0032403
0.00323567
0.00323102
0.00322632
0.00322155
0.00321666
0.00321162
0.00320637
0.00320084
0.00319492
0.00318844
0.00318115
0.00317219
0.00316181
0.00313864
0.00648503
0.00601273
0.00564945
0.00535983
0.0051234
0.00492695
0.00476141
0.00462024
0.00449865
0.00439302
0.00430056
0.0042191
0.00414691
0.00408259
0.00402499
0.00397319
0.0039264
0.00388398
0.00384538
0.00381015
0.00377788
0.00374824
0.00372096
0.00369577
0.00367247
0.00365087
0.0036308
0.00361212
0.00359471
0.00357845
0.00356323
0.00354897
0.00353559
0.003523
0.00351114
0.00349994
0.00348935
0.0034793
0.00346975
0.00346064
0.00345193
0.00344358
0.00343554
0.00342778
0.00342027
0.00341297
0.00340587
0.00339893
0.00339214
0.00338548
0.00337894
0.00337251
0.00336618
0.00335994
0.00335379
0.00334772
0.00334175
0.00333585
0.00333004
0.00332432
0.00331869
0.00331314
0.00330769
0.00330232
0.00329704
0.00329185
0.00328675
0.00328173
0.0032768
0.00327194
0.00326715
0.00326242
0.00325774
0.00325311
0.0032485
0.00324391
0.00323931
0.00323468
0.00322999
0.00322521
0.00322029
0.0032152
0.00320989
0.00320429
0.0031983
0.00319177
0.00318448
0.00317559
0.00316536
0.00314266
0.00648498
0.00601261
0.00564927
0.00535957
0.00512306
0.00492653
0.00476089
0.00461963
0.00449796
0.00439225
0.00429974
0.00421825
0.00414606
0.00408174
0.00402416
0.00397236
0.00392558
0.00388317
0.00384457
0.00380932
0.00377704
0.0037474
0.00372011
0.00369491
0.00367161
0.00365001
0.00362996
0.00361131
0.00359393
0.00357771
0.00356256
0.00354837
0.00353508
0.0035226
0.00351087
0.00349981
0.00348937
0.0034795
0.00347013
0.00346122
0.00345272
0.00344458
0.00343676
0.00342923
0.00342195
0.00341488
0.00340801
0.0034013
0.00339474
0.00338831
0.00338199
0.00337578
0.00336967
0.00336366
0.00335773
0.00335188
0.00334613
0.00334047
0.00333489
0.00332941
0.00332402
0.00331872
0.00331353
0.00330843
0.00330343
0.00329854
0.00329374
0.00328904
0.00328444
0.00327992
0.00327549
0.00327114
0.00326686
0.00326264
0.00325847
0.00325434
0.00325021
0.00324608
0.0032419
0.00323765
0.00323329
0.00322878
0.00322408
0.00321916
0.00321395
0.00320831
0.00320208
0.00319454
0.00318591
0.00316607
0.00648493
0.0060125
0.00564909
0.00535932
0.00512272
0.00492609
0.00476034
0.00461896
0.00449714
0.0043913
0.00429868
0.00421712
0.0041449
0.00408057
0.00402299
0.00397122
0.00392445
0.00388205
0.00384345
0.00380821
0.00377594
0.0037463
0.003719
0.00369382
0.00367053
0.00364895
0.00362893
0.00361033
0.00359302
0.00357689
0.00356185
0.0035478
0.00353468
0.00352239
0.00351087
0.00350006
0.00348989
0.00348031
0.00347126
0.00346268
0.00345453
0.00344676
0.00343933
0.00343216
0.00342522
0.00341851
0.00341199
0.00340563
0.00339943
0.00339336
0.00338741
0.00338157
0.00337583
0.00337018
0.00336463
0.00335916
0.00335379
0.00334851
0.00334333
0.00333825
0.00333327
0.00332841
0.00332365
0.00331901
0.00331448
0.00331008
0.00330579
0.00330163
0.00329759
0.00329368
0.00328988
0.0032862
0.00328263
0.00327917
0.00327581
0.00327253
0.00326932
0.00326616
0.00326301
0.00325984
0.00325659
0.00325324
0.00324977
0.00324617
0.00324241
0.00323842
0.00323414
0.00322917
0.00322406
0.00320981
0.00648488
0.00601239
0.00564891
0.00535905
0.00512236
0.00492562
0.00475974
0.00461822
0.00449625
0.00439027
0.00429758
0.00421605
0.00414387
0.00407961
0.00402207
0.00397031
0.00392354
0.0038811
0.00384245
0.00380713
0.00377476
0.00374501
0.00371762
0.00369234
0.00366897
0.00364734
0.00362729
0.0036087
0.00359143
0.00357539
0.00356048
0.00354661
0.00353366
0.00352158
0.0035103
0.00349976
0.00348988
0.00348061
0.00347188
0.00346363
0.0034558
0.00344835
0.00344122
0.00343436
0.00342774
0.00342131
0.00341506
0.00340896
0.00340299
0.00339713
0.00339138
0.00338572
0.00338016
0.0033747
0.00336934
0.00336407
0.00335891
0.00335385
0.00334889
0.00334405
0.00333932
0.00333471
0.00333021
0.00332584
0.00332158
0.00331744
0.00331343
0.00330953
0.00330574
0.00330207
0.0032985
0.00329504
0.00329167
0.00328839
0.00328518
0.00328204
0.00327894
0.00327586
0.00327275
0.00326957
0.00326625
0.00326277
0.00325915
0.0032554
0.0032515
0.00324743
0.0032432
0.00323867
0.00323503
0.00322774
0.00648484
0.00601228
0.00564872
0.00535877
0.00512196
0.00492507
0.004759
0.0046172
0.00449486
0.0043884
0.00429592
0.00421536
0.0041445
0.00408149
0.00402491
0.00397366
0.00392694
0.00388412
0.00384476
0.00380848
0.003775
0.00374407
0.0037155
0.00368911
0.00366473
0.00364222
0.00362143
0.00360225
0.00358454
0.00356819
0.00355309
0.00353912
0.00352621
0.00351427
0.0035032
0.00349292
0.00348335
0.00347441
0.003466
0.00345803
0.00345044
0.00344316
0.00343613
0.00342932
0.00342269
0.00341621
0.00340986
0.00340366
0.00339758
0.00339163
0.00338579
0.00338005
0.00337442
0.0033689
0.00336347
0.00335815
0.00335294
0.00334783
0.00334285
0.00333798
0.00333323
0.0033286
0.0033241
0.00331972
0.00331546
0.00331134
0.00330734
0.00330347
0.00329972
0.0032961
0.00329261
0.00328924
0.00328598
0.00328284
0.00327981
0.00327688
0.00327404
0.00327125
0.00326849
0.00326563
0.00326254
0.0032593
0.00325601
0.00325268
0.00324928
0.00324577
0.00324213
0.00323825
0.0032351
0.00322976
0.00648479
0.00601217
0.00564853
0.00535849
0.00512156
0.00492453
0.00475827
0.00461623
0.00449352
0.00438682
0.00435495
0.00433938
0.00431535
0.00427833
0.00423046
0.0041755
0.00411695
0.0040575
0.00399909
0.00394302
0.00389013
0.00384091
0.00379557
0.00375418
0.00371666
0.00368284
0.00365245
0.00362515
0.00360056
0.00357822
0.0035577
0.00353846
0.00352163
0.00350757
0.0034956
0.00348523
0.00347603
0.0034677
0.00346001
0.00345279
0.0034459
0.00343924
0.00343273
0.00342633
0.0034202
0.00341446
0.0034091
0.00340409
0.00339937
0.00339491
0.00339066
0.00338658
0.00338264
0.00337884
0.00337516
0.00337159
0.00336814
0.0033648
0.00336157
0.00335846
0.00335545
0.00335256
0.00334977
0.00334708
0.00334451
0.00334203
0.00333967
0.00333741
0.00333526
0.00333322
0.00333128
0.00332947
0.00332777
0.00332619
0.00332473
0.00332338
0.00332214
0.00332098
0.00331986
0.00331857
0.00330999
0.00329984
0.00329003
0.00328111
0.00327313
0.00326596
0.00325941
0.00325313
0.00324783
0.00324036
0.00648475
0.00601206
0.00564834
0.00535819
0.00512112
0.00492387
0.00475723
0.00461452
0.00448999
0.00438983
0.00774271
0.00847662
0.0084715
0.00821874
0.00789862
0.00757942
0.00728613
0.00702657
0.00680177
0.00661014
0.00644926
0.00631639
0.00620875
0.00612353
0.00605789
0.00600895
0.00597389
0.00594994
0.00593449
0.00592519
0.00591999
0.0059172
0.00591603
0.00591646
0.00591822
0.00592077
0.00592361
0.00592639
0.00592891
0.00593114
0.00593312
0.00593502
0.00593673
0.00593828
0.0059396
0.00594086
0.0059424
0.00594456
0.00594766
0.00595197
0.00595765
0.00596483
0.00597358
0.00598398
0.00599603
0.0060097
0.006025
0.00604196
0.00606061
0.00608095
0.00610296
0.0061266
0.00615182
0.00617858
0.0062068
0.0062364
0.00626731
0.00629942
0.00633264
0.00636687
0.00640198
0.00643783
0.00647431
0.00651131
0.00654878
0.00658677
0.00662567
0.00666622
0.00671313
0.00675633
0.00540387
0.00460449
0.00410967
0.00379412
0.00358927
0.00345476
0.00336574
0.00330587
0.00326579
0.00323311
0.0064847
0.00601195
0.00564816
0.00535792
0.00512074
0.00492335
0.00475652
0.00461357
0.00448872
0.00438822
0.00774248
0.00847796
0.00847098
0.00821389
0.00788796
0.00756206
0.00726163
0.00699481
0.00676288
0.00656449
0.00639737
0.00625898
0.0061467
0.00605785
0.00598967
0.00593935
0.00590401
0.00588079
0.00586695
0.00585992
0.00585742
0.00585747
0.00585846
0.00585915
0.00585865
0.00585632
0.00585172
0.00584455
0.00583465
0.00582198
0.00580655
0.00578842
0.00576809
0.0057458
0.00572178
0.0056963
0.00566966
0.00564217
0.00561406
0.0055855
0.00555669
0.00552785
0.00549916
0.00547083
0.00544306
0.00541607
0.00539008
0.00536534
0.00534213
0.00532073
0.00530139
0.00528444
0.00527022
0.00525909
0.00525137
0.00524739
0.00524744
0.00525176
0.00526056
0.00527395
0.00529199
0.00531469
0.00534196
0.00537371
0.00540979
0.00545004
0.00549458
0.00554346
0.00560106
0.005656
0.00472092
0.00414582
0.00377659
0.0035329
0.00336968
0.00325972
0.0031855
0.00313418
0.00309778
0.00306025
0.00648466
0.00601184
0.00564798
0.00535765
0.00512036
0.00492282
0.0047558
0.00461259
0.00448735
0.00438635
0.00773503
0.00847094
0.00846557
0.00821
0.00788517
0.00755988
0.0072596
0.0069926
0.00676031
0.00656154
0.00639421
0.00625593
0.00614424
0.00605657
0.00599027
0.00594256
0.00591056
0.00589138
0.00588216
0.00588024
0.00588323
0.00588907
0.00589606
0.00590287
0.00590856
0.00591244
0.0059141
0.00591325
0.00590976
0.00590363
0.00589488
0.00588361
0.00586997
0.00585415
0.00583637
0.00581687
0.00579591
0.00577376
0.00575067
0.00572685
0.00570252
0.00567785
0.00565295
0.00562794
0.00560283
0.00557765
0.00555234
0.00552688
0.00550116
0.00547514
0.00544882
0.00542218
0.00539515
0.0053677
0.00533979
0.00531142
0.0052826
0.0052534
0.00522388
0.00519416
0.00516437
0.0051347
0.00510537
0.00507665
0.00504892
0.00502261
0.0049985
0.00497722
0.00496296
0.00494506
0.00415144
0.00368252
0.00339189
0.00320353
0.00307628
0.00298684
0.00292147
0.00287002
0.00282745
0.0027732
0.00648462
0.00601174
0.00564781
0.00535741
0.00512003
0.0049224
0.00475526
0.00461191
0.00448653
0.00438539
0.00773245
0.0084685
0.00846345
0.00820802
0.00788312
0.00755759
0.00725694
0.00698952
0.00675681
0.00655767
0.00639006
0.00625162
0.00613991
0.00605241
0.00598648
0.00593936
0.00590817
0.00589002
0.00588203
0.00588153
0.00588609
0.00589363
0.00590245
0.00591122
0.00591896
0.005925
0.00592887
0.00593026
0.005929
0.00592501
0.0059183
0.00590896
0.00589711
0.00588296
0.00586677
0.00584891
0.00582976
0.00580969
0.00578907
0.00576825
0.00574752
0.00572715
0.00570811
0.0056905
0.00567417
0.00565893
0.00564466
0.00563125
0.00561864
0.00560686
0.00559599
0.00558607
0.00557714
0.00556916
0.00556215
0.0055561
0.00555099
0.0055468
0.00554345
0.00554088
0.00553902
0.00553778
0.00553709
0.00553686
0.00553707
0.00553777
0.00553935
0.00554254
0.00555228
0.00557014
0.00468959
0.00419149
0.00389127
0.00369838
0.00356572
0.00346745
0.0033885
0.00331863
0.00325767
0.00319326
0.00648458
0.00601164
0.00564765
0.00535719
0.00511974
0.00492202
0.00475478
0.00461132
0.00448581
0.00438453
0.00772927
0.00846483
0.00845975
0.00820441
0.0078796
0.00755409
0.00725339
0.00698585
0.00675296
0.00655364
0.00638585
0.00624728
0.00613554
0.0060481
0.00598235
0.00593553
0.00590477
0.00588716
0.00587983
0.00588007
0.00588545
0.0058939
0.00590369
0.0059135
0.00592234
0.0059295
0.00593451
0.00593697
0.00593666
0.00593342
0.00592718
0.00591794
0.0059058
0.00589095
0.0058737
0.00585445
0.00583364
0.00581172
0.00578909
0.00576616
0.00574324
0.00572059
0.00569844
0.00567695
0.00565622
0.00563633
0.00561731
0.00559918
0.00558204
0.00556635
0.005552
0.00553879
0.00552655
0.00551517
0.00550457
0.00549474
0.00548572
0.00547762
0.00547052
0.00546447
0.00545954
0.00545582
0.00545345
0.00545255
0.0054533
0.005456
0.00546117
0.00546964
0.00548639
0.00551346
0.00465834
0.00418032
0.00389733
0.00372017
0.00360249
0.00351896
0.00345493
0.00340036
0.00334671
0.00327465
0.00648454
0.00601155
0.00564751
0.00535698
0.00511948
0.0049217
0.0047544
0.00461087
0.00448529
0.00438393
0.00772706
0.00846199
0.0084565
0.00820082
0.0078757
0.0075499
0.00724892
0.00698114
0.00674805
0.00654856
0.00638067
0.00624207
0.00613036
0.00604303
0.00597746
0.0059309
0.00590045
0.00588319
0.00587625
0.00587689
0.0058827
0.00589159
0.00590185
0.00591217
0.00592158
0.00592937
0.00593501
0.00593808
0.00593824
0.00593522
0.00592883
0.00591894
0.00590561
0.00588899
0.00586943
0.00584744
0.00582354
0.00579827
0.00577215
0.00574562
0.00571903
0.00569268
0.00566676
0.00564142
0.00561675
0.00559277
0.00556949
0.00554687
0.00552486
0.00550341
0.00548244
0.0054619
0.00544171
0.00542178
0.00540202
0.00538237
0.00536273
0.00534304
0.00532323
0.00530323
0.00528297
0.00526239
0.00524145
0.00522011
0.00519838
0.00517632
0.00515427
0.00513243
0.00511384
0.00508874
0.00429223
0.00383677
0.00356392
0.00339101
0.00327339
0.00318621
0.00311546
0.00305157
0.00299071
0.00290982
0.0064845
0.00601146
0.00564737
0.0053568
0.00511925
0.00492144
0.00475412
0.00461057
0.00448498
0.0043836
0.00772589
0.0084601
0.00845385
0.00819742
0.00787157
0.00754511
0.00724357
0.00697533
0.00674191
0.00654223
0.00637427
0.00623573
0.0061242
0.00603715
0.00597192
0.00592572
0.00589563
0.00587868
0.00587196
0.00587275
0.00587863
0.00588755
0.00589785
0.0059083
0.00591796
0.00592617
0.0059324
0.00593615
0.00593696
0.00593437
0.00592794
0.00591739
0.00590263
0.00588381
0.00586135
0.0058359
0.00580814
0.00577877
0.00574843
0.00571764
0.00568683
0.0056563
0.00562626
0.00559684
0.00556809
0.00554
0.00551253
0.00548559
0.00545912
0.00543302
0.00540719
0.00538153
0.00535596
0.00533039
0.00530475
0.00527897
0.00525301
0.00522684
0.00520046
0.00517388
0.00514716
0.00512038
0.00509368
0.00506726
0.00504141
0.00501649
0.00499314
0.00497181
0.00495624
0.00493601
0.00415384
0.00369966
0.00342432
0.00324998
0.00313428
0.00305335
0.00299339
0.00294462
0.00290271
0.00284689
0.00648446
0.00601137
0.00564724
0.00535663
0.00511906
0.00492122
0.00475389
0.00461034
0.00448475
0.00438335
0.00772387
0.00845662
0.00844922
0.008192
0.00786567
0.00753897
0.00723739
0.00696925
0.00673606
0.00653673
0.00636928
0.00623143
0.00612079
0.00603482
0.00597084
0.00592598
0.00589723
0.00588157
0.00587606
0.00587799
0.00588501
0.00589517
0.00590698
0.00591932
0.00593138
0.00594254
0.00595224
0.0059598
0.00596443
0.00596523
0.0059613
0.00595198
0.00593703
0.00591665
0.00589154
0.00586273
0.00583132
0.00579837
0.00576483
0.00573144
0.00569876
0.00566716
0.00563686
0.00560796
0.00558046
0.00555428
0.00552932
0.00550549
0.00548272
0.00546092
0.00544004
0.00542002
0.00540083
0.00538247
0.00536495
0.00534832
0.00533266
0.00531809
0.00530475
0.00529279
0.0052824
0.0052738
0.00526724
0.00526298
0.00526136
0.00526278
0.00526792
0.00527741
0.00529615
0.00531589
0.0044723
0.00398272
0.00368544
0.00349713
0.00337288
0.00328748
0.00322619
0.00317907
0.00314045
0.00309506
0.00648442
0.00601129
0.00564712
0.00535649
0.00511891
0.0049211
0.00475383
0.00461042
0.00448507
0.00438402
0.00772705
0.00845823
0.00844849
0.0081891
0.00786113
0.00753358
0.00723215
0.0069654
0.00673505
0.00654021
0.00637903
0.00624919
0.0061481
0.00607287
0.00602033
0.00598712
0.00596982
0.00596512
0.00596999
0.0059818
0.00599839
0.00601808
0.00603963
0.0060621
0.0060848
0.00610706
0.00612804
0.00614658
0.00616115
0.00616993
0.00617105
0.00616317
0.00614586
0.00611963
0.00608592
0.0060467
0.00600415
0.00596029
0.00591693
0.00587548
0.00583695
0.00580202
0.00577101
0.00574402
0.00572091
0.00570144
0.00568544
0.0056727
0.00566293
0.00565579
0.00565093
0.00564804
0.00564689
0.00564731
0.00564921
0.00565255
0.00565734
0.0056636
0.00567141
0.00568082
0.00569191
0.00570476
0.00571946
0.00573611
0.00575489
0.00577606
0.0058003
0.00582913
0.0058707
0.00592576
0.00494502
0.00436843
0.00400848
0.00377271
0.00361225
0.00349947
0.00341782
0.00335628
0.00330745
0.00325958
0.00648438
0.00601121
0.00564701
0.00535635
0.00511876
0.00492097
0.00475376
0.00461043
0.00448526
0.00438432
0.00772146
0.00844957
0.00844116
0.00818549
0.0078655
0.00755187
0.00727137
0.00703287
0.0068376
0.00668341
0.00656655
0.00648245
0.00642622
0.00639298
0.00637809
0.00637739
0.00638728
0.00640482
0.00642771
0.00645423
0.00648315
0.00651364
0.00654517
0.00657741
0.00661007
0.00664277
0.0066748
0.00670488
0.00673102
0.00675047
0.00676001
0.00675689
0.00673947
0.00670762
0.00666267
0.00660708
0.00654388
0.00647633
0.00640762
0.00634069
0.00627811
0.00622196
0.00617376
0.00613447
0.00610451
0.00608369
0.00607332
0.00607282
0.00608015
0.0060931
0.0061098
0.00612886
0.00614936
0.00617068
0.00619248
0.00621461
0.00623699
0.00625964
0.00628259
0.00630589
0.00632958
0.00635372
0.00637834
0.00640354
0.00642943
0.00645625
0.0064847
0.006516
0.00655597
0.00660049
0.00534478
0.00460615
0.00414852
0.00385407
0.0036593
0.00352765
0.00343701
0.00337326
0.00332777
0.00329082
0.00648435
0.00601113
0.0056469
0.00535624
0.00511868
0.00492098
0.00475401
0.00461123
0.00448776
0.00438017
0.0043046
0.00423886
0.00417164
0.0041092
0.00405077
0.00399614
0.00394526
0.00389809
0.00385454
0.0038145
0.0037778
0.00374427
0.00371374
0.003686
0.00366086
0.00363814
0.00361764
0.00359921
0.00358269
0.00356794
0.00355485
0.00354333
0.00353332
0.0035248
0.00351776
0.00351225
0.00350829
0.00350587
0.00350488
0.00350508
0.003506
0.00350709
0.00350777
0.00350756
0.00350614
0.00350324
0.00349883
0.00349303
0.00348601
0.003478
0.00346927
0.00346006
0.00345062
0.00344119
0.00343194
0.00342305
0.00341463
0.00340678
0.00339955
0.00339295
0.00338696
0.00338153
0.00337663
0.00337218
0.00336813
0.00336442
0.00336101
0.00335785
0.0033549
0.00335214
0.00334954
0.00334708
0.00334476
0.00334256
0.00334048
0.00333853
0.00333668
0.00333493
0.00333327
0.00333152
0.00332329
0.00331367
0.00330437
0.0032959
0.00328834
0.0032816
0.00327557
0.00326999
0.00326549
0.00325884
0.00648431
0.00601106
0.00564679
0.0053561
0.00511853
0.00492084
0.00475392
0.00461123
0.00448792
0.00438045
0.00428632
0.00420347
0.00413001
0.00406443
0.00400554
0.00395237
0.00390414
0.00386022
0.00382008
0.0037833
0.00374951
0.00371843
0.00368981
0.00366342
0.00363911
0.00361672
0.00359613
0.00357723
0.00355994
0.00354419
0.00352994
0.00351716
0.00350586
0.00349607
0.00348787
0.00348138
0.00347675
0.00347404
0.00347327
0.00347414
0.00347604
0.0034782
0.00347985
0.00348036
0.00347938
0.00347681
0.00347266
0.00346708
0.00346026
0.00345243
0.00344385
0.00343474
0.00342532
0.00341576
0.00340622
0.00339682
0.00338766
0.00337883
0.00337039
0.00336238
0.00335483
0.00334775
0.00334115
0.00333502
0.00332934
0.00332409
0.00331924
0.00331478
0.00331068
0.00330692
0.00330347
0.00330031
0.00329742
0.00329479
0.00329239
0.00329021
0.00328824
0.00328643
0.00328476
0.0032831
0.00328132
0.00327948
0.00327766
0.00327589
0.00327415
0.00327242
0.00327066
0.00326873
0.00326736
0.00326276
0.00648428
0.00601098
0.00564667
0.00535597
0.00511839
0.00492072
0.00475385
0.00461128
0.0044882
0.00438102
0.00428706
0.00420416
0.00413053
0.00406471
0.00400555
0.00395209
0.00390357
0.00385934
0.00381887
0.00378173
0.00374756
0.00371606
0.00368697
0.00366009
0.00363524
0.00361229
0.0035911
0.00357158
0.00355365
0.00353726
0.00352237
0.00350898
0.0034971
0.00348681
0.00347826
0.00347168
0.00346734
0.00346555
0.00346649
0.00346985
0.00347476
0.00348003
0.0034845
0.00348728
0.00348793
0.00348634
0.00348258
0.00347688
0.00346953
0.00346087
0.00345125
0.00344099
0.00343031
0.00341939
0.00340847
0.00339775
0.00338738
0.00337748
0.00336814
0.00335942
0.00335133
0.0033439
0.00333713
0.00333101
0.00332551
0.0033206
0.00331626
0.00331246
0.00330916
0.00330633
0.00330394
0.00330194
0.00330032
0.00329904
0.00329806
0.00329736
0.00329689
0.00329661
0.00329645
0.00329635
0.00329621
0.00329599
0.00329568
0.00329527
0.00329468
0.00329382
0.00329258
0.00329053
0.0032878
0.00327833
0.00648424
0.0060109
0.00564655
0.0053558
0.00511819
0.00492049
0.0047536
0.00461101
0.00448789
0.00438065
0.00428654
0.00420339
0.00412946
0.00406333
0.00400385
0.00395008
0.00390124
0.00385668
0.00381589
0.00377841
0.00374389
0.00371202
0.00368255
0.00365528
0.00363004
0.00360668
0.00358508
0.00356514
0.0035468
0.00352999
0.00351467
0.00350084
0.00348854
0.00347787
0.00346904
0.00346239
0.00345844
0.00345784
0.00346129
0.00346863
0.00347865
0.00348945
0.00349906
0.00350608
0.00350992
0.00351049
0.003508
0.00350284
0.00349547
0.00348638
0.00347628
0.00346546
0.00345427
0.003443
0.00343191
0.00342119
0.00341102
0.00340153
0.00339283
0.003385
0.00337807
0.00337206
0.00336697
0.00336278
0.00335942
0.00335686
0.003355
0.00335378
0.00335309
0.00335285
0.00335297
0.00335336
0.00335392
0.00335458
0.00335525
0.00335587
0.00335638
0.00335669
0.00335676
0.0033565
0.00335586
0.00335476
0.00335316
0.00335103
0.0033483
0.00334488
0.00334066
0.00333516
0.00332848
0.00331419
0.00648421
0.00601081
0.00564642
0.00535563
0.00511798
0.00492024
0.00475331
0.00461068
0.00448752
0.00438023
0.00428601
0.0042027
0.00412855
0.00406215
0.00400236
0.00394823
0.00389901
0.00385405
0.00381282
0.00377489
0.00373991
0.00370756
0.0036776
0.00364984
0.00362411
0.00360026
0.00357818
0.00355778
0.00353896
0.00352166
0.00350585
0.00349149
0.00347862
0.00346735
0.00345791
0.00345081
0.00344682
0.00344727
0.00345459
0.0034701
0.00349253
0.0035181
0.0035422
0.00356202
0.00357646
0.00358547
0.00358959
0.00358961
0.00358642
0.00358084
0.00357443
0.00356795
0.00356187
0.0035565
0.0035521
0.00354879
0.00354662
0.00354554
0.00354544
0.00354615
0.00354746
0.00354916
0.00355102
0.00355283
0.00355441
0.00355561
0.00355629
0.00355638
0.00355582
0.00355458
0.00355265
0.00355005
0.0035468
0.00354295
0.00353853
0.00353358
0.00352815
0.00352227
0.00351597
0.00350925
0.00350213
0.00349459
0.00348664
0.00347823
0.00346935
0.00345988
0.00344972
0.00343836
0.00342586
0.00340625
0.00648417
0.00601073
0.00564629
0.00535544
0.00511773
0.00491993
0.00475293
0.00461021
0.00448695
0.00437952
0.00428512
0.00420157
0.00412714
0.00406043
0.00400029
0.00394579
0.00389616
0.00385077
0.00380909
0.00377068
0.00373519
0.00370233
0.00367185
0.00364355
0.00361727
0.00359288
0.00357027
0.00354934
0.00352999
0.00351215
0.00349576
0.00348077
0.00346716
0.00345504
0.00344459
0.00343648
0.00343172
0.0034331
0.0034511
0.0034959
0.00356602
0.00364654
0.0037221
0.00378677
0.003839
0.00387971
0.00391077
0.00393419
0.00395176
0.00396496
0.00397443
0.00398315
0.00399061
0.00399629
0.00399979
0.0040009
0.00399951
0.00399568
0.00398954
0.0039813
0.0039712
0.00395949
0.0039464
0.00393218
0.00391704
0.00390116
0.00388472
0.00386786
0.00385072
0.0038334
0.00381601
0.00379863
0.00378133
0.00376416
0.00374719
0.00373043
0.00371392
0.00369767
0.00368167
0.00366591
0.00365037
0.003635
0.00361976
0.00360459
0.00358939
0.00357404
0.00355835
0.00354179
0.00352428
0.00350049
0.00648413
0.00601065
0.00564615
0.00535525
0.00511747
0.0049196
0.00475252
0.0046097
0.00448632
0.00437874
0.00428416
0.0042004
0.00412571
0.00405868
0.00399819
0.00394329
0.00389323
0.00384736
0.00380515
0.00376619
0.00373011
0.00369663
0.0036655
0.00363655
0.00360962
0.00358458
0.00356133
0.00353977
0.00351981
0.00350133
0.00348426
0.00346849
0.00345395
0.00344062
0.00342854
0.00341839
0.00341123
0.00341317
0.00348188
0.003665
0.00392886
0.00419165
0.00440624
0.00456768
0.0046805
0.00475361
0.00479567
0.00481404
0.00481468
0.00480232
0.00478048
0.00475038
0.00471416
0.00467341
0.00462964
0.00458413
0.0045379
0.00449172
0.00444615
0.00440156
0.00435818
0.00431616
0.00427554
0.00423636
0.00419858
0.00416219
0.00412712
0.00409334
0.0040608
0.00402945
0.00399926
0.00397018
0.00394219
0.00391525
0.00388931
0.00386453
0.00384075
0.00381788
0.00379581
0.00377444
0.00375369
0.00373346
0.00371364
0.0036941
0.00367468
0.00365517
0.00363566
0.00361558
0.00359468
0.00356818
0.0064841
0.00601056
0.00564602
0.00535506
0.00511721
0.00491925
0.00475207
0.00460914
0.00448562
0.00437786
0.00428308
0.00419906
0.00412408
0.00405671
0.00399583
0.00394051
0.00388996
0.00384356
0.00380078
0.00376119
0.00372444
0.00369024
0.00365838
0.00362867
0.00360098
0.0035752
0.00355122
0.00352895
0.00350829
0.00348913
0.00347135
0.00345482
0.00343938
0.00342488
0.00341106
0.0033985
0.00338755
0.00339633
0.00373311
0.00442041
0.00512318
0.00561932
0.00589683
0.00601422
0.00602154
0.0059603
0.0058601
0.00574072
0.00561462
0.00548897
0.00536714
0.00525061
0.0051409
0.00503895
0.00494489
0.00485837
0.00477879
0.00470544
0.00463761
0.00457462
0.00451589
0.00446093
0.00440936
0.00436086
0.00431537
0.00427235
0.00423143
0.00419238
0.00415502
0.00411925
0.00408497
0.00405212
0.00402063
0.00399044
0.0039615
0.00393377
0.00390716
0.00388162
0.00385706
0.00383341
0.00381055
0.00378838
0.00376677
0.00374555
0.00372452
0.00370341
0.00368181
0.00365892
0.00363415
0.00360511
0.00648407
0.00601049
0.00564589
0.00535487
0.00511695
0.00491891
0.00475163
0.00460857
0.0044849
0.00437696
0.00428196
0.00419769
0.00412241
0.00405469
0.00399341
0.00393762
0.00388655
0.00383957
0.00379613
0.00375582
0.00371829
0.00368326
0.00365051
0.0036199
0.0035913
0.00356462
0.00353978
0.0035167
0.00349525
0.00347534
0.00345681
0.00343955
0.00342329
0.00340775
0.00339209
0.00337632
0.00335739
0.0033993
0.00464884
0.00609124
0.00701757
0.00740686
0.00742097
0.00722696
0.00693943
0.00662695
0.00632588
0.00605259
0.00581233
0.00560462
0.0054265
0.00527397
0.00514302
0.00502977
0.0049308
0.00484335
0.0047655
0.0046963
0.00463335
0.00457498
0.00452023
0.0044685
0.00441941
0.00437267
0.00432809
0.00428549
0.00424474
0.00420573
0.00416837
0.0041326
0.00409834
0.00406553
0.00403414
0.0040041
0.00397535
0.00394784
0.00392149
0.00389623
0.00387197
0.00384859
0.00382599
0.00380402
0.00378254
0.00376136
0.00374026
0.00371895
0.003697
0.00367358
0.003647
0.00361467
0.00648405
0.00601043
0.00564578
0.0053547
0.00511671
0.00491858
0.00475119
0.004608
0.00448417
0.00437605
0.00428082
0.00419628
0.00412067
0.00405259
0.00399087
0.00393458
0.00388294
0.0038353
0.00379113
0.00374999
0.00371155
0.00367554
0.00364175
0.00361006
0.00358038
0.00355266
0.00352683
0.00350283
0.00348054
0.00345986
0.00344069
0.003423
0.00340673
0.00339184
0.0033776
0.00336403
0.00334681
0.00339341
0.00474866
0.00628181
0.00725308
0.00762107
0.00761661
0.00740234
0.00708686
0.00674118
0.00640539
0.00609882
0.00582871
0.0055959
0.00539777
0.00523055
0.00508993
0.00497322
0.00487482
0.00478962
0.00471421
0.00464623
0.00458404
0.00452646
0.00447267
0.00442206
0.00437423
0.00432885
0.00428569
0.00424458