/*--------------------------------*- C++ -*----------------------------------*\
| =========                 |                                                 |
| \\      /  F ield         | OpenFOAM: The Open Source CFD Toolbox           |
|  \\    /   O peration     | Version:  v2012                                 |
|   \\  /    A nd           | Website:  www.openfoam.com                      |
|    \\/     M anipulation  |                                                 |
\*---------------------------------------------------------------------------*/
FoamFile
{
    version     2.0;
    format      ascii;
    class       volScalarField;
    location    "500/air";
    object      qin;
}
// * * * * * * * * * * * * * * * * * * * * * * * * * * * * * * * * * * * * * //

dimensions      [1 0 -3 0 0 0 0];


internalField   uniform 0;

boundaryField
{
    inlet
    {
        type            calculated;
        value           nonuniform List<scalar> 
3200
(
582.288
586.446
584.756
583.46
582.38
581.347
580.329
579.318
578.311
577.31
576.32
575.342
574.378
573.429
572.493
571.566
570.649
569.743
568.851
567.973
567.106
566.247
565.393
564.543
563.701
562.873
562.075
561.331
560.672
560.129
559.726
559.475
559.37
559.375
559.427
559.461
559.459
559.433
559.405
559.379
559.35
559.314
559.281
559.259
559.243
559.226
559.207
559.185
559.161
559.135
559.108
559.08
559.052
559.028
559.007
558.984
558.945
558.873
558.755
558.591
558.4
558.215
558.069
557.976
557.921
557.857
557.731
557.506
557.195
556.859
556.591
556.479
556.566
556.826
557.164
557.432
557.44
556.933
555.499
549.88
572.956
584.701
584.35
582.709
581.323
580.108
579
577.949
576.928
575.934
574.977
574.064
573.186
572.322
571.444
570.536
569.606
568.678
567.771
566.889
566.029
565.186
564.357
563.54
562.738
561.958
561.214
560.524
559.915
559.41
559.031
558.792
558.691
558.694
558.736
558.768
558.778
558.777
558.772
558.763
558.747
558.724
558.705
558.697
558.693
558.686
558.676
558.662
558.646
558.626
558.606
558.584
558.564
558.546
558.532
558.521
558.509
558.49
558.457
558.41
558.355
558.309
558.285
558.286
558.292
558.261
558.142
557.898
557.522
557.047
556.53
556.026
555.565
555.129
554.636
553.941
552.874
551.411
549.344
542.803
564.096
579.625
582.257
581.349
580.177
579.032
577.929
576.886
575.908
574.994
574.136
573.318
572.512
571.689
570.833
569.944
569.04
568.144
567.264
566.394
565.522
564.646
563.773
562.917
562.092
561.316
560.604
559.971
559.432
559.005
558.701
558.523
558.458
558.468
558.505
558.533
558.544
558.544
558.539
558.531
558.517
558.499
558.485
558.48
558.479
558.477
558.474
558.468
558.462
558.455
558.448
558.444
558.443
558.446
558.454
558.468
558.482
558.491
558.486
558.459
558.408
558.335
558.239
558.114
557.931
557.646
557.211
556.594
555.799
554.882
553.929
553.035
552.261
551.588
550.904
550.063
549.077
548.174
546.505
539.732
557.484
573.849
579.288
579.626
579.04
578.26
577.324
576.317
575.321
574.366
573.473
572.613
571.737
570.828
569.902
568.984
568.091
567.22
566.347
565.452
564.494
563.485
562.477
561.522
560.657
559.906
559.281
558.781
558.406
558.152
558.012
557.969
557.992
558.047
558.098
558.131
558.147
558.154
558.157
558.158
558.157
558.156
558.162
558.175
558.193
558.213
558.234
558.254
558.272
558.288
558.302
558.312
558.315
558.309
558.287
558.246
558.178
558.077
557.934
557.739
557.485
557.169
556.791
556.348
555.83
555.22
554.505
553.692
552.821
551.961
551.188
550.549
550.018
549.496
548.866
548.145
547.601
547.241
545.171
537.992
552.579
568.277
575.849
577.381
577.258
576.839
576.18
575.317
574.341
573.316
572.303
571.301
570.281
569.239
568.192
567.173
566.202
565.278
564.369
563.443
562.457
561.438
560.458
559.586
558.869
558.32
557.92
557.639
557.448
557.329
557.272
557.265
557.293
557.335
557.379
557.417
557.45
557.48
557.507
557.534
557.563
557.596
557.635
557.68
557.728
557.775
557.816
557.848
557.865
557.864
557.841
557.789
557.704
557.58
557.411
557.193
556.922
556.596
556.212
555.774
555.283
554.753
554.198
553.637
553.081
552.538
552.01
551.499
551.011
550.548
550.094
549.612
549.048
548.375
547.675
547.198
547.167
546.872
543.863
536.705
548.573
562.667
571.701
574.399
574.613
574.432
574.079
573.505
572.744
571.846
570.791
569.58
568.316
567.077
565.868
564.7
563.606
562.605
561.688
560.803
559.966
559.225
558.566
558.001
557.58
557.315
557.162
557.051
556.931
556.788
556.64
556.516
556.438
556.41
556.423
556.463
556.519
556.58
556.641
556.699
556.757
556.815
556.873
556.927
556.971
556.997
557
556.971
556.906
556.798
556.645
556.443
556.191
555.891
555.543
555.153
554.729
554.277
553.808
553.331
552.859
552.412
552.014
551.686
551.437
551.254
551.102
550.925
550.657
550.243
549.654
548.907
548.081
547.323
546.854
546.885
547.193
546.396
542.389
535.756
545.114
557.132
567.029
571.016
571.677
571.696
571.639
571.418
571.009
570.473
569.578
568.204
566.635
565.146
563.771
562.484
561.311
560.289
559.429
558.628
558.009
557.674
557.451
557.202
556.978
556.846
556.773
556.674
556.493
556.232
555.941
555.686
555.511
555.427
555.417
555.453
555.512
555.577
555.638
555.689
555.728
555.755
555.768
555.761
555.727
555.66
555.554
555.407
555.216
554.983
554.711
554.404
554.07
553.716
553.351
552.985
552.63
552.294
551.985
551.711
551.481
551.308
551.204
551.17
551.184
551.192
551.113
550.857
550.361
549.621
548.712
547.778
546.998
546.555
546.587
547.035
547.212
545.538
540.847
535.081
542.366
552.211
562.374
567.709
569.023
569.256
569.472
569.587
569.511
569.376
568.807
567.476
565.734
564.059
562.575
561.233
560.04
559.032
558.235
557.487
556.984
556.927
557.028
556.968
556.761
556.555
556.382
556.178
555.892
555.537
555.172
554.863
554.653
554.543
554.505
554.505
554.52
554.533
554.536
554.52
554.483
554.423
554.34
554.233
554.101
553.941
553.753
553.541
553.309
553.063
552.81
552.558
552.314
552.083
551.872
551.688
551.536
551.42
551.34
551.296
551.283
551.297
551.327
551.345
551.304
551.134
550.765
550.158
549.332
548.384
547.465
546.743
546.351
546.367
546.776
547.267
546.9
544.323
539.396
534.62
540.432
548.248
558.09
564.671
566.826
567.275
567.705
568.144
568.346
568.459
568.185
567.083
565.407
563.712
562.221
560.892
559.709
558.703
557.92
557.175
556.654
556.644
556.877
556.905
556.653
556.305
555.973
555.643
555.275
554.874
554.487
554.16
553.922
553.767
553.668
553.596
553.528
553.457
553.376
553.279
553.164
553.031
552.882
552.724
552.561
552.397
552.235
552.077
551.928
551.792
551.674
551.574
551.493
551.431
551.388
551.369
551.375
551.406
551.455
551.505
551.534
551.516
551.419
551.211
550.857
550.332
549.638
548.815
547.953
547.169
546.577
546.258
546.251
546.553
547.045
547.254
546.173
542.902
538.128
534.3
539.097
545.181
554.198
561.784
564.966
565.667
566.185
566.913
567.418
567.667
567.522
566.635
565.141
563.55
562.149
560.918
559.809
558.833
558.047
557.302
556.7
556.555
556.736
556.789
556.522
556.078
555.619
555.183
554.75
554.314
553.9
553.54
553.25
553.029
552.858
552.715
552.583
552.456
552.333
552.209
552.083
551.954
551.83
551.718
551.62
551.539
551.474
551.425
551.391
551.372
551.366
551.371
551.385
551.41
551.446
551.496
551.557
551.617
551.655
551.636
551.52
551.275
550.883
550.345
549.687
548.952
548.201
547.501
546.919
546.501
546.271
546.241
546.42
546.788
547.147
546.899
545.115
541.434
537.072
534.067
538.103
542.828
550.622
558.827
563.193
564.295
564.741
565.592
566.44
566.904
566.836
566.05
564.66
563.133
561.819
560.746
559.825
559.003
558.299
557.602
556.935
556.578
556.569
556.567
556.303
555.818
555.272
554.751
554.257
553.784
553.342
552.95
552.621
552.358
552.151
551.984
551.842
551.72
551.616
551.525
551.446
551.384
551.349
551.341
551.35
551.365
551.382
551.4
551.42
551.439
551.453
551.465
551.481
551.509
551.549
551.593
551.62
551.6
551.495
551.266
550.885
550.349
549.688
548.96
548.24
547.597
547.08
546.707
546.466
546.333
546.293
546.365
546.581
546.892
546.995
546.217
543.835
540.021
536.214
533.879
537.364
541.091
547.381
555.668
561.237
563.009
563.317
563.998
565.078
565.92
566.095
565.415
564.016
562.392
561.014
560.037
559.371
558.855
558.381
557.829
557.175
556.643
556.395
556.262
555.978
555.481
554.889
554.311
553.78
553.295
552.854
552.466
552.14
551.879
551.679
551.529
551.416
551.33
551.266
551.219
551.191
551.195
551.236
551.3
551.366
551.416
551.449
551.471
551.487
551.494
551.491
551.481
551.472
551.467
551.455
551.411
551.302
551.091
550.751
550.269
549.657
548.96
548.248
547.601
547.086
546.736
546.537
546.444
546.399
546.368
546.368
546.453
546.649
546.829
546.586
545.26
542.438
538.73
535.528
533.709
536.845
539.878
544.555
552.329
558.896
561.628
561.94
562.197
563.213
564.427
565.055
564.668
563.328
561.538
559.929
558.883
558.399
558.216
558.052
557.723
557.186
556.601
556.175
555.897
555.578
555.092
554.497
553.904
553.373
552.911
552.507
552.156
551.858
551.617
551.433
551.302
551.214
551.156
551.114
551.086
551.089
551.12
551.148
551.147
551.114
551.07
551.038
551.027
551.035
551.055
551.086
551.118
551.133
551.099
550.985
550.769
550.441
550
549.459
548.846
548.203
547.59
547.068
546.688
546.467
546.384
546.385
546.403
546.394
546.364
546.368
546.459
546.601
546.572
545.915
544.083
541.012
537.592
534.974
533.538
536.424
539.027
542.193
548.94
556.077
559.936
560.602
560.443
561.086
562.415
563.496
563.591
562.533
560.708
558.841
557.57
557.07
557.061
557.127
557.026
556.698
556.222
555.765
555.422
555.103
554.667
554.114
553.541
553.029
552.601
552.241
551.932
551.663
551.434
551.251
551.121
551.043
550.997
550.962
550.95
550.977
550.978
550.849
550.563
550.21
549.919
549.756
549.705
549.719
549.784
549.907
550.069
550.195
550.191
549.995
549.61
549.096
548.526
547.96
547.439
546.989
546.633
546.39
546.265
546.239
546.275
546.32
546.333
546.309
546.286
546.318
546.405
546.429
546.109
545.008
542.765
539.634
536.618
534.516
533.351
535.941
538.366
540.298
545.688
552.831
557.759
559.22
558.997
559.179
560.267
561.532
562.092
561.512
559.925
557.996
556.508
555.817
555.713
555.776
555.772
555.628
555.333
554.97
554.677
554.443
554.13
553.679
553.156
552.66
552.244
551.907
551.625
551.376
551.158
550.979
550.854
550.788
550.754
550.735
550.758
550.79
550.66
550.196
549.427
548.612
548.028
547.759
547.698
547.717
547.797
547.992
548.301
548.605
548.73
548.571
548.152
547.604
547.073
546.659
546.395
546.267
546.242
546.285
546.363
546.447
546.514
546.554
546.576
546.611
546.693
546.809
546.86
546.65
545.894
544.245
541.577
538.424
535.778
534.053
533.082
535.325
537.794
538.851
542.765
549.337
555.033
557.609
557.83
557.702
558.261
559.293
560.081
560.055
559.062
557.52
556.121
555.266
554.861
554.627
554.443
554.256
554.005
553.706
553.496
553.407
553.297
553.036
552.63
552.173
551.757
551.414
551.137
550.907
550.716
550.569
550.476
550.436
550.416
550.427
550.487
550.452
550.034
549.069
547.748
546.534
545.814
545.609
545.643
545.676
545.706
545.873
546.24
546.69
547.002
547.024
546.769
546.383
546.037
545.83
545.774
545.822
545.919
546.021
546.107
546.167
546.2
546.217
546.249
546.327
546.452
546.547
546.463
545.999
544.907
542.934
540.148
537.252
535.081
533.689
532.85
534.614
537.275
537.807
540.311
545.841
551.82
555.535
556.592
556.405
556.303
556.726
557.39
557.808
557.636
556.935
556.062
555.28
554.59
553.933
553.37
552.907
552.492
552.117
551.908
551.926
552.034
552.033
551.836
551.497
551.122
550.786
550.515
550.312
550.165
550.06
549.997
549.96
549.923
549.939
549.993
549.782
548.929
547.397
545.615
544.228
543.639
543.716
543.981
544.079
544.029
544.066
544.347
544.808
545.246
545.494
545.527
545.439
545.352
545.333
545.385
545.474
545.567
545.644
545.699
545.733
545.755
545.789
545.865
545.997
546.127
546.128
545.842
545.108
543.721
541.517
538.748
536.207
534.479
533.331
532.591
533.843
536.736
537.019
538.309
542.523
548.251
552.861
554.944
555.016
554.386
554.055
554.272
554.811
555.299
555.492
555.341
554.87
554.12
553.221
552.379
551.65
551.016
550.479
550.159
550.155
550.38
550.61
550.67
550.539
550.298
550.04
549.831
549.683
549.572
549.455
549.325
549.183
549.041
548.996
548.972
548.517
547.223
545.237
543.212
541.882
541.575
542.002
542.536
542.738
542.627
542.497
542.583
542.904
543.332
543.748
544.107
544.415
544.676
544.877
545.005
545.071
545.101
545.123
545.148
545.177
545.22
545.299
545.432
545.587
545.652
545.484
544.969
543.99
542.366
540.027
537.398
535.27
533.931
532.952
532.302
532.974
536.05
536.272
536.625
539.484
544.547
549.683
552.831
553.546
552.804
551.901
551.543
551.834
552.521
553.226
553.615
553.511
552.945
552.124
551.281
550.481
549.732
549.052
548.561
548.404
548.581
548.909
549.17
549.264
549.222
549.133
549.061
548.998
548.87
548.611
548.242
547.836
547.496
547.344
547.217
546.562
545.004
542.844
540.852
539.709
539.622
540.23
540.892
541.151
540.999
540.732
540.623
540.755
541.093
541.602
542.267
543.023
543.733
544.252
544.519
544.582
544.546
544.504
544.497
544.533
544.616
544.753
544.923
545.037
544.957
544.578
543.85
542.672
540.87
538.489
536.103
534.409
533.386
532.519
531.966
531.911
535.1
535.387
535.112
536.772
540.925
546.191
550.306
551.994
551.656
550.562
549.732
549.587
550.059
550.789
551.349
551.484
551.204
550.682
550.071
549.398
548.669
547.919
547.271
546.906
546.912
547.183
547.51
547.741
547.865
547.951
548.034
548.027
547.78
547.227
546.471
545.725
545.208
545.023
544.883
544.182
542.621
540.603
538.88
537.971
537.937
538.446
538.984
539.166
538.97
538.655
538.478
538.528
538.808
539.364
540.246
541.377
542.52
543.4
543.872
543.988
543.912
543.807
543.763
543.809
543.941
544.128
544.284
544.275
543.99
543.404
542.51
541.176
539.239
536.899
534.842
533.572
532.785
531.99
531.551
530.518
533.794
534.269
533.669
534.321
537.297
542.119
546.88
549.774
550.417
549.639
548.606
548.043
548.082
548.456
548.793
548.895
548.804
548.639
548.417
548.105
547.629
546.99
546.307
545.781
545.565
545.649
545.867
546.047
546.154
546.254
546.326
546.18
545.603
544.597
543.437
542.514
542.127
542.257
542.412
541.919
540.587
538.915
537.584
536.907
536.794
536.976
537.155
537.136
536.959
536.841
536.929
537.186
537.543
538.065
538.895
540.044
541.296
542.337
542.957
543.157
543.1
542.977
542.923
542.988
543.145
543.298
543.303
543.046
542.516
541.764
540.741
539.247
537.21
535.047
533.452
532.603
531.97
531.225
530.931
529.09
532.418
533.126
532.454
532.411
534.154
537.951
542.678
546.527
548.415
548.399
547.528
546.757
546.411
546.341
546.278
546.118
545.967
545.955
546.042
546.2
546.206
545.923
545.423
544.89
544.512
544.366
544.362
544.345
544.263
544.166
543.991
543.486
542.446
541.008
539.634
538.842
538.918
539.66
540.353
540.256
539.254
537.922
536.907
536.4
536.213
536.11
535.961
535.789
535.766
536.081
536.71
537.398
537.923
538.321
538.809
539.531
540.41
541.217
541.756
541.98
541.989
541.936
541.94
542.031
542.133
542.103
541.822
541.282
540.574
539.723
538.562
536.88
534.825
533.004
531.94
531.424
530.849
530.149
530.011
527.976
531.257
532.151
531.547
531.176
531.986
534.58
538.64
542.822
545.745
546.676
546.284
545.572
545.024
544.647
544.275
543.847
543.475
543.326
543.412
543.836
544.277
544.427
544.26
543.896
543.501
543.207
543.013
542.805
542.519
542.169
541.669
540.776
539.353
537.652
536.243
535.68
536.184
537.421
538.574
538.879
538.239
537.219
536.429
536.047
535.884
535.714
535.469
535.282
535.432
536.11
537.173
538.204
538.863
539.139
539.27
539.479
539.809
540.161
540.421
540.551
540.601
540.651
540.742
540.832
540.802
540.535
540.015
539.341
538.598
537.68
536.333
534.484
532.54
531.149
530.527
530.172
529.576
528.925
528.91
527.023
530.16
531.201
530.715
530.265
530.51
532.046
535.125
539.066
542.616
544.474
544.78
544.36
543.776
543.223
542.684
542.105
541.528
541.097
540.897
541.242
541.84
542.28
542.45
542.381
542.159
541.899
541.642
541.317
540.86
540.27
539.48
538.308
536.685
534.901
533.531
533.102
533.783
535.204
536.587
537.23
537.018
536.401
535.894
535.675
535.626
535.562
535.405
535.273
535.459
536.18
537.306
538.407
539.105
539.337
539.291
539.177
539.084
539.007
538.937
538.896
538.925
539.03
539.153
539.177
538.988
538.563
537.993
537.389
536.703
535.684
534.12
532.189
530.49
529.54
529.215
528.876
528.225
527.633
527.701
526.059
529.02
530.214
529.874
529.489
529.491
530.271
532.337
535.628
539.319
541.893
542.98
543.046
542.578
541.937
541.302
540.67
539.993
539.326
538.756
538.775
539.22
539.692
540.066
540.317
540.422
540.386
540.2
539.799
539.152
538.314
537.305
536.034
534.461
532.817
531.585
531.226
531.883
533.228
534.614
535.478
535.7
535.567
535.426
535.421
535.518
535.614
535.613
535.536
535.596
536.039
536.861
537.762
538.402
538.655
538.604
538.379
538.061
537.705
537.39
537.204
537.183
537.266
537.314
537.19
536.856
536.401
535.957
535.522
534.865
533.683
531.945
530.088
528.748
528.187
528.008
527.596
526.896
526.375
526.485
525.059
527.878
529.255
529.082
528.813
528.767
529.09
530.289
532.724
536.106
539.043
540.827
541.499
541.312
540.675
539.964
539.305
538.627
537.883
537.076
536.762
536.908
537.201
537.582
538.038
538.457
538.694
538.611
538.116
537.248
536.186
535.091
533.964
532.74
531.509
530.587
530.335
530.884
531.992
533.186
534.078
534.583
534.849
535.041
535.229
535.431
535.636
535.76
535.727
535.624
535.689
536.062
536.633
537.15
537.431
537.439
537.212
536.815
536.35
535.954
535.735
535.692
535.699
535.585
535.268
534.823
534.414
534.113
533.749
532.977
531.586
529.791
528.18
527.264
527.009
526.867
526.362
525.652
525.22
525.348
524.099
526.829
528.411
528.403
528.224
528.192
528.272
528.825
530.395
533.153
536.057
538.309
539.601
539.859
539.38
538.649
537.963
537.331
536.659
535.839
535.364
535.265
535.308
535.519
535.954
536.475
536.818
536.734
536.107
535.065
533.927
532.98
532.273
531.67
531.08
530.616
530.517
530.914
531.677
532.514
533.208
533.728
534.145
534.495
534.77
534.994
535.215
535.391
535.406
535.243
535.075
535.11
535.388
535.763
536.04
536.095
535.901
535.521
535.091
534.764
534.618
534.587
534.499
534.213
533.74
533.242
532.87
532.57
532.047
530.985
529.384
527.669
526.424
525.918
525.871
525.709
525.145
524.49
524.174
524.332
523.234
525.911
527.688
527.818
527.661
527.624
527.587
527.728
528.573
530.576
533.115
535.53
537.348
538.179
538.064
537.449
536.767
536.176
535.63
534.951
534.507
534.311
534.15
534.097
534.281
534.601
534.777
534.527
533.765
532.696
531.722
531.171
531.074
531.203
531.301
531.304
531.339
531.547
531.921
532.33
532.68
532.984
533.289
533.582
533.813
533.983
534.15
534.316
534.387
534.299
534.127
534.046
534.159
534.413
534.653
534.732
534.595
534.3
533.986
533.786
533.723
533.686
533.511
533.125
532.614
532.143
531.759
531.278
530.391
528.954
527.21
525.687
524.826
524.637
524.685
524.471
523.898
523.357
523.184
523.414
522.461
525.088
527.024
527.25
527.052
526.965
526.879
526.814
527.154
528.442
530.419
532.708
534.873
536.312
536.742
536.417
535.801
535.214
534.74
534.217
533.897
533.73
533.463
533.146
532.948
532.852
532.653
532.143
531.3
530.373
529.75
529.704
530.197
530.925
531.542
531.879
531.997
532.048
532.116
532.182
532.213
532.235
532.296
532.397
532.497
532.579
532.675
532.805
532.925
532.968
532.929
532.893
532.95
533.114
533.302
533.396
533.334
533.153
532.955
532.828
532.762
532.661
532.426
532.059
531.655
531.281
530.836
530.064
528.762
527.026
525.277
524.018
523.48
523.461
523.488
523.19
522.63
522.226
522.2
522.54
521.745
524.302
526.345
526.631
526.36
526.2
526.103
525.987
526.054
526.782
528.155
530.1
532.377
534.321
535.355
535.44
534.953
534.327
533.819
533.368
533.162
533.085
532.803
532.288
531.718
531.168
530.567
529.831
529.006
528.319
528.067
528.41
529.242
530.247
531.092
531.601
531.808
531.85
531.834
531.775
531.652
531.483
531.326
531.222
531.177
531.176
531.223
531.326
531.472
531.61
531.691
531.721
531.755
531.842
531.967
532.063
532.067
531.972
531.821
531.659
531.494
531.297
531.062
530.827
530.621
530.355
529.806
528.741
527.141
525.31
523.737
522.788
522.484
522.504
522.416
522.001
521.441
521.149
521.232
521.679
521.063
523.517
525.62
525.949
525.609
525.382
525.299
525.226
525.201
525.566
526.407
527.891
530.027
532.232
533.746
534.236
533.909
533.232
532.622
532.162
532.029
532.056
531.822
531.202
530.361
529.469
528.596
527.769
527.059
526.613
526.592
527.05
527.864
528.794
529.612
530.204
530.588
530.842
531.009
531.068
530.986
530.773
530.502
530.262
530.108
530.051
530.078
530.174
530.323
530.48
530.586
530.613
530.594
530.59
530.635
530.698
530.71
530.62
530.422
530.15
529.861
529.616
529.472
529.441
529.425
529.199
528.499
527.21
525.51
523.825
522.584
521.97
521.836
521.823
521.588
521.046
520.465
520.229
520.355
520.846
520.416
522.735
524.86
525.237
524.859
524.587
524.529
524.533
524.527
524.704
525.146
526.134
527.898
530.033
531.749
532.513
532.344
531.668
530.992
530.527
530.458
530.591
530.437
529.791
528.806
527.736
526.768
525.997
525.461
525.188
525.205
525.505
526.019
526.65
527.32
527.998
528.67
529.307
529.835
530.165
530.243
530.093
529.809
529.515
529.305
529.217
529.238
529.336
529.472
529.593
529.643
529.596
529.483
529.371
529.307
529.275
529.204
529.023
528.713
528.332
527.995
527.821
527.862
528.037
528.121
527.817
526.925
525.503
523.889
522.521
521.691
521.401
521.403
521.354
521
520.365
519.766
519.545
519.654
520.097
519.808
521.971
524.099
524.541
524.162
523.869
523.832
523.903
523.955
524.063
524.24
524.763
525.989
527.731
529.319
530.164
530.145
529.586
528.987
528.612
528.647
528.888
528.821
528.191
527.159
526.047
525.119
524.487
524.125
523.943
523.869
523.881
524.007
524.307
524.844
525.637
526.622
527.656
528.553
529.16
529.419
529.375
529.143
528.862
528.645
528.544
528.558
528.649
528.761
528.828
528.796
528.653
528.434
528.205
528.005
527.817
527.58
527.238
526.807
526.389
526.135
526.156
526.428
526.751
526.807
526.32
525.228
523.766
522.353
521.358
520.913
520.887
520.995
520.932
520.522
519.861
519.281
519.07
519.141
519.467
519.245
521.242
523.365
523.89
523.541
523.241
523.21
523.315
523.414
523.51
523.528
523.653
524.276
525.412
526.612
527.377
527.517
527.221
526.886
526.736
526.927
527.269
527.27
526.673
525.653
524.578
523.745
523.256
523.023
522.873
522.683
522.451
522.292
522.378
522.851
523.738
524.927
526.199
527.308
528.083
528.475
528.543
528.406
528.195
528.013
527.918
527.92
527.99
528.071
528.088
527.989
527.766
527.456
527.11
526.755
526.376
525.936
525.431
524.931
524.578
524.517
524.791
525.262
525.629
525.549
524.839
523.6
522.188
521.02
520.354
520.187
520.322
520.482
520.41
519.991
519.364
518.856
518.685
518.734
518.936
518.723
520.551
522.666
523.289
522.986
522.682
522.639
522.743
522.855
522.946
522.869
522.687
522.752
523.237
523.946
524.555
524.877
524.964
525.039
525.213
525.586
526.002
526.039
525.48
524.513
523.517
522.785
522.397
522.229
522.083
521.833
521.503
521.249
521.278
521.733
522.623
523.808
525.061
526.152
526.939
527.391
527.565
527.556
527.462
527.36
527.297
527.296
527.345
527.394
527.373
527.228
526.945
526.551
526.086
525.571
525.008
524.401
523.804
523.332
523.134
523.304
523.789
524.349
524.636
524.361
523.467
522.185
520.912
519.993
519.564
519.539
519.714
519.851
519.741
519.316
518.749
518.343
518.243
518.305
518.427
518.227
519.891
521.997
522.721
522.472
522.161
522.092
522.166
522.254
522.321
522.181
521.793
521.438
521.383
521.655
522.12
522.639
523.149
523.681
524.199
524.734
525.183
525.229
524.717
523.843
522.96
522.326
521.993
521.838
521.687
521.447
521.159
520.968
521.041
521.473
522.241
523.217
524.221
525.096
525.762
526.208
526.467
526.596
526.649
526.662
526.667
526.693
526.741
526.776
526.733
526.551
526.205
525.714
525.115
524.449
523.75
523.071
522.502
522.166
522.173
522.534
523.107
523.6
523.698
523.218
522.231
521.033
519.978
519.296
519.016
519.023
519.143
519.185
518.985
518.523
517.999
517.688
517.665
517.76
517.861
517.748
519.254
521.348
522.172
521.978
521.657
521.553
521.583
521.623
521.641
521.456
520.96
520.364
519.971
519.952
520.329
521.023
521.899
522.83
523.639
524.291
524.737
524.779
524.333
523.592
522.858
522.329
522.031
521.863
521.704
521.51
521.326
521.255
521.388
521.755
522.31
522.961
523.6
524.162
524.638
525.028
525.331
525.57
525.76
525.902
526.009
526.104
526.196
526.254
526.208
525.989
525.561
524.939
524.186
523.384
522.621
521.986
521.572
521.458
521.672
522.132
522.638
522.916
522.749
522.093
521.116
520.109
519.324
518.863
518.682
518.667
518.688
518.593
518.262
517.723
517.205
516.951
516.978
517.097
517.214
517.258
518.616
520.692
521.611
521.474
521.14
520.996
520.975
520.951
520.906
520.688
520.169
519.503
518.982
518.833
519.167
519.963
521.066
522.26
523.265
523.989
524.424
524.475
524.123
523.547
522.988
522.58
522.32
522.133
521.958
521.795
521.69
521.698
521.844
522.106
522.43
522.766
523.063
523.337
523.625
523.925
524.211
524.489
524.763
525.012
525.226
525.419
525.59
525.7
525.671
525.419
524.9
524.141
523.245
522.354
521.608
521.117
520.94
521.074
521.442
521.883
522.183
522.147
521.696
520.918
520.035
519.278
518.777
518.523
518.427
518.396
518.33
518.107
517.642
517.016
516.48
516.245
516.281
516.397
516.527
516.834
518.073
520.134
521.131
521.042
520.698
520.523
520.463
520.386
520.286
520.049
519.558
518.929
518.416
518.241
518.55
519.371
520.573
521.906
523.028
523.795
524.221
524.286
524.022
523.599
523.206
522.917
522.705
522.511
522.319
522.159
522.079
522.103
522.214
522.366
522.505
522.613
522.671
522.74
522.888
523.096
523.32
523.571
523.868
524.187
524.506
524.817
525.102
525.298
525.307
525.028
524.413
523.513
522.478
521.515
520.818
520.5
520.571
520.934
521.407
521.766
521.813
521.453
520.749
519.898
519.138
518.625
518.372
518.289
518.273
518.247
518.129
517.809
517.232
516.524
515.954
515.706
515.719
515.804
515.924
516.117
517.193
519.202
520.316
520.318
519.96
519.721
519.585
519.423
519.235
518.974
518.568
518.103
517.747
517.634
517.867
518.522
519.564
520.818
521.96
522.795
523.309
523.501
523.415
523.199
522.999
522.849
522.7
522.5
522.251
522.004
521.817
521.716
521.691
521.705
521.726
521.74
521.74
521.776
521.865
521.95
522.015
522.114
522.296
522.567
522.898
523.248
523.564
523.778
523.796
523.522
522.917
522.047
521.09
520.277
519.805
519.756
520.064
520.533
520.904
520.95
520.562
519.804
518.884
518.059
517.516
517.295
517.311
517.441
517.591
517.685
517.625
517.297
516.694
515.997
515.471
515.239
515.212
515.236
515.299
)
;
    }
    outlet
    {
        type            calculated;
        value           nonuniform List<scalar> 
3200
(
620.215
620.182
616.099
613.223
610.573
607.603
604.045
600.101
597.124
595.742
596.051
598.132
600.001
595.317
593.081
595.164
594.164
590.124
586.391
583.85
582.31
581.504
581.427
580.345
578.235
575.956
574.024
572.475
571.291
570.531
570.31
570.718
571.806
573.709
576.613
576.92
574.841
573.041
571.712
570.726
570.109
569.805
569.732
569.758
569.727
569.536
569.226
568.87
568.495
568.142
567.906
567.929
568.414
569.629
571.82
574.47
575.653
575.962
576.121
576.212
576.228
576.195
576.142
576.104
576.109
576.174
576.292
576.425
576.502
576.459
576.289
576.016
575.705
575.46
575.375
575.508
575.838
576.347
577.315
577.675
601.309
613.789
612.334
609.741
607.201
604.422
601.233
597.833
595.236
593.98
594.147
595.759
597.138
593.643
591.541
592.614
591.773
588.413
584.985
582.483
580.91
579.975
579.596
578.505
576.572
574.431
572.556
571.046
569.92
569.233
569.069
569.496
570.55
572.337
574.653
574.798
573.121
571.471
570.177
569.221
568.604
568.273
568.149
568.11
568.02
567.792
567.455
567.074
566.687
566.343
566.136
566.196
566.698
567.853
569.822
572.128
573.295
573.674
573.833
573.904
573.905
573.858
573.793
573.746
573.747
573.813
573.933
574.062
574.129
574.075
573.899
573.639
573.374
573.199
573.156
573.179
573.124
573.008
572.447
567.103
586.792
605.848
608.342
607.001
605.023
602.57
599.69
596.645
594.204
592.871
592.723
593.77
594.641
592.028
590.137
590.402
589.616
586.922
583.895
581.455
579.841
578.767
578.114
577.01
575.284
573.359
571.626
570.217
569.162
568.496
568.28
568.604
569.514
571.073
572.822
572.988
571.757
570.353
569.154
568.234
567.605
567.232
567.046
566.944
566.808
566.568
566.244
565.899
565.571
565.302
565.162
565.254
565.728
566.77
568.487
570.469
571.608
572.087
572.305
572.402
572.417
572.375
572.306
572.245
572.224
572.263
572.357
572.468
572.538
572.518
572.399
572.195
571.932
571.61
571.174
570.564
569.93
569.541
567.909
560.135
576.64
597.613
603.393
603.501
602.431
600.66
598.253
595.533
593.2
591.834
591.376
591.84
592.235
590.205
588.618
588.446
587.638
585.39
582.695
580.309
578.739
577.684
576.915
575.826
574.289
572.588
571.02
569.698
568.647
567.905
567.574
567.794
568.58
569.884
571.228
571.421
570.53
569.367
568.289
567.416
566.781
566.37
566.132
565.984
565.83
565.609
565.336
565.057
564.797
564.579
564.452
564.517
564.94
565.885
567.407
569.134
570.222
570.766
571.046
571.193
571.244
571.222
571.156
571.086
571.054
571.089
571.191
571.328
571.435
571.437
571.277
570.912
570.317
569.49
568.488
567.559
567.135
566.939
564.091
555.406
569.559
590.179
598.448
599.727
599.313
598.198
596.403
594.211
592.215
591.002
590.209
589.966
589.932
588.403
587.096
586.578
585.653
583.71
581.336
579.033
577.58
576.698
575.959
574.908
573.5
571.926
570.413
569.078
567.974
567.179
566.832
567.048
567.74
568.79
569.817
570.001
569.335
568.358
567.394
566.587
565.982
565.574
565.326
565.172
565.032
564.85
564.623
564.38
564.138
563.913
563.761
563.807
564.216
565.102
566.461
567.98
569.011
569.586
569.905
570.09
570.182
570.195
570.156
570.109
570.101
570.165
570.292
570.425
570.464
570.295
569.831
569.044
567.982
566.788
565.736
565.243
565.436
564.953
560.583
552.061
564.399
583.563
593.738
596.041
595.907
595.153
593.886
592.321
590.896
590.07
589.098
588.231
587.854
586.714
585.561
584.698
583.603
581.905
579.903
577.772
576.446
575.77
575.139
574.142
572.812
571.292
569.765
568.382
567.251
566.487
566.209
566.438
566.996
567.78
568.531
568.675
568.149
567.31
566.452
565.732
565.202
564.853
564.646
564.521
564.407
564.243
564.01
563.734
563.451
563.195
563.038
563.111
563.545
564.373
565.573
566.917
567.894
568.48
568.816
569.028
569.162
569.228
569.247
569.251
569.274