/*--------------------------------*- C++ -*----------------------------------*\
| =========                 |                                                 |
| \\      /  F ield         | OpenFOAM: The Open Source CFD Toolbox           |
|  \\    /   O peration     | Version:  v2012                                 |
|   \\  /    A nd           | Website:  www.openfoam.com                      |
|    \\/     M anipulation  |                                                 |
\*---------------------------------------------------------------------------*/
FoamFile
{
    version     2.0;
    format      ascii;
    class       volScalarField;
    location    "500/air";
    object      qr;
}
// * * * * * * * * * * * * * * * * * * * * * * * * * * * * * * * * * * * * * //

dimensions      [1 0 -3 0 0 0 0];


internalField   uniform 0;

boundaryField
{
    inlet
    {
        type            calculated;
        value           nonuniform List<scalar> 
3200
(
73.7769
77.9342
76.2447
74.9491
73.8685
72.8361
71.8181
70.8064
69.7993
68.7987
67.8083
66.8306
65.867
64.9179
63.9816
63.0551
62.1376
61.2315
60.3396
59.4619
58.5951
57.7358
56.8817
56.032
55.1894
54.3615
53.5635
52.8198
52.161
51.6181
51.2149
50.9636
50.8586
50.8641
50.9152
50.9501
50.9472
50.9218
50.8934
50.8677
50.8387
50.803
50.7697
50.7475
50.7316
50.7147
50.6956
50.674
50.6499
50.624
50.5966
50.5683
50.541
50.5169
50.4961
50.4727
50.4337
50.362
50.244
50.08
49.8888
49.7035
49.5574
49.4651
49.4098
49.3461
49.2192
48.9949
48.6838
48.3475
48.0793
47.9674
48.0548
48.315
48.6526
48.9206
48.9286
48.4219
46.9875
41.3688
64.4442
76.1893
75.8389
74.198
72.8116
71.5967
70.4882
69.4381
68.4169
67.423
66.466
65.5525
64.675
63.8108
62.9324
62.0245
61.0949
60.1669
59.2599
58.3776
57.5174
56.6745
55.8456
55.0291
54.2271
53.447
52.7023
52.013
51.4038
50.8988
50.5192
50.2804
50.1801
50.1825
50.2251
50.2572
50.267
50.2654
50.2602
50.2517
50.2358
50.2128
50.1938
50.1856
50.1814
50.1745
50.1646
50.1511
50.1342
50.115
50.0943
50.0731
50.0527
50.0349
50.0209
50.0099
49.9981
49.9788
49.9459
49.8984
49.8439
49.7976
49.774
49.7752
49.7809
49.7495
49.6305
49.3863
49.011
48.5361
48.0185
47.5147
47.0541
46.6172
46.1245
45.4293
44.3624
42.8997
40.8331
34.2922
55.5851
71.1141
73.7455
72.8377
71.6657
70.5208
69.4172
68.3745
67.3972
66.4824
65.6246
64.8066
64.0002
63.1776
62.3213
61.4323
60.529
59.633
58.7527
57.8825
57.0109
56.1346
55.2617
54.4052
53.5807
52.8048
52.0927
51.4592
50.9208
50.4938
50.19
50.0121
49.9462
49.9562
49.9932
50.0213
50.0322
50.0325
50.028
50.0196
50.0056
49.9877
49.9741
49.9691
49.9678
49.9658
49.9624
49.9571
49.9503
49.9432
49.937
49.9327
49.9316
49.9347
49.9431
49.9562
49.9707
49.9797
49.9746
49.9479
49.8968
49.8232
49.728
49.6024
49.4193
49.1347
48.6996
48.0822
47.2881
46.3702
45.4172
44.524
43.7497
43.0763
42.3925
41.5515
40.5658
39.6627
37.9936
31.2205
48.9726
65.3379
70.7769
71.1147
70.5285
69.7487
68.813
67.8062
66.8094
65.8542
64.9616
64.102
63.2257
62.3166
61.3907
60.4731
59.5798
58.7082
57.8361
56.9403
55.9831
54.9741
53.966
53.0104
52.1455
51.395
50.7694
50.2697
49.8943
49.6406
49.5007
49.4572
49.481
49.5352
49.5868
49.6197
49.6357
49.6427
49.6456
49.6464
49.6453
49.6449
49.6504
49.6638
49.6819
49.702
49.7227
49.7425
49.7608
49.7771
49.7908
49.8006
49.8041
49.7975
49.7761
49.7346
49.667
49.5661
49.4229
49.228
48.9741
48.6581
48.2798
47.8365
47.3182
46.7084
45.9938
45.1811
44.3097
43.4494
42.6771
42.0376
41.5068
40.9847
40.3547
39.6334
39.0901
38.73
36.6598
29.481
44.068
59.7653
67.338
68.8692
68.747
68.3281
67.6687
66.8056
65.8298
64.8046
63.7918
62.7897
61.7699
60.7273
59.6808
58.6614
57.691
56.7664
55.8575
54.9313
53.9461
52.9271
51.9466
51.0746
50.3578
49.8085
49.4088
49.1275
48.9365
48.8178
48.7606
48.7539
48.7813
48.824
48.8672
48.9052
48.9385
48.9683
48.9959
49.0229
49.0513
49.0842
49.1237
49.1691
49.217
49.2636
49.3049
49.3365
49.3539
49.353
49.3292
49.2776
49.1927
49.0687
48.9
48.6817
48.4106
48.0842
47.7012
47.2622
46.772
46.2414
45.6867
45.1252
44.5699
44.0272
43.4989
42.9881
42.5
42.0365
41.5831
41.1007
40.5364
39.864
39.1633
38.6867
38.656
38.361
35.3519
28.1935
40.0614
54.1561
63.1895
65.8876
66.1015
65.9206
65.5673
64.9939
64.2323
63.3349
62.2799
61.0689
59.805
58.5655
57.357
56.189
55.0945
54.094
53.1771
52.2913
51.455
50.7132
50.0549
49.4899
49.0684
48.8041
48.6508
48.5395
48.4196
48.2767
48.1284
48.0044
47.9265
47.8986
47.9115
47.9521
48.0079
48.0692
48.1298
48.1879
48.2452
48.3035
48.3619
48.416
48.4597
48.4861
48.4884
48.4598
48.3942
48.2868
48.1334
47.9316
47.6801
47.3793
47.0316
46.642
46.2175
45.7661
45.2967
44.8193
44.3476
43.901
43.503
43.1748
42.9254
42.743
42.591
42.4135
42.146
41.732
41.1429
40.396
39.5695
38.8113
38.3429
38.3733
38.6816
37.885
33.8778
27.2449
36.6031
48.6207
58.5176
62.5043
63.1661
63.1848
63.1281
62.9066
62.4978
61.9622
61.0668
59.6922
58.1236
56.6342
55.2599
53.9728
52.7998
51.7776
50.9177
50.1167
49.498
49.163
48.9399
48.6906
48.4665
48.3343
48.2612
48.1629
47.9821
47.721
47.4301
47.1745
46.9997
46.916
46.9058
46.9417
47.0003
47.0655
47.1265
47.1772
47.2163
47.2437
47.2565
47.2495
47.2158
47.1488
47.0431
46.8955
46.7049
46.472
46.1998
45.8931
45.5587
45.2044
44.8395
44.474
44.1186
43.7827
43.474
43.2
42.97
42.7968
42.6924
42.6585
42.6728
42.681
42.6014
42.3452
41.8493
41.1099
40.201
39.2663
38.4868
38.0432
38.0753
38.5234
38.7012
37.0267
32.3353
26.5698
33.8548
43.7
53.8626
59.1974
60.5116
60.7443
60.9606
61.0756
61.0001
60.8645
60.2959
58.9647
57.2228
55.5479
54.0642
52.7222
51.5287
50.5206
49.7237
48.9752
48.4725
48.4156
48.5172
48.4564
48.2499
48.0438
47.8704
47.6662
47.3808
47.0257
46.6602
46.3519
46.1417
46.0312
45.9933
45.9939
46.0083
46.0221
46.0248
46.0092
45.9717
45.9117
45.8288
45.722
45.5894
45.4293
45.2418
45.0296
44.7973
44.5513
44.2988
44.0469
43.8023
43.5715
43.3607
43.1764
43.0243
42.9084
42.8291
42.7847
42.7719
42.786
42.8155
42.834
42.7925
42.6225
42.254
41.6466
40.8209
39.8724
38.9541
38.2316
37.8393
37.856
38.2645
38.7558
38.3892
35.8114
30.8845
26.1084
31.9203
39.7365
49.5788
56.1601
58.3143
58.7636
59.1936
59.6331
59.8348
59.9479
59.674
58.5714
56.8952
55.2005
53.7097
52.3806
51.1973
50.192
49.4085
48.664
48.1427
48.1327
48.3654
48.3936
48.1415
47.7932
47.462
47.1317
46.7635
46.3631
45.9753
45.6489
45.4105
45.2554
45.1569
45.0842
45.017
44.9457
44.8645
44.768
44.6529
44.5193
44.3708
44.2128
44.0501
43.886
43.7233
43.5653
43.4163
43.2809
43.1625
43.0628
42.9817
42.9193
42.8768
42.8574
42.8637
42.8949
42.9433
42.9935
43.0229
43.0046
42.9081
42.6997
42.3456
41.821
41.1264
40.304
39.4417
38.6576
38.0658
37.7467
37.7393
38.0414
38.5341
38.7427
37.6617
34.3908
29.6163
25.7886
30.5858
36.6694
45.6862
53.273
56.4543
57.1561
57.6733
58.4017
58.907
59.1557
59.0108
58.1239
56.6296
55.0386
53.638
52.4069
51.2972
50.3215
49.5361
48.7902
48.1887
48.0441
48.2246
48.2779
48.0111
47.5665
47.1073
46.6721
46.2387
45.8028
45.3889
45.0284
44.7388
44.5178
44.3472
44.2039
44.0719
43.945
43.8214
43.6979
43.5712
43.4427
43.3188
43.2062
43.1088
43.0275
42.9623
42.9132
42.8799
42.861
42.8549
42.8595
42.8739
42.8985
42.935
42.9848
43.0454
43.1061
43.1438
43.1243
43.0088
42.7639
42.3714
41.8339
41.1757
40.441
39.6897
38.9902
38.4075
37.9894
37.76
37.7296
37.909
38.2768
38.636
38.388
36.6036
32.9223
28.5603
25.5555
29.5921
34.3171
42.1102
50.3155
54.6812
55.7841
56.2294
57.0807
57.9283
58.3929
58.3251
57.539
56.1486
54.6214
53.3081
52.2351
51.3137
50.4921
49.788
49.0906
48.4235
48.0662
48.0572
48.0556
47.7913
47.3062
46.7609
46.2395
45.7459
45.2728
44.8306
44.4382
44.1095
43.8463
43.6392
43.4723
43.3306
43.2084
43.1043
43.0141
42.9348
42.8729
42.8377
42.8294
42.8383
42.8535
42.8703
42.8889
42.9091
42.9277
42.9417
42.9534
42.9697
42.9977
43.038
43.0814
43.1082
43.0882
42.9833
42.7544
42.3736
41.8379
41.1765
40.4486
39.7283
39.0855
38.5685
38.1952
37.9545
37.8212
37.7817
37.8542
38.07
38.3804
38.4839
37.7055
35.3235
31.5092
27.7029
25.3675
28.8523
32.5795
38.8698
47.157
52.7258
54.4979
54.806
55.4862
56.5664
57.4082
57.584
56.9033
55.5049
53.8805
52.5024
51.5259
50.8597
50.3435
49.8701
49.3179
48.6638
48.1312
47.8837
47.7509
47.4665
46.97
46.3779
45.7993
45.2687
44.7832
44.3425
43.9546
43.6284
43.3672
43.1673
43.0177
42.9044
42.8188
42.7551
42.7076
42.6795
42.6833
42.7242
42.789
42.8549
42.905
42.9376
42.9594
42.9752
42.9828
42.9798
42.9698
42.9608
42.9556
42.9437
42.9002
42.7907
42.5801
42.2398
41.7574
41.1458
40.4488
39.7365
39.0897
38.5751
38.2245
38.0261
37.933
37.8877
37.8568
37.8566
37.9417
38.1373
38.3172
38.0744
36.7484
33.9269
30.2183
27.0166
25.1978
28.3339
31.3664
36.0441
43.818
50.3851
53.1171
53.4287
53.6858
54.7016
55.9154
56.5433
56.1563
54.8163
53.0264
51.4173
50.3717
49.8873
49.7045
49.5404
49.2114
48.6744
48.0899
47.6635
47.3862
47.0662
46.5806
45.9853
45.3923
44.8619
44.3999
43.9959
43.6446
43.347
43.1055
42.9214
42.7902
42.7024
42.6447
42.6023
42.5751
42.5779
42.6084
42.6371
42.6356
42.6024
42.5584
42.5264
42.5157
42.5233
42.544
42.5744
42.6067
42.6212
42.5875
42.4741
42.2582
41.9292
41.4882
40.9479
40.3346
39.692
39.0786
38.557
38.1765
37.9555
37.8727
37.8733
37.8916
37.883
37.8531
37.8569
37.9477
38.0895
38.0611
37.4033
35.5717
32.5004
29.0805
26.4628
25.0265
27.9125
30.5154
33.6815
40.4285
47.5661
51.4247
52.0902
51.9319
52.5748
53.9036
54.9847
55.0798
54.0218
52.1966
50.3297
49.0586
48.5591
48.5495
48.6156
48.5146
48.1866
47.7107
47.2532
46.9106
46.5917
46.156
45.6027
45.0293
44.5176
44.0894
43.7301
43.4208
43.1515
42.9223
42.74
42.6097
42.5314
42.4861
42.4506
42.4391
42.4653
42.4663
42.3375
42.0515
41.6984
41.4074
41.2452
41.1934
41.2074
41.2723
41.3955
41.5572
41.6841
41.6801
41.4835
41.099
40.5848
40.0147
39.4489
38.9273
38.4772
38.1219
37.879
37.7533
37.7277
37.7634
37.8087
37.8222
37.7978
37.7748
37.8064
37.8933
37.9173
37.5973
36.4967
34.2541
31.1223
28.1066
26.0043
24.84
27.4297
29.855
31.7865
37.1765
44.3196
49.248
50.7086
50.4854
50.6675
51.7557
53.0203
53.5808
53.0006
51.4141
49.4847
47.9969
47.3057
47.2014
47.2645
47.261
47.1171
46.822
46.4591
46.1661
45.9321
45.6185
45.1673
44.6443
44.1488
43.7331
43.3959
43.1132
42.8648
42.6468
42.4682
42.3428
42.2762
42.2426
42.2241
42.2465
42.2782
42.149
41.6843
40.9157
40.1006
39.5163
39.2476
39.1869
39.2059
39.2861
39.481
39.7897
40.0934
40.2189
40.0593
39.6407
39.0923
38.5617
38.1478
37.8836
37.7555
37.7309
37.774
37.8517
37.9355
38.0029
38.043
38.0648
38.0999
38.1818
38.2979
38.3484
38.1391
37.3827
35.7338
33.0654
29.9127
27.2667
25.5419
24.571
26.8138
29.2828
30.3401
34.254
40.8255
46.522
49.0972
49.319
49.1909
49.7498
50.7816
51.5702
51.5432
50.5505
49.0089
47.6095
46.7542
46.3498
46.1154
45.9313
45.7446
45.4938
45.1946
44.9846
44.8957
44.7853
44.5252
44.1184
43.6621
43.2458
42.903
42.6256
42.3954
42.2051
42.0573
41.9642
41.9243
41.9051
41.9157
41.9752
41.9406
41.5226
40.5581
39.2367
38.0225
37.3031
37.0973
37.1312
37.165
37.1949
37.3612
37.7286
38.1783
38.4907
38.5126
38.2573
37.8717
37.5254
37.3187
37.2624
37.3108
37.4073
37.5099
37.5957
37.6553
37.6882
37.7061
37.7373
37.8154
37.9402
38.036
37.9512
37.4879
36.3961
34.4227
31.6362
28.741
26.5697
25.1781
24.339
26.103
28.7633
29.2955
31.7993
37.3302
43.3085
47.0236
48.0808
47.8934
47.7919
48.2147
48.8788
49.2968
49.1247
48.4239
47.5508
46.7682
46.0787
45.4218
44.8586
44.3962
43.9808
43.6053
43.397
43.415
43.5227
43.522
43.3247
42.9859
42.6111
42.2743
42.0039
41.8004
41.654
41.5488
41.4854
41.4487
41.4121
41.4282
41.4812
41.2702
40.4179
38.8859
37.1037
35.7167
35.128
35.205
35.4694
35.5675
35.5172
35.5545
35.8359
36.2969
36.7348
36.9826
37.0152
36.9277
36.8402
36.8213
36.8732
36.9627
37.0558
37.1328
37.1877
37.2217
37.2439
37.2772
37.354
37.4853
37.6161
37.6171
37.3312
36.5971
35.2092
33.0053
30.237
27.6953
25.9679
24.8201
24.0802
25.3312
28.2244
28.5075
29.7976
34.0112
39.7399
44.35
46.4325
46.5044
45.8743
45.544
45.761
46.3
46.7875
46.9808
46.8299
46.3583
45.6088
44.7101
43.8674
43.1386
42.5049
41.9674
41.6476
41.6441
41.8689
42.0988
42.1591
42.0279
41.7862
41.5291
41.3192
41.1716
41.0607
40.9435
40.814
40.6713
40.5294
40.4847
40.4607
40.0054
38.712
36.7252
34.7009
33.3707
33.0632
33.4906
34.0244
34.2266
34.1157
33.9858
34.0721
34.3923
34.821
35.237
35.5956
35.9032
36.1645
36.3655
36.4938
36.5594
36.5901
36.612
36.6367
36.666
36.7084
36.7875
36.9211
37.0753
37.1404
36.973
36.4578
35.4785
33.8542
31.5157
28.8871
26.7583
25.4193
24.4406
23.7902
24.4624
27.5391
27.7612
28.114
30.9722
36.0357
41.1716
44.3196
45.0349
44.2928
43.3898
43.0313
43.3224
44.0095
44.7146
45.1039
44.9995
44.4341
43.6128
42.7698
41.97
41.2209
40.5407
40.0494
39.8926
40.0698
40.3976
40.6585
40.7528
40.711
40.6214
40.5497
40.4866
40.3592
40.0999
39.7302
39.3243
38.9848
38.8326
38.7055
38.0509
36.4925
34.3329
32.3403
31.198
31.1104
31.7191
32.3809
32.6394
32.4876
32.2212
32.112
32.2439
32.5813
33.0908
33.756
34.512
35.2216
35.7407
36.0079
36.0707
36.035
35.9927
35.9861
36.0219
36.1044
36.2418
36.4121
36.5256
36.4455
36.067
35.3386
34.161
32.3588
29.9772
27.5921
25.8981
24.8746
24.008
23.455
23.4
26.5884
26.8761
26.601
28.2603
32.4141
37.6795
41.7946
43.4829
43.1452
42.0508
41.2204
41.0756
41.548
42.2775
42.8381
42.9723
42.6922
42.171
41.5596
40.8866
40.1579
39.4081
38.76
38.3948
38.4004
38.6719
38.9986
39.2299
39.3533
39.4399
39.5226
39.5154
39.2692
38.7152
37.9593
37.2133
36.6971
36.5114
36.3717
35.671
34.1093
32.092
30.3687
29.4596
29.4255
29.9346
30.4723
30.6545
30.4583
30.1439
29.9671
30.0166
30.2969
30.8525
31.7342
32.866
34.0091
34.8883
35.361
35.4765
35.4007
35.2956
35.252
35.2975
35.4294
35.6165
35.773
35.764
35.4784
34.8922
33.9982
32.665
30.7282
28.3877
26.3302
25.061
24.2732
23.4785
23.0399
22.0067
25.2831
25.7581
25.1574
25.8098
28.7858
33.6073
38.3688
41.2627
41.9054
41.1275
40.0944
39.532
39.571
39.9446
40.2821
40.3839
40.2931
40.128
39.9053
39.5936
39.118
38.4784
37.7958
37.2692
37.054
37.1381
37.3552
37.5353
37.6431
37.7422
37.8143
37.6685
37.0918
36.0858
34.9259
34.0026
33.6155
33.7461
33.9005
33.408
32.0757
30.4037
29.0724
28.3957
28.2828
28.4644
28.6433
28.6243
28.448
28.3302
28.4178
28.6748
29.0314
29.5536
30.3836
31.5322
32.785
33.8259
34.4456
34.6461
34.5883
34.4653
34.4114
34.4766
34.6342
34.7867
34.7918
34.5349
34.0046
33.2524
32.2301
30.7362
28.6988
26.5358
24.9403
24.0918
23.4584
22.7134
22.4196
20.5788
23.9068
24.6149
23.9429
23.9
25.6431
29.4395
34.1669
38.0158
39.9033
39.8874
39.0163
38.2454
37.8995
37.8301
37.767
37.6064
37.4558
37.4437
37.5303
37.6889
37.6945
37.4112
36.9118
36.3791
36.001
35.8548
35.851
35.8335
35.7519
35.6544
35.4793
34.9744
33.9349
32.4965
31.1223
30.3303
30.4062
31.1486
31.8421
31.7444
30.7423
29.4109
28.3955
27.8884
27.7019
27.5982
27.4499
27.2772
27.2544
27.5701
28.199
28.8869
29.4121
29.8098
30.2976
31.02
31.8988
32.7058
33.2444
33.4689
33.4775
33.4244
33.429
33.5199
33.6218
33.5922
33.311
32.7711
32.0626
31.2122
30.0504
28.369
26.3136
24.4927
23.4285
22.9127
22.338
21.6376
21.4994
19.4645
22.7455
23.6395
23.0357
22.6649
23.4745
26.0688
30.129
34.3107
37.2333
38.1644
37.7728
37.0606
36.5128
36.1354
35.7642
35.3353
34.9637
34.8146
34.9004
35.3251
35.7661
35.9158
35.749
35.3848
34.9896
34.6961
34.5019
34.294
34.0078
33.6574
33.1575
32.2649
30.8419
29.1405
27.7316
27.1689
27.6722
28.9096
30.0623
30.3674
29.7279
28.7073
27.9181
27.5357
27.3723
27.2029
26.9574
26.7703
26.9205
27.5986
28.6614
29.6927
30.3517
30.6277
30.7587
30.9673
31.2975
31.6496
31.9092
32.0398
32.0898
32.1393
32.2305
32.3203
32.2905
32.0238
31.5035
30.8296
30.0863
29.1688
27.8215
25.9728
24.0283
22.6373
22.0154
21.6611
21.065
20.4135
20.399
18.5116
21.6488
22.6897
22.2034
21.7532
21.9982
23.5345
26.6134
30.5543
34.1044
35.9626
36.2687
35.8489
35.2642
34.7115
34.1731
33.5939
33.0162
32.5857
32.3858
32.731
33.3289
33.7691
33.9387
33.8693
33.6476
33.3879
33.1307
32.8053
32.3483
31.7585
30.9688
29.7969
28.1734
26.3896
25.0196
24.5911
25.2712
26.6931
28.0753
28.7182
28.5065
27.89
27.3823
27.1635
27.1142
27.0506
26.8934
26.7618
26.9478
27.6686
28.7947
29.896
30.594
30.8253
30.7796
30.6655
30.5725
30.4961
30.4255
30.3851
30.4139
30.5192
30.6421
30.6659
30.4772
30.0516
29.4821
28.8782
28.1918
27.1726
25.6084
23.6778
21.9787
21.0284
20.7032
20.3651
19.7137
19.1221
19.1896
17.5475
20.5091
21.7023
21.3626
20.9781
20.9794
21.7592
23.8257
27.1165
30.8078
33.3816
34.4684
34.5344
34.0669
33.4259
32.791
32.1588
31.4815
30.815
30.2445
30.2639
30.7085
31.1805
31.5542
31.8055
31.9102
31.875
31.6889
31.2874
30.6409
29.8029
28.7938
27.5226
25.9492
24.3057
23.0735
22.7146
23.3712
24.7169
26.1027
26.9668
27.1888
27.0561
26.9144
26.9095
27.0065
27.1023
27.1015
27.0251
27.0851
27.5276
28.3499
29.251
29.891
30.1438
30.0926
29.8679
29.5498
29.1937
28.8787
28.6929
28.672
28.7549
28.8027
28.6789
28.3443
27.8894
27.4454
27.0102
26.3536
25.1719
23.4341
21.5765
20.2366
19.6756
19.4965
19.0851
18.3843
17.8641
17.9735
16.5474
19.3668
20.7434
20.5708
20.3021
20.2557
20.5784
21.7774
24.2123
27.5946
30.5313
32.3156
32.9872
32.8002
32.1635
31.4525
30.7935
30.1156
29.3712
28.5645
28.2505
28.3963
28.6899
29.0706
29.5266
29.9461
30.1825
30.0996
29.6048
28.7366
27.6749
26.5799
25.4525
24.2283
22.998
22.0758
21.8235
22.3726
23.4808
24.6742
25.5666
26.0715
26.3374
26.5294
26.7174
26.9199
27.1244
27.249
27.2156
27.1128
27.1772
27.5512
28.1222
28.6386
28.9201
28.9281
28.701
28.3041
27.839
27.4427
27.2236
27.1808
27.1874
27.0738
26.757
26.3115
25.9022
25.6012
25.2374
24.466
23.075
21.2798
19.669
18.7526
18.4976
18.3557
17.8505
17.1406
16.7089
16.837
15.5873
18.3181
19.8994
19.892
19.7123
19.6811
19.7609
20.3141
21.8835
24.6419
27.546
29.7979
31.0896
31.3477
30.8683
30.1372
29.4519
28.82
28.1475
27.3277
26.8531
26.7535
26.7962
27.008
27.443
27.9634
28.3071
28.2222
27.5954
26.5534
25.4159
24.4684
23.7612
23.1585
22.5691
22.105
22.0059
22.4027
23.1652
24.0026
24.6965
25.2164
25.6333
25.9838
26.2588
26.4832
26.7036
26.88
26.8949
26.7319
26.5636
26.5988
26.8769
27.2515
27.5288
27.5839
27.3899
27.01
26.5797
26.2531
26.1067
26.0752
25.9878
25.7019
25.2289
24.7305
24.3587
24.059
23.5355
22.4741
20.8727
19.1576
17.9122
17.407
17.3598
17.1976
16.6335
15.9782
15.6626
15.8204
14.7228
17.4
19.1772
19.307
19.1499
19.113
19.0759
19.2172
20.0616
22.0645
24.6032
27.0185
28.8371
29.668
29.5528
28.9378
28.2555
27.6646
27.1182
26.4398
25.9958
25.7993
25.6385
25.586
25.7693
26.0898
26.2654
26.0158
25.2534
24.1844
23.2107
22.6595
22.5629
22.6913
22.7899
22.7924
22.8273
23.0357
23.4092
23.8185
24.1683
24.4724
24.7776
25.0708
25.3015
25.4721
25.6389
25.8042
25.8761
25.7873
25.616
25.5351
25.6476
25.9016
26.1416
26.221
26.0834
25.7882
25.475
25.275
25.2118
25.1744
24.9994
24.6132
24.1031
23.632
23.2479
22.7667
21.8794
20.4431
18.6988
17.1755
16.3149
16.1256
16.1738
15.96
15.3863
14.8455
14.673
14.9022
13.9495
16.5771
18.513
18.7385
18.5404
18.4541
18.3674
18.3022
18.6427
19.9303
21.9081
24.1963
26.3616
27.8004
28.2308
27.9056
27.2897
26.7026
26.2282
25.7056
25.3853
25.2188
24.9517
24.6342
24.4367
24.3408
24.1421
23.6316
22.789
21.8612
21.2384
21.1925
21.6857
22.4135
23.0303
23.3681
23.486
23.5369
23.6051
23.6707
23.7013
23.7233
23.7847
23.8857
23.9854
24.0676
24.1634
24.2933
24.4136
24.4565
24.418
24.3812
24.4387
24.6032
24.7903
24.8842
24.8226
24.6414
24.4439
24.3165
24.2511
24.15
23.9151
23.5475
23.1436
22.7698
22.3246
21.5523
20.2509
18.5143
16.766
15.5071
14.9686
14.9501
14.9764
14.6785
14.1183
13.7148
13.6886
14.029
13.2334
15.7906
17.8341
18.1199
17.8485
17.6887
17.5921
17.4757
17.5424
18.2704
19.6434
21.5889
23.866
25.8099
26.8439
26.9287
26.4418
25.8157
25.3074
24.8565
24.6502
24.5736
24.2917
23.7771
23.2066
22.6562
22.0557
21.3196
20.4942
19.8073
19.5552
19.8984
20.7306
21.7361
22.5806
23.0901
23.2965
23.3384
23.3225
23.2633
23.1404
22.9718
22.8142
22.7108
22.6653
22.6652
22.7117
22.8151
22.961
23.0987
23.1799
23.2098
23.2442
23.3309
23.4558
23.5518
23.556
23.4606
23.3092
23.1482
22.9822
22.7852
22.5503
22.3161
22.1093
21.844
21.2948
20.2296
18.6297
16.7991
15.2254
14.2767
13.9726
13.9924
13.9046
13.4893
12.93
12.6376
12.7202
13.1674
12.5519
15.006
17.1083
17.4378
17.0979
16.8703
16.788
16.7143
16.6899
17.0549
17.8961
19.3796
21.5155
23.7211
25.2351
25.725
25.3974
24.7207
24.1108
23.651
23.5172
23.5443
23.3104
22.6908
21.8501
20.9575
20.0842
19.2577
18.5479
18.102
18.081
18.5383
19.3526
20.2831
21.1002
21.6922
22.0769
22.3306
22.4972
22.5571
22.4744
22.2616
21.9906
21.7503
21.5967
21.54
21.5665
21.6629
21.8113
21.9686
22.0749
22.1021
22.0823
22.0791
22.124
22.1863
22.1985
22.1087
21.9106
21.6392
21.3494
21.1046
20.9607
20.9293
20.9135
20.6877
19.9877
18.6984
16.999
15.3138
14.0729
13.4585
13.3246
13.3121
13.0765
12.5345
11.9537
11.718
11.8438
12.3348
11.9042
14.2237
16.3489
16.7261
16.348
16.0758
16.0182
16.0214
16.0157
16.193
16.6343
17.6228
19.3864
21.5218
23.2381
24.0021
23.8328
23.1565
22.4812
22.0156
21.9463
22.0792
21.9261
21.2793
20.2943
19.2247
18.2571
17.4859
16.9493
16.6763
16.6938
16.9933
17.5073
18.1383
18.809
19.4867
20.1589
20.7955
21.3238
21.6536
21.7319
21.5818
21.2977
21.0033
20.7939
20.7058
20.7267
20.8247
20.9603
21.0815
21.1319
21.085
20.9713
20.8592
20.7956
20.764
20.6932
20.5116
20.2012
19.8206
19.484
19.3101
19.3503
19.5258
19.6096
19.3055
18.4132
16.992
15.3776
14.0095
13.1795
12.8893
12.8917
12.8422
12.4888
11.8541
11.2546
11.0334
11.1427
11.5855
11.2963
13.4595
15.5879
16.0297
15.651
15.3581
15.3211
15.3915
15.4434
15.552
15.729
16.2516
17.4773
19.2195
20.8073
21.6531
21.6338
21.0742
20.4756
20.1007
20.1353
20.3768
20.3094
19.6798
18.6477
17.536
16.6075
15.9755
15.6135
15.4318
15.3574
15.3693
15.4952
15.7954
16.3323
17.1252
18.1105
19.1448
20.0414
20.6483
20.9077
20.8638
20.6317
20.3511
20.1338
20.0326
20.0462
20.1377
20.2495
20.3163
20.2848
20.1415
19.9231
19.6936
19.4935
19.3061
19.0685
18.7269
18.2954
17.8774
17.6235
17.6446
17.9163
18.2392
18.2958
17.8083
16.7167
15.2549
13.8413
12.8462
12.4015
12.3761
12.4839
12.4207
12.0111
11.3494
10.7693
10.5591
10.6294
10.956
10.7339
12.7304
14.8535
15.3789
15.0295
14.7297
14.6986
14.8034
14.9023
14.9986
15.0164
15.1418
15.7644
16.9003
18.101
18.8658
19.0053
18.7098
18.3746
18.2245
18.4155
18.7579
18.7582
18.1614
17.1419
16.0665
15.2337
14.7449
14.5114
14.3616
14.1717
13.9398
13.7807
13.8669
14.3393
15.227
16.4156
17.6875
18.7968
19.5713
19.9633
20.0318
19.8949
19.6837
19.5021
19.4066
19.4082
19.4791
19.5593
19.5763
19.4773
19.2546
18.9444
18.5985
18.2435
17.8644
17.4246
16.9196
16.4196
16.0668
16.0056
16.2795
16.751
17.1172
17.0379
16.328
15.0886
13.6765
12.509
11.8425
11.6755
11.8104
11.9703
11.8991
11.48
10.8531
10.3442
10.1738
10.2229
10.4246
10.2112
12.0395
14.1549
14.7772
14.4747
14.171
14.1282
14.2313
14.3433
14.4342
14.3572
14.1756
14.2409
14.7253
15.4344
16.0432
16.3653
16.4529
16.5281
16.7019
17.0744
17.4906
17.5278
16.9685
16.0018
15.0052
14.2737
13.8854
13.7173
13.5713
13.3215
12.9914
12.7381
12.7664
13.2216
14.1112
15.2963
16.5497
17.641
18.4274
18.88
19.0537
19.0446
18.951
18.8487
18.786
18.7849
18.8336
18.8825
18.8618
18.7163
18.4333
18.0396
17.5747
17.0602
16.4968
15.89
15.2923
14.8203
14.6226
14.793
15.2778
15.8379
16.125
15.8495
14.9557
13.6735
12.4005
11.4821
11.0525
11.0274
11.2026
11.3394
11.2295
10.8048
10.2379
9.83145
9.73204
9.7938
9.91529
9.71602
11.3795
13.4853
14.2092
13.9605
13.65
13.5806
13.6546
13.7431
13.8093
13.67
13.2822
12.927
12.8721
13.1435
13.6091
14.128
14.6375
15.1698
15.6875
16.2226
16.6717
16.7178
16.2062
15.3322
14.4487
13.8147
13.4817
13.3264
13.1758
12.9357
12.6476
12.4571
12.5297
12.9619
13.7297
14.7059
15.7099
16.5849
17.2508
17.697
17.9561
18.0852
18.1376
18.1505
18.1559
18.1812
18.2297
18.2649
18.2216
18.0395
17.6941
17.2025
16.6041
15.9376
15.2391
14.5597
13.9902
13.6544
13.6613
14.0231
14.5953
15.0889
15.1864
14.7062
13.7198
12.5215
11.4664
10.7843
10.505
10.5122
10.632
10.6736
10.4735
10.0113
9.48808
9.17684
9.1538
9.24829
9.34935
9.23641
10.7429
12.8371
13.6605
13.4668
13.1457
13.0419
13.0721
13.1114
13.1297
12.9449
12.449
11.8525
11.4596
11.4406
11.8181
12.5121
13.3876
14.3189
15.1281
15.7795
16.2257
16.2675
15.822
15.081
14.3462
13.8178
13.5199
13.3513
13.1931
12.9984
12.8148
12.7437
12.8764
13.2436
13.7983
14.4501
15.0883
15.6503
16.1266
16.5162
16.8198
17.0583
17.2484
17.3911
17.4977
17.5928
17.6852
17.7424
17.697
17.4781
17.0496
16.4278
15.6747
14.873
14.1101
13.4748
13.0602
12.9467
13.1604
13.6211
14.1262
14.4043
14.2375
13.5814
12.6048
11.5973
10.8125
10.3516
10.1706
10.1559
10.1763
10.0819
9.75029
9.21141
8.69363
8.43958
8.46671
8.58582
8.70225
8.74637
10.1049
12.181
13.0995
12.9626
12.6285
12.4844
12.4635
12.4398
12.3948
12.1762
11.6572
10.9916
10.4708
10.3218
10.6558
11.4513
12.5544
13.7483
14.7541
15.4772
15.9123
15.9636
15.6115
15.036
14.4769
14.0686
13.8082
13.6213
13.447
13.2835
13.1786
13.187
13.3325
13.5947
13.9187
14.2545
14.552
14.8256
15.1141
15.4134
15.6993
15.978
16.2519
16.5003
16.7148
16.9074
17.0786
17.1888
17.16
16.9081
16.3886
15.6299
14.7337
13.8423
13.0972
12.6061
12.4285
12.5623
12.9302
13.3715
13.6716
13.6355
13.1843
12.4066
11.5234
10.7669
10.2661
10.0112
9.91608
9.88485
9.81903
9.59576
9.1308
8.50498
7.96914
7.73323
7.77013
7.88546
8.0153
8.32298
9.5615
11.6225
12.6195
12.5308
12.1868
12.0115
11.9513
11.875
11.7744
11.5376
11.0469
10.4181
9.90459
9.72945
10.0383
10.86
12.0621
13.3946
14.5169
15.2835
15.7097
15.7747
15.5102
15.0876
14.6942
14.406
14.1935
14.0001
13.8077
13.6474
13.5674
13.5914
13.7025
13.8542
13.9942
14.1018
14.1595
14.2288
14.3767
14.5848
14.8085
15.06
15.3565
15.676
15.9949
16.3061
16.5903
16.7868
16.7961
16.5172
15.9021
15.0013
13.9662
13.004
12.3065
11.9886
12.0598
12.4225
12.8955
13.2548
13.3019
12.9419
12.2375
11.3865
10.6269
10.1135
9.8606
9.77783
9.76165
9.73542
9.61787
9.2976
8.72042
8.01252
7.44314
7.19428
7.20748
7.29316
7.4128
7.60571
8.682
10.6903
11.8044
11.8067
11.4487
11.2092
11.0739
10.9114
10.7233
10.4623
10.0569
9.59149
9.23576
9.12237
9.35616
10.0111
11.0528
12.3067
13.4485
14.2835
14.7976
14.9895
14.9033
14.6876
14.4873
14.3379
14.1888
13.9888
13.7401
13.4931
13.3056
13.2051
13.1799
13.194
13.2144
13.2283
13.2283
13.2649
13.3535
13.4391
13.5039
13.6023
13.7848
14.056
14.3872
14.7364
15.053
15.2671
15.2845
15.0108
14.4059
13.536
12.5784
11.7652
11.2934
11.2448
11.5528
12.0214
12.3928
12.4383
12.0508
11.2924
10.3723
9.54773
9.00475
8.78327
8.7999
8.92999
9.07948
9.1741
9.11361
8.78522
8.18223
7.4859
6.96001
6.72782
6.70075
6.72467
6.7879
)
;
    }
    outlet
    {
        type            calculated;
        value           nonuniform List<scalar> 
3200
(
52.8905
54.2685
51.5403
49.414
47.8699
47.4872
49.3095
54.9934
58.5371
57.1543
51.5396
44.2309
37.1791
40.7501
41.5725
34.2799
35.6528
39.0423
41.7695
43.7271
44.66
42.6429
36.8778
35.6842
37.4394
39.4043
40.4371
40.9632
41.2681
41.4717
41.6155
41.72
41.723
41.2092
38.6977
39.6819
42.0763
42.9873
43.2966
43.3614
43.2028
42.9015
42.4765
41.9727
41.5323
41.3412
41.4041
41.5957
41.7693
41.7797
41.5372
41.0433
40.2859
39.1216
36.6372
32.6219
30.9555
30.5574
30.2122
30.0219
30.0176
30.0827
30.1327
30.1441
30.1597
30.2186
30.3287
30.4441
30.5213
30.5176
30.3448
30.0496
29.7267
29.468
29.3639
29.4831
29.8734
30.553
31.5618
31.4504
63.2806
76.2566
75.6572
73.2381
71.0558
69.9671
71.0307
73.4599
73.6765
71.9751
67.5676
57.7669
48.1272
55.404
55.0375
46.7162
46.7234
52.2846
56.236
58.6122
59.3793
57.9988
54.342
52.0494
51.3413
50.9024
50.3301
49.8057
49.4327
49.2371
49.2199
49.3388
49.3988
48.8031
46.1084
47.0989
49.8453
50.6601
50.6818
50.4651
50.2097
49.9536
49.6758
49.345
48.966
48.5848
48.2939
48.1133
47.9904
47.8416
47.6313
47.4013
47.2376
47.1665
47.0255
46.8837
46.6575
46.6031
46.4304
46.3262
46.3516
46.4126
46.4419
46.4346
46.4408
46.4996
46.6108
46.7208
46.7888
46.7722
46.5948
46.3121
46.0366
45.8484
45.788
45.7961
45.8168
45.9073
45.488
39.9947
61.4967
80.691
83.6577
82.4173
80.6945
79.3906
79.1244
78.732
77.4709
75.2726
70.6745
59.6199
51.9513
61.8577
60.887
53.0799
50.9794
56.5539
61.2804
63.519
63.4803
62.1835
59.8182
57.4534
55.6579
54.2523
53.1099
52.2399
51.6285
51.2386
51.0408
50.9993
50.9262
50.2628
48.0277
48.7812
51.273
52.0726
52.0854
51.869
51.6244
51.3928
51.1542
50.869
50.5181
50.1327
49.7851
49.5357
49.3658
49.2231
49.0811
48.9777
49.0206
49.3513
50.139
51.5629
52.5789
52.8829
52.9199
52.9311
52.969
52.9936
52.9794
52.9398
52.9197
52.952
53.0373
53.1343
53.2038
53.2041
53.0833
52.8641
52.5933
52.2626
51.8172
51.2042
50.635
50.3983
48.904
41.1087
57.3771
78.3741
84.3924
84.6038
83.7769
82.7841
81.7461
80.2848
78.424
75.9245
70.6112
58.554
54.7461
65.7997
64.7972
58.1669
54.3519
58.9485
63.5692
65.0585
64.5447
63.3314
61.5505
59.431
57.4393
55.7864
54.4758
53.4632
52.6833
52.0886
51.6867
51.4896
51.2892
50.5364
48.7238
49.2365
51.4252
52.2766
52.3732
52.216
52.0034
51.7902
51.5683
51.3072
50.9901
50.6428
50.3303
50.1024
49.9489
49.82
49.6925
49.6222
49.7538
50.2747
51.4005
53.1926
54.6378
55.2483
55.4555
55.5616
55.6251
55.6369
55.5989
55.5402
55.5076
55.5373
55.6343
55.7631
55.8686
55.8803
55.7203
55.3482
54.7499
53.9186
52.9173
51.9955
51.6211
51.5262
48.7847
40.1256
53.4179
74.0279
82.4135
83.7872
83.586
82.9822
81.9365
80.4072
78.5336
75.9972
69.8149
57.9124
57.4905
68.1751
67.4705
62.2668
57.7507
61.0144
64.591
65.2136
64.5564
63.5628
62.1366
60.2758
58.347
56.6291
55.1936
54.0228
53.0735
52.3354
51.8511
51.6088
51.3159
50.4895
48.9701
49.2435
51.0995
51.981
52.1764
52.1107
51.9712
51.8149
51.6406
51.4279
51.1675
50.8783
50.6069
50.3914
50.2229
50.0646
49.9176
49.8725
50.0935
50.7385
51.9659
53.7296
55.199
55.9522
56.2659
56.4359
56.534
56.5639
56.5392
56.498
56.4904
56.5514
56.6757
56.8054
56.8446
56.6804
56.2183
55.4295
54.3681
53.1749
52.1282
51.6473
51.8805
51.4691
47.1811
38.6989
50.1016
69.244
79.4736
81.8524
81.8879
81.4714
80.6449
79.4458
77.9394
75.6226
69.7464
59.2319
60.518
69.3936
69.0378
65.1727
60.9161
62.8989
65.0298
64.8975
64.1778
63.4264
62.2928
60.6563
58.8345
57.0919
55.5384
54.221
53.1605
52.3846
51.9179
51.6594
51.247
50.3436
49
49.0422
50.5454
51.4156
51.7038
51.7526
51.7322
51.6864
51.6062
51.4718
51.2744
51.022
50.7449
50.4823
50.2504
50.0457
49.9004
49.9205
50.2428
50.9536
52.159
53.785
55.1671
55.9606
56.3294
56.5399
56.6781
56.7536
56.78
56.788
56.8115
56.862
56.9058
56.8594
56.6145
56.0778