/*--------------------------------*- C++ -*----------------------------------*\
| =========                 |                                                 |
| \\      /  F ield         | OpenFOAM: The Open Source CFD Toolbox           |
|  \\    /   O peration     | Version:  v2012                                 |
|   \\  /    A nd           | Website:  www.openfoam.com                      |
|    \\/     M anipulation  |                                                 |
\*---------------------------------------------------------------------------*/
FoamFile
{
    version     2.0;
    format      ascii;
    class       volScalarField;
    location    "500/air";
    object      rho;
}
// * * * * * * * * * * * * * * * * * * * * * * * * * * * * * * * * * * * * * //

dimensions      [1 -3 0 0 0 0 0];


internalField   nonuniform List<scalar> 
287104
(
0.999041
0.998146
0.997345
0.996614
0.99594
0.995313
0.994727
0.994176
0.993656
0.993163
0.992694
0.992246
0.991817
0.991404
0.991007
0.990624
0.990252
0.989892
0.989542
0.989201
0.988868
0.988543
0.988226
0.987915
0.987609
0.98731
0.987016
0.986727
0.986442
0.986162
0.985886
0.985614
0.985346
0.985082
0.984821
0.984563
0.984308
0.984057
0.983809
0.983564
0.983321
0.983082
0.982845
0.982611
0.98238
0.982151
0.981925
0.981701
0.981481
0.981262
0.981046
0.980833
0.980622
0.980414
0.980208
0.980005
0.979804
0.979605
0.979409
0.979215
0.979024
0.978835
0.978648
0.978463
0.978281
0.9781
0.977922
0.977746
0.977572
0.9774
0.97723
0.977062
0.976896
0.976731
0.976568
0.976407
0.976247
0.976088
0.975931
0.975776
0.975621
0.975467
0.975314
0.975162
0.97501
0.974858
0.974704
0.974547
0.974378
0.974182
0.999053
0.998171
0.997381
0.99666
0.995996
0.995379
0.994802
0.994259
0.993748
0.993263
0.992802
0.992362
0.99194
0.991535
0.991146
0.99077
0.990406
0.990053
0.98971
0.989376
0.989051
0.988733
0.988422
0.988118
0.98782
0.987528
0.987241
0.986959
0.986681
0.986408
0.98614
0.985875
0.985614
0.985356
0.985102
0.984852
0.984605
0.98436
0.984119
0.983881
0.983645
0.983413
0.983183
0.982956
0.982732
0.98251
0.98229
0.982074
0.98186
0.981648
0.981439
0.981232
0.981028
0.980826
0.980626
0.980429
0.980234
0.980042
0.979852
0.979664
0.979478
0.979295
0.979114
0.978935
0.978758
0.978583
0.97841
0.97824
0.978071
0.977904
0.977739
0.977576
0.977415
0.977255
0.977097
0.97694
0.976785
0.976632
0.976479
0.976328
0.976178
0.976028
0.97588
0.975732
0.975584
0.975436
0.975287
0.975134
0.97497
0.974776
0.999066
0.998196
0.997416
0.996706
0.99605
0.995441
0.994872
0.994337
0.993833
0.993354
0.9929
0.992466
0.99205
0.991652
0.991268
0.990897
0.990538
0.990191
0.989853
0.989525
0.989204
0.988892
0.988586
0.988287
0.987994
0.987707
0.987425
0.987148
0.986876
0.986608
0.986344
0.986085
0.985829
0.985577
0.985328
0.985083
0.984841
0.984602
0.984366
0.984133
0.983903
0.983676
0.983452
0.983231
0.983012
0.982796
0.982582
0.982371
0.982163
0.981957
0.981753
0.981552
0.981354
0.981158
0.980965
0.980774
0.980585
0.980399
0.980215
0.980033
0.979854
0.979677
0.979502
0.979329
0.979159
0.978991
0.978825
0.978661
0.978499
0.978339
0.97818
0.978024
0.977869
0.977716
0.977565
0.977415
0.977267
0.97712
0.976975
0.97683
0.976687
0.976544
0.976403
0.976262
0.976121
0.975979
0.975837
0.975691
0.975533
0.975345
0.999079
0.99822
0.997451
0.99675
0.996104
0.995503
0.994941
0.994414
0.993916
0.993444
0.992995
0.992567
0.992157
0.991764
0.991385
0.991019
0.990666
0.990323
0.98999
0.989666
0.98935
0.989041
0.98874
0.988445
0.988156
0.987873
0.987595
0.987322
0.987054
0.98679
0.98653
0.986275
0.986023
0.985774
0.985529
0.985288
0.98505
0.984815
0.984583
0.984354
0.984127
0.983904
0.983684
0.983466
0.983251
0.983038
0.982828
0.982621
0.982416
0.982214
0.982014
0.981817
0.981622
0.981429
0.981239
0.981052
0.980867
0.980684
0.980503
0.980325
0.980149
0.979975
0.979804
0.979634
0.979467
0.979302
0.979138
0.978977
0.978818
0.97866
0.978504
0.97835
0.978197
0.978046
0.977897
0.977748
0.977601
0.977455
0.97731
0.977166
0.977023
0.97688
0.976737
0.976595
0.976452
0.976309
0.976164
0.976015
0.975853
0.975663
0.999091
0.998245
0.997486
0.996795
0.996157
0.995564
0.99501
0.994489
0.993998
0.993533
0.99309
0.992667
0.992263
0.991875
0.991501
0.99114
0.990791
0.990453
0.990124
0.989804
0.989493
0.989188
0.988891
0.9886
0.988316
0.988036
0.987762
0.987493
0.987229
0.986969
0.986713
0.986462
0.986214
0.985969
0.985728
0.985491
0.985257
0.985026
0.984798
0.984573
0.984352
0.984133
0.983917
0.983703
0.983492
0.983284
0.983079
0.982876
0.982676
0.982479
0.982284
0.982091
0.981901
0.981714
0.981529
0.981346
0.981166
0.980988
0.980813
0.98064
0.980469
0.9803
0.980133
0.979969
0.979807
0.979647
0.979488
0.979332
0.979177
0.979025
0.978873
0.978724
0.978576
0.97843
0.978284
0.978141
0.977998
0.977856
0.977716
0.977576
0.977437
0.977299
0.977161
0.977024
0.976887
0.976749
0.976611
0.97647
0.976317
0.976138
0.999104
0.998269
0.99752
0.996838
0.996209
0.995624
0.995077
0.994564
0.994079
0.99362
0.993183
0.992766
0.992367
0.991984
0.991615
0.991259
0.990914
0.99058
0.990256
0.98994
0.989633
0.989332
0.989039
0.988752
0.988472
0.988196
0.987926
0.987661
0.987401
0.987145
0.986893
0.986645
0.986401
0.986161
0.985925
0.985692
0.985463
0.985236
0.985013
0.984794
0.984577
0.984363
0.984153
0.983945
0.983741
0.983539
0.983341
0.983145
0.982952
0.982762
0.982575
0.982391
0.982209
0.982031
0.981855
0.981681
0.981511
0.981343
0.981178
0.981015
0.980856
0.980698
0.980544
0.980392
0.980242
0.980095
0.979951
0.979808
0.979669
0.979531
0.979396
0.979263
0.979133
0.979005
0.978879
0.978756
0.978635
0.978516
0.9784
0.978286
0.978174
0.978065
0.97796
0.977857
0.977758
0.977662
0.977568
0.977475
0.977372
0.977246
0.999116
0.998292
0.997554
0.996881
0.996261
0.995684
0.995144
0.994637
0.994159
0.993706
0.993274
0.992863
0.992469
0.99209
0.991726
0.991374
0.991034
0.990704
0.990383
0.990071
0.989768
0.989471
0.989182
0.988899
0.988622
0.98835
0.988084
0.987823
0.987567
0.987316
0.987069
0.986827
0.986589
0.986355
0.986125
0.985899
0.985677
0.985459
0.985245
0.985035
0.984828
0.984625
0.984426
0.984233
0.984045
0.983862
0.983683
0.98351
0.98334
0.983175
0.983013
0.982856
0.982702
0.982552
0.982405
0.982262
0.982123
0.981986
0.981853
0.981724
0.981598
0.981475
0.981355
0.981239
0.981126
0.981017
0.980912
0.98081
0.980712
0.980618
0.980529
0.980443
0.980362
0.980285
0.980214
0.980147
0.980085
0.980027
0.979976
0.979929
0.979887
0.979852
0.979821
0.979797
0.979776
0.979758
0.979738
0.979706
0.979635
0.97955
0.999128
0.998316
0.997588
0.996924
0.996312
0.995742
0.99521
0.99471
0.994238
0.99379
0.993365
0.992959
0.99257
0.992196
0.991836
0.991488
0.991151
0.990825
0.990508
0.990199
0.989898
0.989605
0.989319
0.989039
0.988766
0.988498
0.988237
0.987981
0.987731
0.987486
0.987247
0.987013
0.986787
0.986568
0.986357
0.986153
0.985956
0.985766
0.985582
0.985405
0.985235
0.985071
0.984913
0.984761
0.984615
0.984475
0.984341
0.984213
0.98409
0.983973
0.983862
0.983758
0.98366
0.983569
0.983484
0.983406
0.983334
0.983267
0.983207
0.983153
0.983105
0.983063
0.983027
0.982996
0.982972
0.982953
0.98294
0.982932
0.98293
0.982934
0.982944
0.982959
0.982979
0.983005
0.983035
0.983071
0.983113
0.983159
0.983209
0.983265
0.983324
0.983388
0.983453
0.98352
0.983587
0.983651
0.983711
0.983758
0.983762
0.983701
0.99914
0.998339
0.997621
0.996966
0.996362
0.9958
0.995275
0.994781
0.994315
0.993873
0.993453
0.993051
0.992664
0.992291
0.991929
0.991578
0.991237
0.990905
0.990581
0.990266
0.989959
0.98966
0.989369
0.989086
0.988814
0.988555
0.988307
0.98807
0.987844
0.987629
0.987423
0.987227
0.987041
0.986864
0.986696
0.986538
0.98639
0.986251
0.98612
0.985997
0.985882
0.985774
0.985675
0.985584
0.985501
0.985427
0.985361
0.985303
0.985253
0.985211
0.985176
0.985146
0.985122
0.985103
0.98509
0.985083
0.985081
0.985083
0.985091
0.985103
0.985119
0.98514
0.985165
0.985194
0.985227
0.985263
0.985303
0.985346
0.985392
0.985441
0.985493
0.985547
0.985603
0.985662
0.985722
0.985784
0.985847
0.985911
0.985977
0.986045
0.986113
0.986182
0.986248
0.986314
0.986376
0.986436
0.98649
0.986535
0.986554
0.98653
0.999152
0.998362
0.997654
0.997008
0.996412
0.995857
0.995339
0.994852
0.994392
0.993956
0.993529
0.9931
0.992669
0.992236
0.991805
0.991378
0.99096
0.990551
0.990153
0.989768
0.989397
0.98904
0.988697
0.988369
0.988061
0.987771
0.987499
0.987242
0.986999
0.986769
0.986551
0.986345
0.986146
0.985952
0.985762
0.985577
0.985397
0.985223
0.985056
0.984898
0.984749
0.98461
0.98448
0.984362
0.984256
0.984159
0.984072
0.983994
0.983925
0.983865
0.983812
0.983769
0.983734
0.983707
0.98369
0.983681
0.98368
0.983688
0.983705
0.983729
0.98376
0.9838
0.983846
0.983899
0.983958
0.984024
0.984096
0.984173
0.984255
0.984342
0.984433
0.984528
0.984627
0.984729
0.984834
0.98494
0.985049
0.985159
0.985272
0.985391
0.985531
0.985678
0.985827
0.985973
0.986112
0.98624
0.986355
0.98645
0.986508
0.986514
0.999164
0.998384
0.997686
0.997049
0.996461
0.995914
0.995402
0.994921
0.994466
0.994024
0.9932
0.992318
0.991428
0.990551
0.989697
0.988874
0.988089
0.987346
0.986651
0.986008
0.985418
0.984883
0.984405
0.98398
0.983607
0.983282
0.982999
0.982751
0.982533
0.982338
0.98216
0.981993
0.981837
0.981691
0.98155
0.981411
0.981272
0.981135
0.980997
0.980857
0.980715
0.98057
0.980424
0.980278
0.980134
0.979992
0.979852
0.979715
0.979583
0.979456
0.979335
0.979221
0.979114
0.979015
0.978925
0.978844
0.978772
0.978711
0.978662
0.978623
0.978597
0.978582
0.97858
0.978591
0.978614
0.97865
0.978698
0.978758
0.97883
0.978914
0.979008
0.979113
0.979227
0.979351
0.979483
0.979623
0.97977
0.979925
0.980091
0.980411
0.980937
0.981423
0.981872
0.982289
0.982675
0.983027
0.983342
0.98361
0.983806
0.983897
0.999175
0.998407
0.997718
0.997089
0.996509
0.99597
0.995465
0.99499
0.994541
0.994105
0.993298
0.992435
0.991562
0.990697
0.989851
0.989033
0.988248
0.987503
0.986802
0.986151
0.985553
0.985009
0.984523
0.984092
0.983714
0.983387
0.983105
0.982862
0.982651
0.982466
0.9823
0.982147
0.982002
0.981861
0.981721
0.981577
0.981429
0.981278
0.981124
0.980964
0.980797
0.980623
0.980442
0.980259
0.980072
0.979881
0.979685
0.979486
0.979284
0.979078
0.978868
0.978655
0.978439
0.97822
0.977998
0.977774
0.977549
0.977322
0.977097
0.976874
0.976654
0.976439
0.97623
0.97603
0.97584
0.975664
0.975502
0.975359
0.975235
0.975133
0.975055
0.975002
0.974975
0.974976
0.975005
0.97506
0.975142
0.97525
0.975382
0.975563
0.975905
0.976343
0.976829
0.977331
0.97783
0.978313
0.978768
0.979186
0.979547
0.979833
0.999187
0.998429
0.997749
0.997129
0.996557
0.996025
0.995527
0.995058
0.994615
0.994184
0.99339
0.992541
0.991681
0.990829
0.989996
0.989189
0.988415
0.987681
0.98699
0.986349
0.98576
0.985228
0.984753
0.984335
0.983972
0.983662
0.983398
0.983175
0.982987
0.982825
0.982684
0.982556
0.982438
0.982324
0.98221
0.982094
0.981973
0.981851
0.981727
0.981599
0.981466
0.981328
0.981185
0.981042
0.980901
0.980757
0.980613
0.980469
0.980325
0.980181
0.980037
0.979893
0.97975
0.979606
0.979463
0.979318
0.979173
0.979027
0.978877
0.978725
0.97857
0.978412
0.978249
0.978083
0.977912
0.977736
0.977555
0.97737
0.97718
0.976985
0.976786
0.976584
0.976379
0.976172
0.975965
0.975757
0.975552
0.975351
0.975156
0.974987
0.974932
0.974965
0.975055
0.975183
0.975333
0.975497
0.975667
0.975834
0.975977
0.976081
0.999198
0.99845
0.99778
0.997169
0.996604
0.996079
0.995588
0.995126
0.994688
0.994263
0.993482
0.992645
0.991799
0.99096
0.99014
0.989345
0.988583
0.987859
0.987179
0.986547
0.985967
0.985443
0.984975
0.984565
0.984209
0.983906
0.983648
0.983432
0.983249
0.983093
0.982958
0.982837
0.982726
0.982618
0.982511
0.982401
0.982285
0.98217
0.982054
0.981933
0.981808
0.981678
0.981542
0.98141
0.981279
0.981148
0.981019
0.98089
0.980764
0.980641
0.98052
0.980403
0.980294
0.980194
0.980099
0.980009
0.979924
0.979843
0.979765
0.979692
0.979623
0.979558
0.979498
0.979442
0.97939
0.979342
0.979299
0.979259
0.979223
0.979191
0.979161
0.979135
0.97911
0.979086
0.979063
0.979041
0.979019
0.979002
0.979002
0.979126
0.979396
0.979614
0.979782
0.979904
0.979981
0.98001
0.979988
0.979905
0.979787
0.979639
0.999209
0.998472
0.997811
0.997208
0.996651
0.996133
0.995649
0.995192
0.994761
0.994341
0.993572
0.992749
0.991916
0.99109
0.990282
0.989499
0.988748
0.988035
0.987365
0.986742
0.986171
0.985655
0.985195
0.984791
0.984442
0.984144
0.983891
0.983678
0.983499
0.983346
0.983213
0.983095
0.982985
0.982879
0.982773
0.982663
0.982547
0.98243
0.982313
0.982192
0.982065
0.981933
0.981794
0.981658
0.981526
0.981393
0.98126
0.981129
0.981
0.980873
0.980749
0.980629
0.980512
0.980398
0.980288
0.980181
0.980077
0.979975
0.979878
0.979786
0.9797
0.979617
0.979538
0.979462
0.979388
0.979318
0.979251
0.979189
0.979132
0.979079
0.979032
0.978991
0.978956
0.978928
0.978907
0.978895
0.978892
0.978902
0.97894
0.97911
0.979429
0.979714
0.97997
0.980201
0.980411
0.980598
0.980757
0.980877
0.98091
0.980786
0.99922
0.998493
0.997841
0.997247
0.996697
0.996187
0.995709
0.995258
0.994833
0.994419
0.993662
0.992852
0.992031
0.991218
0.990423
0.989652
0.988912
0.98821
0.98755
0.986937
0.986375
0.985867
0.985415
0.985018
0.984674
0.984381
0.984132
0.983923
0.983745
0.983593
0.98346
0.983341
0.98323
0.983124
0.983016
0.982902
0.982782
0.982661
0.982539
0.982412
0.98228
0.98214
0.981994
0.98185
0.98171
0.981569
0.981429
0.981289
0.98115
0.981013
0.98088
0.980749
0.980622
0.980497
0.980374
0.980254
0.980134
0.980016
0.979899
0.979782
0.979665
0.979548
0.979431
0.979312
0.979193
0.979071
0.978949
0.978824
0.978696
0.978566
0.978434
0.978298
0.978159
0.978016
0.977869
0.977717
0.977561
0.977402
0.977238
0.977083
0.977003
0.976976
0.976975
0.976986
0.976998
0.977007
0.977005
0.97699
0.976942
0.976841
0.999231
0.998514
0.997871
0.997285
0.996743
0.996239
0.995768
0.995324
0.994904
0.994495
0.993751
0.992954
0.992146
0.991346
0.990562
0.989804
0.989076
0.988384
0.987735
0.987132
0.986579
0.986079
0.985635
0.985244
0.984907
0.984619
0.984374
0.984166
0.983989
0.983835
0.9837
0.983578
0.983464
0.983353
0.98324
0.98312
0.982993
0.982864
0.982734
0.982599
0.982458
0.982309
0.982152
0.981998
0.981848
0.981697
0.981545
0.981394
0.981244
0.981097
0.980952
0.980811
0.980674
0.980538
0.980404
0.980271
0.980138
0.980005
0.979872
0.979737
0.979602
0.979464
0.979325
0.979183
0.979039
0.978892
0.978743
0.978591
0.978435
0.978278
0.978118
0.977956
0.977793
0.97763
0.977466
0.977304
0.977145
0.976989
0.976838
0.976707
0.976671
0.976718
0.976823
0.976967
0.977137
0.977322
0.977513
0.977701
0.977867
0.977995
0.999242
0.998535
0.997901
0.997322
0.996788
0.996291
0.995826
0.995388
0.994974
0.994571
0.993839
0.993054
0.992259
0.991471
0.9907
0.989953
0.989236
0.988556
0.987917
0.987325
0.986782
0.986292
0.985857
0.985476
0.985147
0.984865
0.984627
0.984423
0.984248
0.984094
0.983957
0.983832
0.983714
0.9836
0.983484
0.983362
0.983231
0.983098
0.982966
0.982827
0.982682
0.982528
0.982365
0.982206
0.98205
0.981894
0.981737
0.981582
0.981429
0.981281
0.981139
0.981003
0.980872
0.980745
0.980621
0.9805
0.98038
0.980263
0.980146
0.980031
0.979917
0.979803
0.97969
0.979578
0.979468
0.979359
0.979252
0.979148
0.979047
0.97895
0.978858
0.978773
0.978694
0.978624
0.978562
0.978511
0.978471
0.978444
0.978436
0.978473
0.978641
0.978895
0.979194
0.979513
0.979838
0.980156
0.98046
0.980741
0.98098
0.981156
0.999252
0.998555
0.99793
0.99736
0.996833
0.996343
0.995884
0.995452
0.995044
0.994647
0.993926
0.993153
0.99237
0.991594
0.990835
0.9901
0.989397
0.988732
0.988109
0.987535
0.987014
0.986548
0.986138
0.985784
0.985482
0.985227
0.985013
0.984831
0.984674
0.984535
0.98441
0.984294
0.984185
0.984079
0.983972
0.983858
0.983735
0.983609
0.983481
0.983344
0.983198
0.98304
0.982869
0.982698
0.982531
0.982361
0.982192
0.982025
0.981866
0.981716
0.981578
0.981452
0.981336
0.98123
0.981132
0.981042
0.980959
0.980883
0.980814
0.980751
0.980694
0.980641
0.980593
0.98055
0.98051
0.980475
0.980445
0.980419
0.9804
0.980386
0.980379
0.980379
0.980386
0.980401
0.980425
0.980457
0.980499
0.98056
0.980675
0.980959
0.981403
0.981814
0.982195
0.98255
0.982881
0.983186
0.983464
0.983705
0.983876
0.983935
0.999262
0.998575
0.997959
0.997396
0.996877
0.996394
0.995941
0.995515
0.995113
0.994721
0.994006
0.993239
0.992465
0.991704
0.99097
0.990274
0.989626
0.989031
0.988497
0.988024
0.987613
0.987262
0.986965
0.986716
0.986508
0.986334
0.986184
0.986053
0.985933
0.98582
0.98571
0.985604
0.9855
0.985396
0.985289
0.985175
0.98505
0.984919
0.984783
0.984633
0.984468
0.984285
0.984083
0.983875
0.983663
0.983444
0.983221
0.983001
0.98279
0.982593
0.982415
0.982259
0.982124
0.982011
0.98192
0.981851
0.98182
0.981816
0.981832
0.981861
0.981899
0.981942
0.981989
0.982037
0.982088
0.98214
0.982194
0.98225
0.982308
0.98237
0.982436
0.982505
0.982578
0.982655
0.982737
0.982825
0.98292
0.983026
0.98316
0.98343
0.983836
0.98419
0.984503
0.984788
0.985046
0.985282
0.985493
0.985675
0.985805
0.985855
0.999273
0.998595
0.997987
0.997432
0.99692
0.996444
0.995998
0.995578
0.995182
0.994806
0.994447
0.9941
0.993764
0.993437
0.99312
0.99281
0.99251
0.992218
0.991934
0.991659
0.991393
0.991135
0.990885
0.990643
0.990409
0.990183
0.989963
0.98975
0.989542
0.989339
0.98914
0.988946
0.988756
0.988572
0.988391
0.988213
0.988035
0.987861
0.987689
0.987519
0.987349
0.987178
0.987005
0.986834
0.986666
0.986502
0.986346
0.986198
0.986061
0.985936
0.985824
0.985726
0.98564
0.985566
0.985504
0.985454
0.985414
0.985385
0.985366
0.985355
0.985352
0.985357
0.985367
0.985384
0.985406
0.985432
0.985463
0.985498
0.985537
0.985579
0.985624
0.985672
0.985723
0.985776
0.985832
0.98589
0.985951
0.986015
0.986083
0.986157
0.986245
0.986339
0.986435
0.986532
0.986627
0.986719
0.986804
0.986877
0.986919
0.986915
0.999283
0.998615
0.998015
0.997468
0.996963
0.996493
0.996053
0.99564
0.995249
0.994878
0.994525
0.994188
0.993864
0.993553
0.993253
0.992963
0.992682
0.99241
0.992146
0.99189
0.991641
0.9914
0.991164
0.990935
0.990712
0.990494
0.990281
0.990073
0.989869
0.989668
0.989469
0.989273
0.989081
0.988892
0.988707
0.988523
0.98834
0.988161
0.987987
0.987814
0.987645
0.987477
0.987311
0.98715
0.986996
0.986847
0.986704
0.986568
0.986442
0.986326
0.98622
0.986125
0.986039
0.985962
0.985894
0.985834
0.985782
0.985739
0.985702
0.985673
0.98565
0.985634
0.985623
0.985618
0.985617
0.985622
0.985631
0.985644
0.985661
0.985682
0.985706
0.985734
0.985765
0.985799
0.985835
0.985875
0.985918
0.985963
0.986011
0.986064
0.986119
0.986174
0.986228
0.98628
0.986328
0.986373
0.98641
0.986437
0.986433
0.986382
0.999293
0.998634
0.998043
0.997504
0.997006
0.996543
0.996109
0.995701
0.995316
0.994951
0.994603
0.994271
0.993953
0.993647
0.993352
0.993068
0.992793
0.992526
0.992266
0.992014
0.991769
0.991529
0.991295
0.991067
0.990843
0.990624
0.990409
0.990198
0.989991
0.989786
0.989583
0.989382
0.989184
0.98899
0.988799
0.98861
0.988422
0.988237
0.988056
0.987876
0.987698
0.98752
0.987341
0.987164
0.986989
0.986813
0.986638
0.986465
0.986296
0.98613
0.98597
0.985815
0.985666
0.985526
0.985395
0.985273
0.985159
0.985052
0.984953
0.98486
0.984774
0.984695
0.98462
0.984552
0.984488
0.98443
0.984376
0.984326
0.984281
0.98424
0.984203
0.98417
0.984141
0.984115
0.984093
0.984074
0.984058
0.984045
0.984035
0.984027
0.984022
0.984018
0.984017
0.984017
0.984017
0.984017
0.984012
0.983997
0.983953
0.983898
0.999303
0.998654
0.998071
0.99754
0.997049
0.996592
0.996164
0.995762
0.995383
0.995023
0.99468
0.994352
0.994039
0.993737
0.993447
0.993166
0.992895
0.992632
0.992376
0.992127
0.991885
0.991648
0.991417
0.991191
0.99097
0.990753
0.99054
0.990331
0.990125
0.989921
0.98972
0.98952
0.989322
0.989127
0.988936
0.988747
0.988559
0.988375
0.988196
0.988021
0.987851
0.987685
0.987519
0.987355
0.987194
0.987032
0.986869
0.986708
0.986549
0.986393
0.986242
0.986096
0.985953
0.985816
0.985685
0.98556
0.985442
0.98533
0.985226
0.985129
0.98504
0.984957
0.984882
0.984814
0.984752
0.984697
0.984647
0.984603
0.984563
0.984527
0.984495
0.984465
0.984438
0.984413
0.984389
0.984366
0.984343
0.98432
0.984297
0.984273
0.984248
0.984221
0.984192
0.984162
0.984128
0.984092
0.984052
0.984007
0.983952
0.983877
0.999313
0.998673
0.998099
0.997575
0.997091
0.996641
0.99622
0.995823
0.995449
0.995094
0.994756
0.994434
0.994124
0.993827
0.993541
0.993265
0.992998
0.992738
0.992486
0.992241
0.992002
0.991769
0.991541
0.991318
0.991099
0.990884
0.990673
0.990465
0.990261
0.990058
0.989858
0.989659
0.989462
0.989268
0.989076
0.988888
0.988701
0.98852
0.988353
0.988203
0.988074
0.987961
0.987856
0.987758
0.987662
0.987567
0.98747
0.987375
0.987281
0.987189
0.987103
0.987024
0.986953
0.986891
0.986838
0.986794
0.986758
0.98673
0.986708
0.986692
0.98668
0.986671
0.986664
0.986659
0.986653
0.986647
0.98664
0.98663
0.986618
0.986603
0.986586
0.986566
0.986542
0.986515
0.986485
0.986452
0.986416
0.986377
0.986335
0.986289
0.986241
0.986188
0.986132
0.986072
0.986008
0.985938
0.985864
0.985783
0.985691
0.985579
0.999323
0.998692
0.998127
0.99761
0.997133
0.996689
0.996274
0.995884
0.995515
0.995165
0.994832
0.994514
0.994209
0.993916
0.993634
0.993361
0.993097
0.992842
0.992593
0.992351
0.992115
0.991885
0.99166
0.991439
0.991223
0.99101
0.990801
0.990595
0.990391
0.99019
0.989991
0.989792
0.989596
0.989401
0.98921
0.989021
0.988836
0.988668
0.98855
0.988505
0.98853
0.988598
0.988681
0.988767
0.98885
0.988924
0.988989
0.989048
0.989101
0.989149
0.989186
0.98922
0.989249
0.989273
0.98929
0.9893
0.989303
0.9893
0.98929
0.989274
0.989253
0.989227
0.989197
0.989163
0.989125
0.989083
0.989039
0.988992
0.988942
0.98889
0.988835
0.988779
0.988721
0.988661
0.9886
0.988537
0.988473
0.988408
0.988341
0.988272
0.988203
0.988131
0.988057
0.987981
0.987903
0.987821
0.987736
0.987646
0.987547
0.987431
0.999333
0.998711
0.998154
0.997644
0.997174
0.996737
0.996327
0.995942
0.995578
0.995233
0.994905
0.994591
0.994291
0.994002
0.993723
0.993455
0.993194
0.992942
0.992697
0.992458
0.992225
0.991997
0.991775
0.991557
0.991343
0.991132
0.990925
0.99072
0.990517
0.990316
0.990116
0.989918
0.98972
0.989525
0.989332
0.989142
0.988959
0.98886
0.988988
0.989303
0.98972
0.990129
0.990473
0.990755
0.990976
0.991142
0.991262
0.991345
0.991399
0.991429
0.99144
0.991431
0.991407
0.991371
0.991326
0.991273
0.991215
0.991153
0.991089
0.991022
0.990953
0.990884
0.990813
0.990742
0.990671
0.990598
0.990526
0.990453
0.990379
0.990306
0.990232
0.990158
0.990084
0.990009
0.989935
0.989862
0.989789
0.989717
0.989645
0.989572
0.989499
0.989425
0.989349
0.989271
0.989191
0.989107
0.989021
0.988931
0.988834
0.988723
0.999342
0.998729
0.998179
0.997677
0.997213
0.996781
0.996378
0.995998
0.995639
0.995298
0.994974
0.994664
0.994368
0.994083
0.993808
0.993542
0.993285
0.993036
0.992793
0.992557
0.992326
0.992101
0.991881
0.991665
0.991452
0.991244
0.991038
0.990833
0.990631
0.99043
0.99023
0.99003
0.98983
0.989632
0.989435
0.989243
0.989073
0.989186
0.989881
0.990812
0.991619
0.992172
0.992549
0.992774
0.99289
0.99293
0.992921
0.992879
0.992818
0.992746
0.992665
0.992581
0.992494
0.992407
0.99232
0.992234
0.992149
0.992066
0.991984
0.991903
0.991823
0.991745
0.991667
0.991591
0.991516
0.991442
0.991369
0.991297
0.991225
0.991154
0.991082
0.991011
0.990941
0.990871
0.990801
0.990732
0.990663
0.990594
0.990525
0.990456
0.990387
0.990317
0.990246
0.990174
0.9901
0.990022
0.98994
0.98985
0.989746
0.989633
0.99935
0.998745
0.998202
0.997706
0.997248
0.996822
0.996423
0.996047
0.995693
0.995356
0.995036
0.99473
0.994437
0.994155
0.993883
0.99362
0.993366
0.993119
0.992879
0.992645
0.992416
0.992193
0.991974
0.991759
0.991548
0.99134
0.991135
0.990931
0.990729
0.990527
0.990325
0.990123
0.989921
0.989718
0.989516
0.98932
0.989229
0.989732
0.991468
0.992797
0.993615
0.994031
0.994154
0.994147
0.994066
0.993942
0.9938
0.993654
0.993511
0.993377
0.993252
0.993138
0.993032
0.992935
0.992842
0.992755
0.992672
0.992594
0.992521
0.992449
0.992378
0.992308
0.992237
0.992167
0.992097
0.992027
0.991958
0.991888
0.991818
0.991749
0.991681
0.991612
0.991544
0.991477
0.991411
0.991345
0.991279
0.991214
0.991149
0.991085
0.99102
0.990954
0.990888
0.99082
0.99075
0.990677
0.9906
0.990514
0.990411
0.990289
0.999357
0.998758
0.998221
0.99773
0.997277
0.996855
0.99646
0.996089
0.995737
0.995404
0.995087
0.994784
0.994494
0.994214
0.993945
0.993685
0.993432
0.993187
0.992949
0.992716
0.992489
0.992266
0.992048
0.991834
0.991623
0.991415
0.991209
0.991005
0.990802
0.990598
0.990395
0.99019
0.989984
0.989777
0.98957
0.989369
0.989276
0.989808
0.991834
0.993387
0.994394
0.994958
0.994959
0.994867
0.994725
0.994554
0.994373
0.994194
0.994024
0.993868
0.993726
0.993596
0.993477
0.993371
0.993277
0.993189
0.993107
0.993028
0.992952
0.992877
0.992803
0.992729
0.992656
0.992583
0.992511
0.992439
0.992368
0.992297
0.992227
0.992158
0.992089
0.992022
0.991955
0.99189
0.991825
0.991761
0.991698
0.991636
0.991573
0.991511
0.991448
0.991385
0.99132
0.991254
0.991185
0.991113
0.991036
0.990951
0.990848
0.990721
0.999362
0.998768
0.998235
0.997748
0.997298
0.99688
0.996488
0.996119
0.99577
0.99544
0.995125
0.994824
0.994535
0.994257
0.99399
0.993731
0.99348
0.993236
0.992998
0.992767
0.99254
0.992317
0.992099
0.991884
0.991672
0.991463
0.991256
0.99105
0.990845
0.990639
0.990432
0.990225
0.990016
0.989808
0.989604
0.989411
0.989305
0.989805
0.991965
0.993667
0.994824
0.995526
0.995432
0.995273
0.995086
0.994886
0.994686
0.994493
0.994313
0.994144
0.993989
0.993848
0.993724
0.993612
0.99351
0.993415
0.993326
0.99324
0.993158
0.993077
0.992999
0.992922
0.992846
0.992772
0.992699
0.992626
0.992555
0.992486
0.992417
0.99235
0.992284
0.99222
0.992156
0.992094
0.992033
0.991972
0.991912
0.991852
0.991792
0.991731
0.991669
0.991606
0.99154
0.991472
0.9914
0.991324
0.991241
0.991149
0.991038
0.9909
0.999365
0.998774
0.998244
0.997759
0.997312
0.996895
0.996505
0.996138
0.995791
0.995461
0.995148
0.994847
0.99456
0.994283
0.994016
0.993757
0.993507
0.993263
0.993026
0.992794
0.992566
0.992343
0.992124
0.991908
0.991695
0.991484
0.991274
0.991066
0.990858
0.99065
0.990441
0.990233
0.990029
0.989834
0.989658
0.989509
0.989395
0.9898
0.991858
0.993549
0.994731
0.995478
0.995354
0.995171
0.994973
0.994772
0.99458
0.9944
0.994233
0.994078
0.993934
0.993802
0.993682
0.993571
0.993466
0.993368
0.993274
0.993184
0.993097
0.993014
0.992933
0.992854
0.992778
0.992704
0.992632
0.992562
0.992494
0.992427
0.992363
0.992301
0.99224
0.99218
0.992122
0.992065
0.992008
0.991952
0.991896
0.991838
0.99178
0.991719
0.991656
0.99159
0.99152
0.991445
0.991365
0.991278
0.991182
0.991074
0.990943
0.990798
0.999367
0.998777
0.998248
0.997765
0.997318
0.996902
0.996513
0.996146
0.9958
0.995471
0.995158
0.994858
0.99457
0.994293
0.994026
0.993767
0.993516
0.993272
0.993033
0.992801
0.992572
0.992348
0.992127
0.991909
0.991694
0.991481
0.991269
0.991059
0.990849
0.990641
0.990437
0.990241
0.990063
0.989923
0.989839
0.989814
0.989741
0.989678
0.990377
0.991282
0.992261
0.993099
0.993222
0.993297
0.993346
0.99337
0.993376
0.993365
0.993341
0.993304
0.993256
0.993199
0.993137
0.993071
0.993001
0.992929
0.992855
0.99278
0.992707
0.992634
0.992562
0.992491
0.992421
0.992353
0.992287
0.992223
0.99216
0.9921
0.992041
0.991984
0.991929
0.991876
0.991823
0.991771
0.991719
0.991666
0.991611
0.991554
0.991494
0.99143
0.991361
0.991285
0.991202
0.991111
0.99101
0.990899
0.990779
0.990655
0.99052
0.990365
0.999367
0.998777
0.998248
0.997765
0.997319
0.996903
0.996514
0.996148
0.995801
0.995472
0.995159
0.994859
0.994571
0.994294
0.994026
0.993767
0.993515
0.99327
0.993031
0.992796
0.992567
0.992341
0.992118
0.991898
0.99168
0.991464
0.991251
0.991041
0.990836
0.990641
0.990462
0.990315
0.990219
0.990212
0.990317
0.990494
0.990487
0.990405
0.990865
0.991285
0.991704
0.992097
0.991896
0.991722
0.991606
0.991551
0.991556
0.991614
0.991705
0.991809
0.991909
0.991995
0.99206
0.992103
0.992124
0.992126
0.992111
0.992081
0.992041
0.991991
0.991935
0.991872
0.991807
0.991739
0.99167
0.991601
0.991533
0.991467
0.991402
0.991339
0.991279
0.99122
0.991162
0.991106
0.991049
0.990991
0.99093
0.990866
0.990798
0.990725
0.990649
0.990567
0.990477
0.990379
0.99027
0.990148
0.99001
0.989852
0.989667
0.989444
0.999366
0.998776
0.998247
0.997763
0.997317
0.996901
0.996511
0.996145
0.995798
0.995469
0.995156
0.994856
0.994568
0.994291
0.994023
0.993763
0.993511
0.993265
0.993025
0.99279
0.992559
0.992331
0.992107
0.991885
0.991665
0.991448
0.991238
0.991039
0.990861
0.990714
0.990611
0.990577
0.990639
0.990835
0.991155
0.991445
0.991373
0.991226
0.991742
0.992197
0.992579
0.992885
0.99247
0.992081
0.991764
0.991502
0.991298
0.991161
0.991092
0.99108
0.991108
0.991157
0.991212
0.99126
0.991295
0.991319
0.991327
0.991317
0.991292
0.99125
0.991194
0.991127
0.991049
0.990965
0.990875
0.990782
0.990687
0.990592
0.990498
0.990406
0.990316
0.990229
0.990144
0.990061
0.989978
0.989895
0.98981
0.989722
0.989628
0.989527
0.989417
0.989295
0.989159
0.989006
0.988832
0.988629
0.988374
0.988064
0.987699
0.987279
0.999366
0.998775
0.998245
0.997761
0.997314
0.996897
0.996507
0.99614
0.995793
0.995464
0.99515
0.99485
0.994562
0.994285
0.994017
0.993757
0.993505
0.993259
0.993019
0.992783
0.992551
0.992323
0.992097
0.991874
0.991653
0.991439
0.991246
0.991098
0.991013
0.990997
0.991057
0.991202
0.991442
0.991784
0.992161
0.992286
0.99196
0.991555
0.992182
0.992746
0.99317
0.993419
0.992369
0.991434
0.990708
0.990286
0.990092
0.990027
0.990045
0.99011
0.990195
0.990283
0.990361
0.990421
0.990457
0.990465
0.990445
0.990397
0.990326
0.990232
0.990119
0.989995
0.989865
0.989733
0.989601
0.989472
0.989344
0.989218
0.989095
0.988972
0.988851
0.988729
0.988608
0.988485
0.988361
0.988235
0.988105
0.987972
0.987834
0.987693
0.987548
0.987401
0.987254
0.987112
0.986979
0.986865
0.986794
0.986765
0.986767
0.986792
0.999365
0.998774
0.998244
0.997759
0.997312
0.996895
0.996505
0.996137
0.99579
0.99546
0.995146
0.994846
0.994557
0.994279
0.994011
0.993751
0.993498
0.993252
0.993011
0.992775
0.992542
0.992313
0.992086
0.991863
0.991644
0.991452
0.991374
0.991418
0.991573
0.991794
0.992032
0.992285
0.99254
0.992787
0.992942
0.992678
0.988201
0.988981