/*--------------------------------*- C++ -*----------------------------------*\
| =========                 |                                                 |
| \\      /  F ield         | OpenFOAM: The Open Source CFD Toolbox           |
|  \\    /   O peration     | Version:  v2012                                 |
|   \\  /    A nd           | Website:  www.openfoam.com                      |
|    \\/     M anipulation  |                                                 |
\*---------------------------------------------------------------------------*/
FoamFile
{
    version     2.0;
    format      ascii;
    class       volScalarField;
    location    "500/air";
    object      specHum;
}
// * * * * * * * * * * * * * * * * * * * * * * * * * * * * * * * * * * * * * //

dimensions      [1 -3 0 0 0 0 0];


internalField   nonuniform List<scalar> 
287104
(
0.016
0.016
0.016
0.016
0.016
0.016
0.016
0.016
0.016
0.016
0.016
0.016
0.016
0.016
0.016
0.016
0.016
0.016
0.016
0.016
0.016
0.016
0.016
0.016
0.016
0.016
0.016
0.016
0.016
0.016
0.016
0.016
0.016
0.016
0.016
0.016
0.016
0.016
0.016
0.016
0.016
0.016
0.016
0.016
0.016
0.016
0.016
0.016
0.016
0.016
0.016
0.016
0.016
0.016
0.016
0.016
0.016
0.016
0.016
0.016
0.016
0.016
0.016
0.016
0.016
0.016
0.016
0.016
0.016
0.016
0.016
0.016
0.016
0.016
0.016
0.016
0.016
0.016
0.016
0.016
0.016
0.016
0.016
0.016
0.016
0.016
0.016
0.016
0.016
0.016
0.016
0.016
0.016
0.016
0.016
0.016
0.016
0.016
0.016
0.016
0.016
0.016
0.016
0.016
0.016
0.016
0.016
0.016
0.016
0.016
0.016
0.016
0.016
0.016
0.016
0.016
0.016
0.016
0.016
0.016
0.016
0.016
0.016
0.016
0.016
0.016
0.016
0.016
0.016
0.016
0.016
0.016
0.016
0.016
0.016
0.016
0.016
0.016
0.016
0.016
0.016
0.016
0.016
0.016
0.016
0.016
0.016
0.016
0.016
0.016
0.016
0.016
0.016
0.016
0.016
0.016
0.016
0.016
0.016
0.016
0.016
0.016
0.016
0.016
0.016
0.016
0.016
0.016
0.016
0.016
0.016
0.016
0.016
0.016
0.016
0.016
0.016
0.016
0.016
0.016
0.016
0.016
0.016
0.016
0.016
0.016
0.016
0.016
0.016
0.016
0.016
0.016
0.016
0.016
0.016
0.016
0.016
0.016
0.016
0.016
0.016
0.016
0.016
0.016
0.016
0.016
0.016
0.016
0.016
0.016
0.016
0.016
0.016
0.016
0.016
0.016
0.016
0.016
0.016
0.016
0.016
0.016
0.016
0.016
0.016
0.016
0.016
0.016
0.016
0.016
0.016
0.016
0.016
0.016
0.016
0.016
0.016
0.016
0.016
0.016
0.016
0.016
0.016
0.016
0.016
0.016
0.016
0.016
0.016
0.016
0.016
0.016
0.016
0.016
0.016
0.016
0.016
0.016
0.016
0.016
0.016
0.016
0.016
0.016
0.016
0.016
0.016
0.016
0.016
0.016
0.016
0.016
0.016
0.016
0.016
0.016
0.016
0.016
0.016
0.016
0.016
0.016
0.016
0.016
0.016
0.016
0.016
0.016
0.016
0.016
0.016
0.016
0.016
0.016
0.016
0.016
0.016
0.016
0.016
0.016
0.016
0.016
0.016
0.016
0.016
0.016
0.016
0.016
0.016
0.016
0.016
0.016
0.016
0.016
0.016
0.016
0.016
0.016
0.016
0.016
0.016
0.016
0.016
0.016
0.016
0.016
0.016
0.016
0.016
0.016
0.016
0.016
0.016
0.016
0.016
0.016
0.016
0.016
0.016
0.016
0.016
0.016
0.016
0.016
0.016
0.016
0.016
0.016
0.016
0.016
0.016
0.016
0.016
0.016
0.016
0.016
0.016
0.016
0.016
0.016
0.016
0.016
0.016
0.016
0.016
0.016
0.016
0.016
0.016
0.016
0.016
0.016
0.016
0.016
0.016
0.016
0.016
0.016
0.016
0.016
0.016
0.016
0.016
0.016
0.016
0.016
0.016
0.016
0.016
0.016
0.016
0.016
0.016
0.016
0.016
0.016
0.016
0.016
0.016
0.016
0.016
0.016
0.016
0.016
0.016
0.016
0.016
0.016
0.016
0.016
0.016
0.016
0.016
0.016
0.016
0.016
0.016
0.016
0.016
0.016
0.016
0.016
0.016
0.016
0.016
0.016
0.016
0.016
0.016
0.016
0.016
0.016
0.016
0.016
0.016
0.0160001
0.0160001
0.0160001
0.0160001
0.0160001
0.0160001
0.0160001
0.0160001
0.0160001
0.0160001
0.0160001
0.0160001
0.0160001
0.0160001
0.0160001
0.016
0.016
0.016
0.016
0.016
0.016
0.016
0.016
0.016
0.016
0.016
0.016
0.016
0.016
0.016
0.016
0.016
0.016
0.016
0.016
0.016
0.016
0.016
0.016
0.016
0.016
0.016
0.016
0.016
0.016
0.016
0.016
0.016
0.016
0.016
0.016
0.016
0.016
0.016
0.016
0.016
0.016
0.016
0.016
0.016
0.016
0.016
0.016
0.016
0.016
0.0160001
0.0160001
0.0160001
0.0160001
0.0160001
0.0160001
0.0160001
0.0160001
0.0160001
0.0160001
0.0160001
0.0160001
0.0160001
0.0160001
0.0160001
0.0160001
0.0160001
0.0160001
0.0160002
0.0160002
0.0160002
0.0160002
0.0160002
0.0160002
0.0160002
0.0160002
0.0160002
0.0160002
0.0160002
0.0160003
0.0160003
0.0160003
0.0160003
0.0160003
0.0160003
0.0160003
0.0160004
0.0160004
0.0160004
0.0160004
0.016
0.016
0.016
0.016
0.016
0.016
0.016
0.016
0.016
0.016
0.016
0.016
0.016
0.016
0.016
0.016
0.016
0.016
0.016
0.016
0.016
0.016
0.016
0.016
0.016
0.016
0.016
0.016
0.016
0.016
0.016
0.016
0.0160001
0.0160001
0.0160001
0.0160001
0.0160001
0.0160001
0.0160001
0.0160001
0.0160002
0.0160002
0.0160002
0.0160002
0.0160002
0.0160002
0.0160003
0.0160003
0.0160003
0.0160003
0.0160003
0.0160003
0.0160003
0.0160004
0.0160004
0.0160004
0.0160004
0.0160004
0.0160004
0.0160004
0.0160005
0.0160005
0.0160005
0.0160005
0.0160005
0.0160005
0.0160005
0.0160006
0.0160006
0.0160006
0.0160006
0.0160006
0.0160007
0.0160007
0.0160007
0.0160007
0.0160007
0.0160008
0.0160008
0.0160008
0.0160008
0.0160009
0.0160009
0.0160009
0.016001
0.016001
0.016001
0.0160011
0.0160011
0.0160011
0.016
0.016
0.016
0.016
0.016
0.016
0.016
0.016
0.016
0.016
0.016
0.016
0.016
0.016
0.016
0.016
0.016
0.016
0.016
0.016
0.0160001
0.0160001
0.0160001
0.0160001
0.0160002
0.0160002
0.0160002
0.0160003
0.0160003
0.0160004
0.0160004
0.0160005
0.0160005
0.0160006
0.0160007
0.0160007
0.0160008
0.0160008
0.0160009
0.016001
0.016001
0.0160011
0.0160012
0.0160012
0.0160013
0.0160013
0.0160014
0.0160014
0.0160014
0.0160015
0.0160015
0.0160015
0.0160015
0.0160016
0.0160016
0.0160016
0.0160017
0.0160017
0.0160017
0.0160018
0.0160018
0.0160018
0.0160019
0.0160019
0.0160019
0.016002
0.016002
0.0160021
0.0160021
0.0160021
0.0160022
0.0160022
0.0160022
0.0160023
0.0160023
0.0160023
0.0160024
0.0160024
0.0160025
0.0160025
0.0160025
0.0160026
0.0160026
0.0160026
0.0160027
0.0160027
0.0160028
0.0160028
0.0160028
0.0160029
0.016
0.016
0.016
0.016
0.016
0.016
0.016
0.016
0.016
0.016
0.016
0.016
0.0160001
0.0160001
0.0160002
0.0160003
0.0160005
0.0160006
0.0160008
0.016001
0.0160013
0.0160015
0.0160018
0.016002
0.0160023
0.0160026
0.0160028
0.0160031
0.0160034
0.0160037
0.0160039
0.0160042
0.0160044
0.0160046
0.0160048
0.016005
0.0160051
0.0160053
0.0160054
0.0160056
0.0160057
0.0160059
0.0160061
0.0160063
0.0160065
0.0160066
0.0160068
0.016007
0.0160072
0.0160073
0.0160075
0.0160076
0.0160078
0.0160079
0.016008
0.0160081
0.0160083
0.0160084
0.0160084
0.0160085
0.0160086
0.0160087
0.0160087
0.0160088
0.0160089
0.0160089
0.0160089
0.016009
0.016009
0.016009
0.0160091
0.0160091
0.0160091
0.0160091
0.0160091
0.0160091
0.0160091
0.0160091
0.0160091
0.0160091
0.016009
0.016009
0.016009
0.0160089
0.0160089
0.0160089
0.0160089
0.0160089
0.0160089
0.0160089
0.016
0.016
0.016
0.016
0.016
0.016
0.016
0.016
0.016
0.016
0.0160005
0.0160015
0.0160029
0.0160046
0.0160067
0.0160089
0.0160113
0.0160139
0.0160164
0.016019
0.0160215
0.0160239
0.0160262
0.0160283
0.0160303
0.0160321
0.0160337
0.0160352
0.0160365
0.0160375
0.0160383
0.0160388
0.0160394
0.01604
0.0160408
0.0160416
0.0160426
0.0160436
0.0160446
0.0160456
0.0160465
0.0160474
0.0160481
0.0160487
0.0160492
0.0160496
0.0160499
0.0160501
0.0160502
0.0160501
0.01605
0.0160498
0.0160496
0.0160492
0.0160488
0.0160483
0.0160478
0.0160472
0.0160465
0.0160458
0.0160451
0.0160443
0.0160435
0.0160427
0.0160419
0.0160411
0.0160402
0.0160394
0.0160386
0.0160377
0.0160369
0.0160361
0.0160352
0.0160344
0.0160336
0.0160328
0.0160321
0.0160313
0.0160305
0.0160298
0.0160289
0.0160279
0.0160269
0.016026
0.0160252
0.0160244
0.0160237
0.016023
0.0160224
0.0160218
0.016
0.016
0.016
0.016
0.016
0.016
0.016
0.016
0.016
0.0160001
0.0160298
0.016059
0.0160881
0.0161172
0.0161463
0.0161754
0.0162042
0.0162326
0.0162603
0.0162872
0.016313
0.0163374
0.0163604
0.0163817
0.0164014
0.0164193
0.0164357
0.0164505
0.016464
0.0164764
0.0164877
0.0164983
0.0165079
0.0165163
0.0165237
0.0165301
0.0165357
0.0165404
0.0165443
0.0165473
0.0165496
0.016551
0.0165517
0.0165516
0.0165508
0.0165492
0.0165469
0.0165439
0.0165402
0.0165358
0.0165309
0.0165255
0.0165195
0.0165131
0.0165063
0.0164992
0.0164917
0.016484
0.016476
0.0164679
0.0164595
0.016451
0.0164424
0.0164337
0.0164249
0.0164161
0.0164073
0.0163984
0.0163896
0.0163809
0.0163723
0.0163637
0.0163552
0.0163469
0.0163387
0.0163306
0.0163227
0.0163149
0.016307
0.0162963
0.0162454
0.0162062
0.0161754
0.0161506
0.0161305
0.0161141
0.0161006
0.0160895
0.0160803
0.0160727
0.016
0.016
0.016
0.016
0.016
0.016
0.016
0.016
0.016
0.0160001
0.0160296
0.0160587
0.0160878
0.016117
0.0161463
0.0161757
0.016205
0.0162341
0.0162626
0.0162903
0.016317
0.0163424
0.0163663
0.0163886
0.0164092
0.0164279
0.016445
0.0164603
0.0164743
0.0164869
0.0164985
0.0165092
0.0165192
0.0165288
0.0165381
0.0165473
0.0165563
0.0165653
0.0165743
0.0165834
0.0165927
0.0166021
0.0166117
0.0166212
0.0166305
0.0166398
0.016649
0.016658
0.0166667
0.0166753
0.0166835
0.0166913
0.0166988
0.0167058
0.0167123
0.0167184
0.0167238
0.0167287
0.0167329
0.0167363
0.016739
0.0167408
0.0167417
0.0167416
0.0167406
0.0167384
0.0167351
0.0167307
0.0167251
0.0167184
0.0167105
0.0167015
0.0166915
0.0166804
0.0166685
0.0166557
0.0166423
0.0166282
0.0166137
0.016598
0.0165239
0.0164592
0.0164031
0.0163543
0.016312
0.0162754
0.0162438
0.0162164
0.016193
0.0161728
0.016
0.016
0.016
0.016
0.016
0.016
0.016
0.016
0.016
0.0160001
0.0160294
0.0160583
0.0160871
0.0161161
0.0161452
0.0161744
0.0162034
0.0162322
0.0162605
0.016288
0.0163144
0.0163395
0.0163631
0.016385
0.0164051
0.0164233
0.0164396
0.0164543
0.0164673
0.0164791
0.0164896
0.0164993
0.0165083
0.0165167
0.0165249
0.0165328
0.0165407
0.0165485
0.0165561
0.0165638
0.0165716
0.0165795
0.0165876
0.0165956
0.0166036
0.0166116
0.0166197
0.0166277
0.0166358
0.0166439
0.016652
0.0166601
0.0166682
0.0166763
0.0166845
0.0166926
0.0167009
0.0167091
0.0167175
0.016726
0.0167345
0.0167432
0.016752
0.0167609
0.0167699
0.016779
0.0167883
0.0167976
0.016807
0.0168163
0.0168256
0.0168347
0.0168436
0.0168521
0.0168601
0.0168675
0.0168741
0.0168798
0.0168843
0.0168865
0.0168226
0.0167651
0.0167123
0.0166631
0.016617
0.0165735
0.0165324
0.0164935
0.0164564
0.0164202
0.016
0.016
0.016
0.016
0.016
0.016
0.016
0.016
0.016
0.0160001
0.0160292
0.0160578
0.0160864
0.0161151
0.016144
0.0161729
0.0162018
0.0162303
0.0162583
0.0162855
0.0163117
0.0163366
0.01636
0.0163816
0.0164014
0.0164194
0.0164355
0.0164499
0.0164627
0.0164742
0.0164845
0.0164939
0.0165025
0.0165107
0.0165185
0.0165262
0.0165338
0.0165412
0.0165485
0.0165559
0.0165633
0.0165708
0.0165785
0.016586
0.0165935
0.0166009
0.0166083
0.0166157
0.016623
0.0166301
0.0166372
0.0166441
0.0166507
0.0166569
0.0166629
0.0166687
0.0166742
0.0166795
0.0166847
0.0166896
0.0166943
0.0166988
0.016703
0.0167071
0.0167109
0.0167145
0.0167179
0.0167211
0.0167241
0.0167269
0.0167295
0.0167319
0.0167342
0.0167364
0.0167384
0.0167404
0.0167423
0.016744
0.0167448
0.0167399
0.0166825
0.0166381
0.0166025
0.0165731
0.0165485
0.0165277
0.0165099
0.0164947
0.0164813
0.016469
0.016
0.016
0.016
0.016
0.016
0.016
0.016
0.016
0.016
0.0160001
0.016029
0.0160574
0.0160857
0.0161142
0.0161429
0.0161715
0.0162001
0.0162284
0.0162562
0.0162831
0.0163091
0.0163337
0.0163568
0.0163782
0.0163978
0.0164156
0.0164315
0.0164457
0.0164584
0.0164697
0.0164799
0.0164892
0.0164978
0.0165058
0.0165136
0.0165212
0.0165288
0.0165362
0.0165435
0.0165509
0.0165583
0.0165659
0.0165736
0.0165812
0.0165887
0.0165963
0.0166038
0.0166112
0.0166186
0.016626
0.0166332
0.0166403
0.0166472
0.016654
0.0166607
0.0166673
0.0166737
0.01668
0.0166862
0.016692
0.0166977
0.0167031
0.0167084
0.0167135
0.0167184
0.0167232
0.0167278
0.0167322
0.0167363
0.0167402
0.0167438
0.0167471
0.0167501
0.0167526
0.0167548
0.0167566
0.0167578
0.0167583
0.0167575
0.0167506
0.0166911
0.0166444
0.0166063
0.0165742
0.0165468
0.0165228
0.0165018
0.0164833
0.0164677
0.0164555
0.016
0.016
0.016
0.016
0.016
0.016
0.016
0.016
0.016
0.0160001
0.0160287
0.0160569
0.0160851
0.0161133
0.0161417
0.0161701
0.0161985
0.0162265
0.016254
0.0162807
0.0163064
0.0163308
0.0163537
0.0163749
0.0163943
0.0164119
0.0164276
0.0164417
0.0164543
0.0164655
0.0164756
0.0164849
0.0164934
0.0165014
0.0165092
0.0165168
0.0165245
0.016532
0.0165393
0.0165468
0.0165543
0.0165621
0.01657
0.0165779
0.0165856
0.0165934
0.0166013
0.0166091
0.0166169
0.0166247
0.0166323
0.0166399
0.0166474
0.0166548
0.0166622
0.0166695
0.0166767
0.0166839
0.016691
0.0166981
0.0167053
0.0167124
0.0167196
0.0167268
0.0167341
0.0167415
0.016749
0.0167565
0.0167642
0.016772
0.0167799
0.016788
0.0167962
0.0168046
0.0168131
0.0168218
0.0168307
0.0168397
0.0168488
0.0168571
0.0168067
0.0167647
0.0167286
0.016697
0.0166687
0.016643
0.0166193
0.0165972
0.0165764
0.0165565
0.016
0.016
0.016
0.016
0.016
0.016
0.016
0.016
0.016
0.0160001
0.0160285
0.0160565
0.0160844
0.0161124
0.0161406
0.0161687
0.0161968
0.0162246
0.0162519
0.0162784
0.0163038
0.016328
0.0163506
0.0163716
0.0163907
0.0164081
0.0164236
0.0164375
0.0164499
0.0164611
0.0164711
0.0164802
0.0164886
0.0164965
0.016504
0.0165115
0.016519
0.0165263
0.0165334
0.0165407
0.0165481
0.0165557
0.0165636
0.0165715
0.0165794
0.0165874
0.0165955
0.0166036
0.0166118
0.01662
0.0166281
0.0166362
0.0166442
0.0166521
0.01666
0.0166678
0.0166756
0.0166835
0.0166913
0.0166991
0.016707
0.0167149
0.0167229
0.0167309
0.016739
0.0167471
0.0167552
0.0167634
0.0167716
0.0167797
0.0167878
0.0167958
0.0168035
0.0168111
0.0168183
0.0168251
0.0168314
0.0168371
0.0168422
0.0168456
0.0167868
0.0167351
0.0166882
0.0166451
0.016605
0.0165675
0.0165323
0.0164993
0.0164685
0.0164394
0.016
0.016
0.016
0.016
0.016
0.016
0.016
0.016
0.016
0.0160001
0.0160283
0.016056
0.0160837
0.0161115
0.0161395
0.0161674
0.0161953
0.0162228
0.0162498
0.016276
0.0163011
0.0163249
0.0163471
0.0163676
0.0163863
0.016403
0.0164179
0.0164311
0.0164428
0.0164531
0.0164622
0.0164703
0.0164775
0.0164842
0.0164904
0.0164963
0.0165023
0.016508
0.0165136
0.0165193
0.0165253
0.0165317
0.0165387
0.0165458
0.016553
0.0165606
0.0165684
0.0165764
0.0165845
0.0165925
0.0166004
0.0166081
0.0166156
0.016623
0.0166302
0.0166372
0.016644
0.0166506
0.016657
0.0166632
0.0166692
0.0166749
0.0166804
0.0166856
0.0166905
0.0166951
0.0166992
0.0167029
0.0167062
0.0167088
0.0167109
0.0167124
0.0167131
0.0167131
0.0167123
0.0167106
0.0167082
0.0167048
0.0167004
0.0166938
0.01663
0.016574
0.0165243
0.01648
0.0164402
0.0164044
0.0163722
0.0163433
0.0163175
0.0162945
0.016
0.016
0.016
0.016
0.016
0.016
0.016
0.016
0.016
0.0160001
0.0160281
0.0160556
0.0160831
0.0161107
0.0161383
0.016166
0.0161935
0.0162205
0.0162469
0.0162722
0.0162961
0.0163184
0.0163387
0.016357
0.0163729
0.0163867
0.0163983
0.016408
0.016416
0.0164225
0.0164278
0.016432
0.0164352
0.0164378
0.0164399
0.0164418
0.0164438
0.0164458
0.0164479
0.0164506
0.0164541
0.0164586
0.0164642
0.0164705
0.0164774
0.016485
0.0164931
0.0165015
0.0165099
0.0165183
0.0165263
0.016534
0.0165411
0.0165477
0.0165538
0.0165593
0.0165642
0.0165685
0.0165722
0.0165752
0.0165776
0.0165794
0.0165805
0.0165812
0.0165812
0.0165807
0.0165796
0.016578
0.0165758
0.016573
0.0165698
0.0165659
0.0165616
0.0165568
0.0165514
0.0165457
0.0165395
0.0165326
0.0165237
0.0165092
0.0164465
0.0163956
0.0163532
0.0163171
0.016286
0.0162591
0.0162357
0.0162153
0.0161978
0.0161828
0.016
0.016
0.016
0.016
0.016
0.016
0.016
0.016
0.016
0.0160001
0.0160279
0.0160551
0.0160822
0.016109
0.0161353
0.0161608
0.0161851
0.0162078
0.0162285
0.0162469
0.0162628
0.0162761
0.0162868
0.0162952
0.0163013
0.0163055
0.0163081
0.0163093
0.0163095
0.0163088
0.0163075
0.0163056
0.0163034
0.0163009
0.0162984
0.0162961
0.0162943
0.016293
0.0162924
0.0162929
0.0162949
0.0162984
0.0163037
0.0163102
0.0163179
0.0163269
0.0163367
0.0163471
0.0163577
0.0163682
0.0163783
0.0163877
0.0163961
0.0164035
0.0164096
0.0164144
0.0164174
0.0164188
0.016419
0.016418
0.0164161
0.0164135
0.0164102
0.0164065
0.0164023
0.0163978
0.016393
0.016388
0.0163827
0.0163772
0.0163716
0.0163658
0.01636
0.016354
0.016348
0.016342
0.0163358
0.0163294
0.0163223
0.0163115
0.0162633
0.0162263
0.0161968
0.0161729
0.0161531
0.0161365
0.0161226
0.0161108
0.0161009
0.0160927
0.016
0.016
0.016
0.016
0.016
0.016
0.016
0.016
0.016
0.016
0.0160001
0.0160004
0.0160006
0.0160009
0.0160013
0.0160017
0.0160021
0.0160025
0.016003
0.0160035
0.016004
0.0160044
0.0160049
0.0160053
0.0160057
0.0160061
0.0160065
0.0160068
0.0160071
0.0160074
0.0160076
0.0160078
0.0160079
0.016008
0.0160081
0.0160082
0.0160082
0.0160083
0.0160083
0.0160084
0.0160085
0.0160087
0.0160089
0.0160091
0.0160094
0.0160098
0.0160102
0.0160106
0.0160111
0.0160117
0.0160122
0.0160128
0.0160133
0.0160139
0.0160145
0.0160151
0.0160157
0.0160162
0.0160168
0.0160173
0.0160177
0.0160182
0.0160186
0.016019
0.0160193
0.0160197
0.0160199
0.0160202
0.0160204
0.0160205
0.0160207
0.0160208
0.0160208
0.0160209
0.0160209
0.0160208
0.0160208
0.0160207
0.0160205
0.0160204
0.01602
0.0160195
0.016019
0.0160184
0.0160179
0.0160174
0.016017
0.0160166
0.0160162
0.0160159
0.016
0.016
0.016
0.016
0.016
0.016
0.016
0.016
0.016
0.016
0.016
0.016
0.016
0.016
0.016
0.016
0.016
0.016
0.016
0.016
0.016
0.0160001
0.0160001
0.0160001
0.0160001
0.0160001
0.0160001
0.0160001
0.0160001
0.0160001
0.0160001
0.0160002
0.0160002
0.0160002
0.0160002
0.0160002
0.0160002
0.0160002
0.0160002
0.0160002
0.0160002
0.0160002
0.0160002
0.0160003
0.0160003
0.0160003
0.0160003
0.0160003
0.0160004
0.0160004
0.0160004
0.0160004
0.0160005
0.0160005
0.0160005
0.0160006
0.0160006
0.0160007
0.0160007
0.0160007
0.0160008
0.0160008
0.0160009
0.0160009
0.016001
0.016001
0.0160011
0.0160012
0.0160012
0.0160013
0.0160013
0.0160014
0.0160015
0.0160015
0.0160016
0.0160017
0.0160018
0.0160018
0.0160019
0.016002
0.0160021
0.0160021
0.0160022
0.0160023
0.0160024
0.0160025
0.0160026
0.0160027
0.0160028
0.0160028
0.016
0.016
0.016
0.016
0.016
0.016
0.016
0.016
0.016
0.016
0.016
0.016
0.016
0.016
0.016
0.016
0.016
0.016
0.016
0.016
0.016
0.016
0.016
0.016
0.016
0.016
0.016
0.016
0.016
0.016
0.016
0.016
0.016
0.016
0.016
0.016
0.016
0.016
0.016
0.016
0.016
0.016
0.016
0.016
0.016
0.016
0.016
0.016
0.0160001
0.0160001
0.0160001
0.0160001
0.0160001
0.0160001
0.0160001
0.0160001
0.0160001
0.0160001
0.0160002
0.0160002
0.0160002
0.0160002
0.0160002
0.0160003
0.0160003
0.0160003
0.0160004
0.0160004
0.0160004
0.0160005
0.0160005
0.0160006
0.0160006
0.0160007
0.0160007
0.0160008
0.0160009
0.0160009
0.016001
0.0160011
0.0160012
0.0160013
0.0160014
0.0160015
0.0160016
0.0160017
0.0160018
0.0160019
0.016002
0.0160022
0.016
0.016
0.016
0.016
0.016
0.016
0.016
0.016
0.016
0.016
0.016
0.016
0.016
0.016
0.016
0.016
0.016
0.016
0.016
0.016
0.016
0.016
0.016
0.016
0.016
0.016
0.016
0.016
0.016
0.016
0.016
0.016
0.016
0.016
0.016
0.016
0.016
0.016
0.016
0.016
0.016
0.016
0.0160001
0.0160001
0.0160001
0.0160002
0.0160002
0.0160002
0.0160003
0.0160003
0.0160003
0.0160003
0.0160004
0.0160004
0.0160004
0.0160005
0.0160005
0.0160006
0.0160006
0.0160007
0.0160008
0.0160008
0.0160009
0.016001
0.0160011
0.0160012
0.0160014
0.0160015
0.0160016
0.0160018
0.0160019
0.0160021
0.0160023
0.0160025
0.0160027
0.0160029
0.0160031
0.0160033
0.0160035
0.0160037
0.0160039
0.0160041
0.0160043
0.0160046
0.0160048
0.016005
0.0160052
0.0160054
0.0160056
0.0160057
0.016
0.016
0.016
0.016
0.016
0.016
0.016
0.016
0.016
0.016
0.016
0.016
0.016
0.016
0.016
0.016
0.016
0.016
0.016
0.016
0.016
0.016
0.016
0.016
0.016
0.016
0.016
0.016
0.016
0.016
0.016
0.016
0.016
0.016
0.016
0.016
0.016
0.016
0.016
0.016
0.0160001
0.0160002
0.0160004
0.0160006
0.0160008
0.016001
0.0160012
0.0160014
0.0160016
0.0160018
0.016002
0.0160022
0.0160024
0.0160027
0.0160029
0.0160032
0.0160036
0.0160039
0.0160043
0.0160047
0.0160051
0.0160055
0.016006
0.0160065
0.016007
0.0160075
0.016008
0.0160085
0.016009
0.0160095
0.0160101
0.0160106
0.0160111
0.0160116
0.0160121
0.0160125
0.016013
0.0160135
0.0160139
0.0160144
0.0160148
0.0160152
0.0160156
0.0160159
0.0160163
0.0160166
0.0160169
0.0160172
0.0160175
0.0160177
0.016
0.016
0.016
0.016
0.016
0.016
0.016
0.016
0.016
0.016
0.016
0.016
0.016
0.016
0.016
0.016
0.016
0.016
0.016
0.016
0.016
0.016
0.016
0.016
0.016
0.016
0.016
0.016
0.016
0.016
0.016
0.016
0.016
0.016
0.016
0.016
0.016
0.016
0.0160001
0.0160003
0.0160008
0.0160015
0.0160025
0.0160035
0.0160047
0.0160058
0.016007
0.0160081
0.0160093
0.0160104
0.0160115
0.0160126
0.0160138
0.016015
0.0160162
0.0160174
0.0160186
0.0160198
0.016021
0.0160221
0.0160232
0.0160243
0.0160253
0.0160263
0.0160273
0.0160282
0.0160291
0.0160299
0.0160307
0.0160315
0.0160322
0.0160329
0.0160336
0.0160342
0.0160348
0.0160353
0.0160359
0.0160364
0.0160368
0.0160373
0.0160377
0.0160381
0.0160384
0.0160387
0.016039
0.0160393
0.0160395
0.0160397
0.0160398
0.01604
0.016
0.016
0.016
0.016
0.016
0.016
0.016
0.016
0.016
0.016
0.016
0.016
0.016
0.016
0.016
0.016
0.016
0.016
0.016
0.016
0.016
0.016
0.016
0.016
0.016
0.016
0.016
0.016
0.016
0.016
0.016
0.016
0.016
0.016
0.016
0.016
0.016
0.016
0.0160004
0.0160017
0.0160043
0.0160079
0.016012
0.0160164
0.0160208
0.0160251
0.0160292
0.016033
0.0160365
0.0160396
0.0160425
0.0160452
0.0160476
0.0160498
0.0160519
0.0160537
0.0160554
0.0160569
0.0160582
0.0160594
0.0160606
0.0160616
0.0160625
0.0160633
0.016064
0.0160646
0.0160652
0.0160657
0.0160662
0.0160666
0.0160669
0.0160672
0.0160674
0.0160677
0.0160678
0.016068
0.0160681
0.0160682
0.0160682
0.0160682
0.0160682
0.0160682
0.0160681
0.0160681
0.016068
0.0160678
0.0160677
0.0160675
0.0160673
0.0160671
0.016
0.016
0.016
0.016
0.016
0.016
0.016
0.016
0.016
0.016
0.016
0.016
0.016
0.016
0.016
0.016
0.016
0.016
0.016
0.016
0.016
0.016
0.016
0.016
0.016
0.016
0.016
0.016
0.016
0.016
0.016
0.016
0.016
0.016
0.016
0.016
0.016
0.0160001
0.0160021
0.0160081
0.0160181
0.0160299
0.0160416
0.0160526
0.0160624
0.016071
0.0160783
0.0160844
0.0160896
0.0160938
0.0160972
0.0161
0.0161022
0.0161039
0.0161052
0.0161061
0.0161068
0.0161073
0.0161076
0.0161077
0.0161077
0.0161076
0.0161075
0.0161072
0.0161069
0.0161065
0.0161061
0.0161056
0.0161051
0.0161046
0.0161041
0.0161035
0.0161029
0.0161023
0.0161017
0.0161011
0.0161005
0.0160998
0.0160992
0.0160985
0.0160979
0.0160973
0.0160966
0.016096
0.0160953
0.0160947
0.016094
0.0160934
0.0160927
0.0160921
0.016
0.016
0.016
0.016
0.016
0.016
0.016
0.016
0.016
0.016
0.016
0.016
0.016
0.016
0.016
0.016
0.016
0.016
0.016
0.016
0.016
0.016
0.016
0.016
0.016
0.016
0.016
0.016
0.016
0.016
0.016
0.016
0.016
0.016
0.016
0.016
0.016
0.0160003
0.0160084
0.016026
0.0160487
0.0160712
0.0160903
0.0161059
0.0161185
0.0161284
0.0161363
0.0161425
0.0161472
0.0161507
0.0161531
0.0161545
0.0161552
0.0161552
0.0161549
0.0161541
0.0161532
0.016152
0.0161508
0.0161494
0.0161481
0.0161466
0.0161452
0.0161437
0.0161422
0.0161408
0.0161393
0.0161378
0.0161364
0.016135
0.0161336
0.0161322
0.0161308
0.0161295
0.0161282
0.0161269
0.0161256
0.0161244
0.0161231
0.0161219
0.0161208
0.0161196
0.0161185
0.0161173
0.0161162
0.0161152
0.0161141
0.0161131
0.0161121
0.0161111
0.016
0.016
0.016
0.016
0.016
0.016
0.016
0.016
0.016
0.016
0.016
0.016
0.016
0.016
0.016
0.016
0.016
0.016
0.016
0.016
0.016
0.016
0.016
0.016
0.016
0.016
0.016
0.016
0.016
0.016
0.016
0.016
0.016
0.016
0.016
0.016
0.0160001
0.0160005
0.0160093
0.0160287
0.0160539
0.0160785
0.0160998
0.0161177
0.0161321
0.0161438
0.0161531
0.0161605
0.0161663
0.0161706
0.0161738
0.0161758
0.0161769
0.0161773
0.0161771
0.0161764
0.0161753
0.016174
0.0161725
0.0161708
0.0161691
0.0161673
0.0161655
0.0161636
0.0161618
0.0161599
0.0161581
0.0161563
0.0161545
0.0161527
0.0161509
0.0161492
0.0161475
0.0161459
0.0161442
0.0161426
0.0161411
0.0161396
0.0161381
0.0161366
0.0161352
0.0161338
0.0161324
0.0161311
0.0161298
0.0161285
0.0161272
0.016126
0.0161249
0.0161238
0.016
0.016
0.016
0.016
0.016
0.016
0.016
0.016
0.016
0.016
0.016
0.016
0.016
0.016
0.016
0.016
0.016
0.016
0.016
0.016
0.016
0.016
0.016
0.016
0.016
0.016
0.016
0.016
0.016
0.016
0.016
0.016
0.016
0.016
0.0160001
0.0160002
0.0160004
0.0160008
0.0160088
0.0160269
0.0160509
0.0160745
0.0160948
0.0161118
0.0161257
0.016137
0.0161462
0.0161536
0.0161595
0.0161641
0.0161678
0.0161705
0.0161725
0.0161738
0.0161746
0.0161749
0.0161747
0.0161742
0.0161735
0.0161726
0.0161714
0.0161702
0.0161689
0.0161675
0.016166
0.0161645
0.016163
0.0161615
0.0161599
0.0161584
0.0161568
0.0161553
0.0161537
0.0161522
0.0161507
0.0161492
0.0161478
0.0161463
0.0161449
0.0161435
0.0161421
0.0161408
0.0161395
0.0161382
0.0161369
0.0161357
0.0161345
0.0161333
0.0161322
0.0161311
0.016
0.016
0.016
0.016
0.016
0.016
0.016
0.016
0.016
0.016
0.016
0.016
0.016
0.016
0.016
0.016
0.016
0.016
0.016
0.016
0.016
0.016
0.016
0.016
0.016
0.016
0.016
0.016
0.016
0.016
0.016
0.016
0.0160001
0.0160002
0.0160005
0.0160011
0.0160017
0.0160021
0.0160082
0.0160223
0.0160411
0.0160598
0.0160759
0.0160891
0.0160999
0.0161088
0.0161162
0.0161226
0.0161283
0.0161334
0.0161378
0.0161418
0.0161453
0.0161483
0.0161507
0.0161527
0.0161543
0.0161555
0.0161564
0.016157
0.0161573
0.0161574
0.0161573
0.0161571
0.0161568
0.0161563
0.0161557
0.0161551
0.0161544
0.0161536
0.0161528
0.0161519
0.016151
0.0161501
0.0161491
0.0161481
0.0161471
0.0161461
0.0161451
0.016144
0.016143
0.016142
0.016141
0.01614
0.016139
0.016138
0.016137
0.0161361
0.0161352
0.0161343
0.016
0.016
0.016
0.016
0.016
0.016
0.016
0.016
0.016
0.016
0.016
0.016
0.016
0.016
0.016
0.016
0.016
0.016
0.016
0.016
0.016
0.016
0.016
0.016
0.016
0.016
0.016
0.016
0.016
0.016
0.016
0.0160001
0.0160003
0.0160009
0.0160021
0.0160045
0.0160063
0.0160072
0.0160075
0.016009
0.0160126
0.0160177
0.0160235
0.0160299
0.0160367
0.0160437
0.016051
0.0160585
0.0160661
0.0160736
0.016081
0.0160881
0.0160947
0.0161009
0.0161064
0.0161114
0.0161159
0.0161198
0.0161232
0.0161261
0.0161287
0.0161309
0.0161327
0.0161344
0.0161357
0.0161369
0.0161379
0.0161387
0.0161393
0.0161398
0.0161402
0.0161404
0.0161406
0.0161406
0.0161406
0.0161405
0.0161402
0.01614
0.0161396
0.0161393
0.0161388
0.0161384
0.0161379
0.0161374
0.0161369
0.0161363
0.0161358
0.0161352
0.0161346
0.016134
0.016
0.016
0.016
0.016
0.016
0.016
0.016
0.016
0.016
0.016
0.016
0.016
0.016
0.016
0.016
0.016
0.016
0.016
0.016
0.016
0.016
0.016
0.016
0.016
0.016
0.016
0.016
0.016
0.016
0.0160001
0.0160002
0.0160006
0.0160014
0.0160032
0.016007
0.0160146
0.0160188
0.016021
0.0160219
0.0160218
0.0160218
0.0160222
0.0160229
0.0160239
0.0160253
0.0160272
0.0160298
0.0160332
0.0160374
0.0160423
0.0160478
0.0160536
0.0160596
0.0160656
0.0160713
0.0160768
0.0160819
0.0160867
0.0160911
0.0160952
0.0160989
0.0161022
0.0161053
0.0161082
0.0161108
0.0161132
0.0161154
0.0161174
0.0161192
0.0161209
0.0161224
0.0161238
0.016125
0.0161261
0.0161271
0.0161279
0.0161287
0.0161293
0.0161298
0.0161302
0.0161305
0.0161307
0.0161309
0.016131
0.016131
0.0161309
0.0161308
0.0161307
0.0161305
0.0161302
0.016
0.016
0.016
0.016
0.016
0.016
0.016
0.016
0.016
0.016
0.016
0.016
0.016
0.016
0.016
0.016
0.016
0.016
0.016
0.016
0.016
0.016
0.016
0.016
0.016
0.016
0.016
0.016
0.0160001
0.0160004
0.016001
0.0160022
0.0160046
0.0160095
0.0160191
0.0160365
0.0160422
0.0160452
0.0160468
0.0160473
0.0160472
0.0160471
0.0160471
0.0160471
0.0160472
0.0160471
0.0160469
0.0160467
0.0160468
0.0160475
0.0160488
0.0160508
0.0160534
0.0160564
0.0160598
0.0160633
0.0160669
0.0160704
0.0160738
0.0160771
0.0160803
0.0160833
0.0160861
0.0160888
0.0160913
0.0160938
0.0160961
0.0160983
0.0161004
0.0161025
0.0161044
0.0161063
0.0161081
0.0161097
0.0161113
0.0161128
0.0161141
0.0161154
0.0161165
0.0161175
0.0161184
0.0161192
0.0161199
0.0161205
0.016121
0.0161213
0.0161212
0.0161203
0.0161188
0.0161162
0.016
0.016
0.016
0.016
0.016
0.016
0.016
0.016
0.016
0.016
0.016
0.016
0.016
0.016
0.016
0.016
0.016
0.016
0.016
0.016
0.016
0.016
0.016
0.016
0.016
0.016
0.016
0.0160002
0.0160007
0.0160018
0.0160038
0.0160074
0.0160135
0.0160241
0.0160419
0.0160702
0.0160713
0.0160724
0.0160733
0.0160741
0.016074
0.0160735
0.0160731
0.016073
0.016074
0.0160736
0.0160716
0.0160689
0.0160662
0.0160638
0.0160622
0.0160613
0.0160612
0.0160618
0.0160629
0.0160644
0.0160662
0.016068
0.01607
0.0160719
0.0160739
0.0160759
0.0160778
0.0160796
0.0160812
0.0160828
0.0160842
0.0160855
0.0160867
0.0160879
0.016089
0.01609
0.016091
0.016092
0.0160929
0.0160938
0.0160945
0.0160951
0.0160956
0.0160958
0.0160958
0.0160955
0.0160948
0.0160938
0.0160924
0.0160906
0.0160888
0.0160872
0.0160857
0.0160843
0.016
0.016
0.016
0.016
0.016
0.016
0.016
0.016
0.016
0.016
0.016
0.016
0.016
0.016
0.016
0.016
0.016
0.016
0.016
0.016
0.016
0.016
0.016
0.016
0.016
0.016
0.0160002
0.0160011
0.0160034
0.0160074
0.0160134
0.0160219
0.0160337
0.0160501
0.0160731
0.0161019
0.0160944
0.0160925
0.0160902
0.016086
0.0160818
0.0160767
0.016074
0.0160724
0.0160718
0.0160721
0.0160731
0.0160747
0.0160767
0.0160788
0.0160807
0.0160823
0.0160832
0.0160837
0.0160839
0.0160838
0.0160837
0.0160834
0.0160832
0.0160829
0.0160825
0.0160822
0.0160819
0.0160816
0.0160813
0.016081
0.0160807
0.0160804
0.0160802
0.0160799
0.0160796
0.0160794
0.0160791
0.0160789
0.0160786
0.0160784
0.0160782
0.016078
0.0160779
0.0160778
0.0160777
0.0160777
0.016
0.016
0.016
0.016
0.016
0.016
0.016
0.016
0.016
0.016
0.016
0.016
0.016
0.016
0.016
0.016
0.016
0.016
0.016
0.016
0.016
0.016
0.016
0.016
0.016
0.016
0.0160013
0.0160058
0.0160146
0.0160266
0.0160408
0.0160565
0.0160737
0.0160924
0.0161127
0.0161296
0.016096
0.0160952
0.0160944
0.0160935
0.0160927
0.0160919
0.0160912
0.0160906
0.01609
0.0160894
0.0160889
0.0160882
0.0160876
0.016087
0.0160863
0.0160856
0.0160849
0.0160841
0.0160834
0.0160827
0.016082
0.0160813
0.0160807
0.0160801
0.0160796
0.0160791
0.0160787
0.0160783
0.0160779
0.0160776
0.0160773
0.016077
0.0160767
0.0160765
0.0160763
0.0160762
0.016076
0.0160759
0.0160759
0.0160758
0.0160758
0.0160758
0.0160759
0.016076
0.0160761
0.0160763
0.016
0.016
0.016
0.016
0.016
0.016
0.016
0.016
0.016
0.016
0.016
0.016
0.016
0.016
0.016
0.016
0.016
0.016
0.016
0.016
0.016
0.016
0.016
0.016
0.016
0.0160002
0.0160067
0.016023
0.0160459
0.01607
0.016092
0.0161113