/*--------------------------------*- C++ -*----------------------------------*\
| =========                 |                                                 |
| \\      /  F ield         | OpenFOAM: The Open Source CFD Toolbox           |
|  \\    /   O peration     | Version:  v2012                                 |
|   \\  /    A nd           | Website:  www.openfoam.com                      |
|    \\/     M anipulation  |                                                 |
\*---------------------------------------------------------------------------*/
FoamFile
{
    version     2.0;
    format      ascii;
    class       volScalarField;
    location    "500/air";
    object      T;
}
// * * * * * * * * * * * * * * * * * * * * * * * * * * * * * * * * * * * * * //

dimensions      [0 0 0 1 0 0 0];


internalField   nonuniform List<scalar> 
287104
(
310.32
310.618
310.885
311.129
311.353
311.562
311.758
311.941
312.115
312.279
312.435
312.585
312.728
312.865
312.998
313.125
313.249
313.369
313.486
313.6
313.711
313.819
313.925
314.028
314.13
314.23
314.328
314.424
314.519
314.613
314.705
314.795
314.885
314.973
315.06
315.146
315.231
315.314
315.397
315.479
315.56
315.639
315.718
315.796
315.873
315.95
316.025
316.1
316.173
316.246
316.318
316.389
316.459
316.529
316.597
316.665
316.732
316.798
316.864
316.928
316.992
317.055
317.117
317.179
317.24
317.3
317.359
317.418
317.476
317.533
317.59
317.646
317.701
317.756
317.811
317.864
317.918
317.971
318.023
318.075
318.126
318.178
318.229
318.279
318.33
318.381
318.432
318.484
318.541
318.606
310.316
310.61
310.873
311.113
311.335
311.54
311.733
311.914
312.084
312.246
312.399
312.546
312.687
312.822
312.951
313.077
313.198
313.316
313.43
313.541
313.65
313.756
313.859
313.961
314.06
314.157
314.253
314.347
314.44
314.531
314.62
314.708
314.795
314.881
314.966
315.049
315.132
315.213
315.294
315.373
315.452
315.529
315.606
315.681
315.756
315.83
315.903
315.975
316.047
316.117
316.187
316.256
316.324
316.391
316.458
316.524
316.589
316.653
316.716
316.779
316.841
316.902
316.962
317.022
317.081
317.139
317.197
317.253
317.31
317.365
317.42
317.475
317.528
317.582
317.634
317.687
317.738
317.789
317.84
317.891
317.941
317.991
318.04
318.089
318.139
318.188
318.238
318.289
318.343
318.408
310.311
310.601
310.861
311.098
311.317
311.52
311.709
311.888
312.056
312.215
312.367
312.511
312.65
312.783
312.911
313.034
313.154
313.27
313.382
313.492
313.599
313.703
313.805
313.904
314.002
314.098
314.192
314.284
314.375
314.464
314.552
314.638
314.724
314.808
314.891
314.972
315.053
315.133
315.211
315.289
315.366
315.441
315.516
315.59
315.663
315.735
315.806
315.876
315.946
316.014
316.082
316.149
316.215
316.281
316.345
316.409
316.472
316.534
316.595
316.656
316.715
316.774
316.833
316.89
316.947
317.003
317.058
317.113
317.167
317.22
317.273
317.325
317.377
317.428
317.478
317.528
317.578
317.627
317.675
317.723
317.771
317.819
317.866
317.913
317.96
318.007
318.054
318.103
318.156
318.218
310.307
310.593
310.85
311.083
311.299
311.499
311.686
311.862
312.028
312.185
312.335
312.478
312.614
312.745
312.872
312.994
313.111
313.226
313.337
313.445
313.55
313.653
313.753
313.852
313.948
314.042
314.135
314.226
314.315
314.403
314.49
314.575
314.659
314.742
314.824
314.904
314.983
315.062
315.139
315.215
315.291
315.365
315.439
315.511
315.583
315.654
315.724
315.793
315.861
315.929
315.995
316.061
316.126
316.19
316.254
316.316
316.378
316.439
316.499
316.558
316.617
316.675
316.732
316.789
316.844
316.899
316.954
317.008
317.061
317.113
317.165
317.217
317.268
317.318
317.368
317.417
317.466
317.515
317.563
317.611
317.659
317.707
317.754
317.802
317.849
317.897
317.945
317.995
318.049
318.112
310.303
310.585
310.838
311.068
311.281
311.479
311.663
311.837
312.001
312.156
312.303
312.444
312.579
312.708
312.833
312.953
313.07
313.182
313.292
313.399
313.502
313.604
313.703
313.8
313.895
313.988
314.079
314.169
314.257
314.344
314.429
314.513
314.595
314.677
314.757
314.836
314.914
314.991
315.067
315.142
315.216
315.289
315.361
315.432
315.503
315.572
315.64
315.708
315.775
315.84
315.905
315.97
316.033
316.095
316.157
316.218
316.278
316.337
316.396
316.453
316.51
316.567
316.622
316.677
316.731
316.784
316.837
316.889
316.941
316.992
317.042
317.092
317.141
317.19
317.239
317.286
317.334
317.381
317.428
317.475
317.521
317.567
317.613
317.659
317.704
317.75
317.796
317.843
317.894
317.954
310.299
310.577
310.827
311.054
311.264
311.459
311.641
311.812
311.974
312.127
312.272
312.411
312.544
312.672
312.795
312.914
313.029
313.14
313.248
313.353
313.456
313.556
313.654
313.749
313.843
313.935
314.025
314.113
314.2
314.285
314.369
314.452
314.533
314.613
314.692
314.769
314.846
314.921
314.996
315.069
315.141
315.212
315.282
315.352
315.42
315.487
315.553
315.618
315.683
315.746
315.808
315.87
315.93
315.99
316.048
316.106
316.163
316.219
316.274
316.328
316.381
316.434
316.485
316.536
316.586
316.635
316.683
316.731
316.777
316.823
316.868
316.912
316.956
316.998
317.04
317.081
317.122
317.161
317.2
317.238
317.275
317.312
317.347
317.381
317.414
317.446
317.477
317.508
317.543
317.585
310.295
310.569
310.815
311.04
311.246
311.439
311.619
311.788
311.947
312.098
312.242
312.379
312.51
312.637
312.758
312.875
312.989
313.099
313.206
313.31
313.411
313.51
313.606
313.7
313.793
313.883
313.972
314.059
314.144
314.228
314.31
314.391
314.47
314.548
314.625
314.7
314.774
314.847
314.918
314.988
315.057
315.125
315.191
315.256
315.318
315.379
315.439
315.497
315.553
315.608
315.662
315.715
315.766
315.816
315.865
315.913
315.959
316.005
316.049
316.092
316.134
316.175
316.215
316.254
316.291
316.328
316.363
316.397
316.429
316.461
316.49
316.519
316.546
316.572
316.595
316.618
316.638
316.658
316.675
316.69
316.704
316.716
316.726
316.734
316.741
316.747
316.754
316.765
316.788
316.817
310.291
310.561
310.804
311.025
311.229
311.419
311.597
311.763
311.921
312.07
312.212
312.347
312.477
312.601
312.721
312.837
312.95
313.058
313.164
313.267
313.367
313.465
313.56
313.654
313.745
313.834
313.921
314.006
314.09
314.171
314.251
314.329
314.404
314.477
314.548
314.616
314.681
314.745
314.806
314.865
314.922
314.976
315.029
315.08
315.128
315.175
315.22
315.262
315.303
315.342
315.379
315.414
315.447
315.477
315.505
315.531
315.555
315.578
315.598
315.616
315.632
315.646
315.658
315.668
315.676
315.682
315.687
315.689
315.69
315.689
315.685
315.68
315.674
315.665
315.655
315.643
315.629
315.614
315.597
315.578
315.559
315.537
315.516
315.493
315.471
315.45
315.43
315.414
315.413
315.433
310.287
310.554
310.793
311.011
311.213
311.4
311.575
311.74
311.895
312.042
312.182
312.316
312.445
312.57
312.69
312.807
312.921
313.032
313.14
313.245
313.347
313.447
313.544
313.638
313.729
313.815
313.898
313.977
314.052
314.124
314.192
314.258
314.32
314.379
314.435
314.487
314.537
314.583
314.627
314.668
314.706
314.742
314.775
314.805
314.833
314.858
314.88
314.899
314.916
314.93
314.941
314.951
314.959
314.966
314.97
314.972
314.973
314.972
314.97
314.966
314.96
314.953
314.945
314.935
314.924
314.912
314.899
314.885
314.869
314.853
314.836
314.818
314.799
314.779
314.759
314.739
314.718
314.696
314.674
314.652
314.629
314.606
314.584
314.562
314.541
314.521
314.503
314.488
314.482
314.49
310.283
310.546
310.782
310.997
311.196
311.381
311.554
311.716
311.869
312.015
312.157
312.3
312.444
312.588
312.732
312.874
313.013
313.15
313.282
313.411
313.534
313.653
313.768
313.877
313.98
314.076
314.167
314.253
314.334
314.41
314.483
314.552
314.618
314.683
314.746
314.808
314.868
314.926
314.981
315.034
315.084
315.13
315.173
315.213
315.248
315.28
315.309
315.335
315.358
315.378
315.396
315.41
315.422
315.431
315.437
315.44
315.44
315.437
315.432
315.424
315.413
315.4
315.385
315.367
315.347
315.325
315.301
315.276
315.248
315.219
315.189
315.157
315.124
315.09
315.055
315.02
314.984
314.947
314.909
314.87
314.823
314.774
314.724
314.676
314.629
314.587
314.548
314.517
314.497
314.495
310.279
310.539
310.771
310.984
311.18
311.362
311.533
311.693
311.845
311.992
312.267
312.561
312.857
313.15
313.434
313.709
313.97
314.218
314.45
314.664
314.861
315.039
315.198
315.34
315.464
315.573
315.667
315.75
315.822
315.887
315.947
316.002
316.054
316.103
316.15
316.196
316.243
316.288
316.334
316.381
316.428
316.477
316.525
316.574
316.622
316.669
316.716
316.762
316.806
316.848
316.888
316.926
316.962
316.995
317.025
317.052
317.076
317.096
317.113
317.126
317.134
317.139
317.14
317.136
317.129
317.117
317.101
317.081
317.057
317.029
316.997
316.962
316.924
316.883
316.839
316.792
316.743
316.692
316.636
316.53
316.354
316.192
316.043
315.904
315.775
315.658
315.553
315.463
315.398
315.368
310.275
310.531
310.761
310.97
311.164
311.343
311.512
311.67
311.82
311.965
312.234
312.522
312.813
313.101
313.383
313.656
313.917
314.166
314.399
314.616
314.816
314.997
315.159
315.303
315.429
315.538
315.632
315.713
315.783
315.845
315.9
315.951
315.999
316.046
316.093
316.141
316.19
316.241
316.292
316.345
316.401
316.459
316.519
316.58
316.643
316.706
316.772
316.838
316.905
316.974
317.044
317.115
317.187
317.26
317.334
317.409
317.484
317.559
317.634
317.709
317.782
317.854
317.923
317.99
318.053
318.112
318.166
318.214
318.255
318.289
318.315
318.333
318.342
318.341
318.332
318.313
318.286
318.25
318.206
318.146
318.032
317.886
317.724
317.556
317.39
317.229
317.077
316.938
316.818
316.722
310.271
310.524
310.75
310.957
311.148
311.325
311.491
311.647
311.795
311.939
312.203
312.486
312.773
313.057
313.335
313.604
313.862
314.106
314.337
314.55
314.747
314.924
315.082
315.222
315.343
315.446
315.534
315.608
315.671
315.725
315.772
315.815
315.854
315.892
315.93
315.969
316.009
316.05
316.091
316.134
316.178
316.224
316.272
316.319
316.366
316.414
316.462
316.51
316.558
316.606
316.654
316.702
316.75
316.798
316.846
316.894
316.942
316.991
317.041
317.092
317.143
317.196
317.25
317.306
317.363
317.421
317.482
317.543
317.607
317.672
317.738
317.805
317.874
317.943
318.012
318.081
318.149
318.216
318.281
318.338
318.356
318.345
318.315
318.272
318.222
318.168
318.111
318.055
318.008
317.973
310.267
310.517
310.74
310.944
311.132
311.307
311.471
311.625
311.771
311.912
312.173
312.452
312.734
313.013
313.287
313.552
313.806
314.047
314.274
314.484
314.678
314.852
315.008
315.145
315.264
315.365
315.451
315.523
315.584
315.636
315.681
315.721
315.758
315.794
315.83
315.866
315.905
315.943
315.982
316.022
316.064
316.107
316.153
316.197
316.24
316.284
316.327
316.37
316.412
316.453
316.493
316.532
316.569
316.602
316.634
316.664
316.692
316.719
316.745
316.769
316.792
316.814
316.834
316.853
316.87
316.886
316.9
316.914
316.926
316.936
316.946
316.955
316.963
316.971
316.979
316.986
316.994
316.999
316.999
316.958
316.868
316.795
316.739
316.699
316.673
316.663
316.671
316.698
316.738
316.787
310.264
310.509
310.73
310.931
311.116
311.289
311.45
311.603
311.746
311.886
312.143
312.417
312.695
312.97
313.239
313.5
313.751
313.988
314.212
314.419
314.61
314.782
314.935
315.07
315.186
315.285
315.37
315.441
315.5
315.551
315.596
315.635
315.672
315.707
315.742
315.779
315.818
315.857
315.896
315.936
315.978
316.022
316.069
316.114
316.158
316.202
316.247
316.29
316.333
316.376
316.417
316.457
316.496
316.534
316.571
316.606
316.641
316.675
316.707
316.738
316.767
316.794
316.821
316.846
316.871
316.894
316.916
316.937
316.956
316.974
316.989
317.003
317.015
317.024
317.031
317.035
317.036
317.033
317.02
316.963
316.857
316.762
316.677
316.6
316.53
316.467
316.414
316.374
316.363
316.405
310.26
310.502
310.72
310.918
311.101
311.271
311.43
311.581
311.722
311.86
312.113
312.383
312.656
312.927
313.192
313.449
313.696
313.93
314.15
314.354
314.542
314.711
314.862
314.994
315.109
315.206
315.289
315.359
315.418
315.469
315.513
315.553
315.59
315.625
315.661
315.699
315.739
315.78
315.82
315.863
315.907
315.953
316.002
316.05
316.097
316.144
316.19
316.237
316.283
316.329
316.373
316.417
316.459
316.501
316.542
316.582
316.622
316.661
316.7
316.739
316.778
316.817
316.856
316.896
316.936
316.976
317.017
317.059
317.101
317.145
317.189
317.234
317.28
317.328
317.377
317.428
317.48
317.533
317.587
317.639
317.666
317.675
317.675
317.671
317.667
317.664
317.665
317.67
317.686
317.72
310.256
310.495
310.71
310.905
311.086
311.254
311.411
311.559
311.699
311.835
312.083
312.349
312.618
312.885
313.146
313.399
313.641
313.872
314.088
314.289
314.474
314.64
314.788
314.919
315.031
315.127
315.209
315.278
315.337
315.388
315.433
315.474
315.512
315.549
315.587
315.627
315.669
315.712
315.755
315.8
315.847
315.897
315.949
316.001
316.051
316.101
316.152
316.202
316.252
316.301
316.349
316.396
316.442
316.487
316.532
316.576
316.621
316.665
316.709
316.754
316.799
316.845
316.892
316.939
316.987
317.036
317.086
317.136
317.188
317.241
317.294
317.348
317.402
317.457
317.511
317.565
317.618
317.67
317.721
317.764
317.776
317.761
317.726
317.678
317.621
317.559
317.496
317.433
317.378
317.335
310.253
310.488
310.7
310.893
311.071
311.236
311.391
311.537
311.675
311.81
312.054
312.315
312.58
312.843
313.1
313.349
313.588
313.815
314.028
314.225
314.406
314.569
314.714
314.841
314.951
315.045
315.124
315.192
315.251
315.302
315.348
315.389
315.429
315.467
315.505
315.546
315.59
315.634
315.678
315.724
315.773
315.824
315.878
315.931
315.983
316.035
316.088
316.139
316.19
316.24
316.287
316.332
316.376
316.418
316.46
316.5
316.54
316.579
316.618
316.656
316.694
316.732
316.77
316.807
316.844
316.88
316.916
316.951
316.984
317.017
317.047
317.076
317.102
317.125
317.146
317.163
317.176
317.185
317.188
317.176
317.12
317.035
316.935
316.829
316.721
316.615
316.513
316.42
316.34
316.281
310.249
310.482
310.69
310.88
311.056
311.219
311.372
311.516
311.652
311.784
312.025
312.282
312.543
312.802
313.055
313.3
313.534
313.756
313.964
314.155
314.329
314.484
314.621
314.739
314.839
314.924
314.996
315.056
315.109
315.155
315.197
315.235
315.272
315.307
315.343
315.381
315.422
315.464
315.506
315.552
315.601
315.653
315.71
315.767
315.823
315.88
315.936
315.992
316.045
316.095
316.141
316.183
316.221
316.257
316.289
316.319
316.347
316.372
316.395
316.416
316.435
316.453
316.469
316.483
316.497
316.508
316.518
316.527
316.533
316.538
316.54
316.54
316.538
316.533
316.525
316.514
316.5
316.48
316.442
316.347
316.199
316.062
315.935
315.817
315.706
315.605
315.512
315.432
315.375
315.355
310.246
310.475
310.68
310.868
311.041
311.202
311.353
311.495
311.629
311.76
311.998
312.254
312.512
312.765
313.01
313.242
313.458
313.656
313.834
313.992
314.129
314.246
314.345
314.428
314.497
314.555
314.605
314.649
314.689
314.727
314.763
314.799
314.833
314.868
314.904
314.942
314.983
315.027
315.072
315.122
315.177
315.238
315.306
315.375
315.446
315.519
315.593
315.666
315.737
315.802
315.862
315.914
315.959
315.996
316.027
316.05
316.06
316.061
316.056
316.046
316.034
316.019
316.004
315.988
315.971
315.953
315.935
315.917
315.897
315.877
315.855
315.832
315.807
315.782
315.754
315.725
315.693
315.658
315.613
315.523
315.388
315.27
315.166
315.071
314.985
314.906
314.836
314.775
314.732
314.715
310.242
310.468
310.671
310.856
311.027
311.185
311.334
311.474
311.606
311.731
311.851
311.967
312.079
312.188
312.293
312.397
312.497
312.594
312.689
312.78
312.869
312.955
313.038
313.119
313.197
313.272
313.346
313.417
313.486
313.554
313.62
313.685
313.748
313.809
313.87
313.929
313.988
314.046
314.104
314.16
314.217
314.274
314.332
314.389
314.445
314.499
314.551
314.601
314.646
314.688
314.725
314.758
314.787
314.811
314.832
314.849
314.862
314.872
314.878
314.882
314.883
314.881
314.878
314.872
314.865
314.856
314.846
314.834
314.821
314.807
314.792
314.776
314.759
314.741
314.723
314.703
314.683
314.662
314.639
314.614
314.585
314.554
314.522
314.489
314.458
314.427
314.399
314.374
314.36
314.362
310.239
310.462
310.662
310.844
311.012
311.169
311.316
311.453
311.584
311.707
311.825
311.937
312.045
312.149
312.249
312.346
312.439
312.53
312.618
312.703
312.786
312.867
312.945
313.022
313.096
313.169
313.24
313.309
313.377
313.444
313.51
313.576
313.64
313.703
313.764
313.826
313.887
313.946
314.004
314.062
314.118
314.174
314.23
314.283
314.335
314.384
314.432
314.477
314.519
314.558
314.593
314.625
314.654
314.679
314.702
314.722
314.739
314.754
314.766
314.776
314.783
314.789
314.792
314.794
314.794
314.793
314.79
314.785
314.78
314.773
314.765
314.755
314.745
314.734
314.722
314.708
314.694
314.679
314.663
314.645
314.627
314.609
314.591
314.573
314.557
314.542
314.53
314.521
314.522
314.539
310.236
310.455
310.652
310.832
310.998
311.152
311.297
311.433
311.561
311.683
311.799
311.91
312.016
312.118
312.216
312.311
312.402
312.491
312.578
312.662
312.744
312.824
312.902
312.978
313.052
313.125
313.197
313.267
313.336
313.405
313.472
313.539
313.605
313.67
313.734
313.797
313.859
313.921
313.981
314.041
314.101
314.16
314.22
314.279
314.337
314.396
314.454
314.512
314.568
314.623
314.677
314.728
314.778
314.825
314.868
314.909
314.947
314.983
315.016
315.047
315.075
315.102
315.127
315.149
315.171
315.19
315.208
315.225
315.24
315.253
315.266
315.277
315.286
315.295
315.302
315.309
315.314
315.318
315.322
315.324
315.326
315.327
315.328
315.328
315.328
315.328
315.329
315.334
315.349
315.367
310.232
310.449
310.643
310.82
310.984
311.136
311.279
311.413
311.539
311.659
311.773
311.883
311.987
312.088
312.184
312.278
312.368
312.456
312.541
312.624
312.705
312.784
312.861
312.936
313.01
313.082
313.153
313.223
313.292
313.36
313.427
313.493
313.559
313.624
313.688
313.751
313.814
313.875
313.935
313.993
314.05
314.105
314.16
314.215
314.269
314.323
314.377
314.431
314.484
314.536
314.586
314.635
314.682
314.728
314.772
314.813
314.853
314.89
314.925
314.957
314.987
315.014
315.039
315.062
315.083
315.101
315.118
315.132
315.146
315.158
315.168
315.178
315.187
315.196
315.204
315.211
315.219
315.227
315.234
315.242
315.251
315.26
315.269
315.279
315.291
315.303
315.316
315.331
315.349
315.374
310.229
310.442
310.634
310.808
310.97
311.12
311.26
311.392
311.517
311.635
311.748
311.855
311.959
312.058
312.153
312.245
312.334
312.421
312.505
312.586
312.666
312.744
312.82
312.894
312.967
313.039
313.109
313.178
313.246
313.314
313.381
313.447
313.513
313.577
313.641
313.704
313.766
313.827
313.882
313.932
313.975
314.013
314.048
314.081
314.113
314.144
314.177
314.208
314.24
314.27
314.299
314.325
314.349
314.37
314.387
314.402
314.414
314.423
314.431
314.436
314.44
314.443
314.445
314.447
314.449
314.451
314.453
314.457
314.461
314.466
314.471
314.478
314.486
314.495
314.505
314.516
314.528
314.541
314.555
314.57
314.586
314.604
314.623
314.643
314.664
314.687
314.712
314.739
314.77
314.807
310.226
310.436
310.624
310.797
310.956
311.104
311.242
311.372
311.495
311.612
311.723
311.829
311.93
312.028
312.122
312.213
312.301
312.386
312.469
312.55
312.628
312.705
312.78
312.854
312.926
312.997
313.066
313.135
313.203
313.27
313.336
313.403
313.468
313.533
313.597
313.66
313.721
313.777
313.817
313.832
313.823
313.801
313.773
313.744
313.717
313.692
313.67
313.651
313.633
313.617
313.605
313.593
313.584
313.576
313.57
313.567
313.566
313.567
313.57
313.575
313.582
313.591
313.601
313.612
313.625
313.639
313.654
313.669
313.686
313.703
313.722
313.74
313.76
313.78
313.8
313.821
313.842
313.864
313.886
313.909
313.932
313.956
313.981
314.006
314.032
314.06
314.088
314.118
314.151
314.19
310.222
310.43
310.615
310.785
310.942
311.088
311.224
311.353
311.474
311.589
311.698
311.803
311.903
311.999
312.092
312.182
312.269
312.353
312.434
312.514
312.592
312.668
312.742
312.814
312.886
312.956
313.025
313.093
313.161
313.228
313.295
313.361
313.427
313.492
313.556
313.619
313.68
313.713
313.671
313.566
313.427
313.29
313.176
313.082
313.008
312.953
312.913
312.885
312.867
312.857
312.853
312.856
312.864
312.876
312.891
312.909
312.928
312.949
312.97
312.993
313.016
313.039
313.062
313.086
313.11
313.134
313.158
313.182
313.207
313.231
313.256
313.281
313.305
313.33
313.355
313.379
313.404
313.428
313.452
313.476
313.5
313.525
313.55
313.576
313.603
313.631
313.66
313.69
313.722
313.759
310.219
310.424
310.607
310.774
310.929
311.073
311.207
311.334
311.454
311.567
311.675
311.779
311.877
311.972
312.064
312.153
312.238
312.321
312.402
312.481
312.558
312.633
312.706
312.778
312.849
312.919
312.987
313.056
313.123
313.19
313.257
313.323
313.39
313.456
313.522
313.586
313.642
313.605
313.373
313.063
312.794
312.609
312.484
312.409
312.37
312.357
312.36
312.374
312.394
312.418
312.445
312.473
312.502
312.531
312.56
312.589
312.617
312.645
312.672
312.699
312.726
312.752
312.778
312.803
312.828
312.853
312.877
312.901
312.925
312.949
312.973
312.996
313.02
313.043
313.066
313.089
313.112
313.135
313.158
313.181
313.204
313.228
313.251
313.275
313.3
313.326
313.353
313.383
313.418
313.456
310.217
310.418
310.599
310.765
310.917
311.059
311.192
311.318
311.436
311.548
311.655
311.757
311.854
311.948
312.039
312.127
312.211
312.294
312.374
312.452
312.528
312.602
312.675
312.747
312.817
312.887
312.955
313.023
313.09
313.158
313.225
313.292
313.36
313.427
313.495
313.56
313.59
313.423
312.844
312.401
312.128
311.99
311.949
311.951
311.978
312.019
312.067
312.115
312.163
312.208
312.249
312.287
312.323
312.355
312.386
312.415
312.443
312.469
312.493
312.517
312.541
312.564
312.588
312.611
312.634
312.658
312.681
312.704
312.727
312.75
312.773
312.796
312.819
312.841
312.863
312.885
312.907
312.929
312.95
312.972
312.993
313.015
313.037
313.06
313.083
313.108
313.133
313.162
313.196
313.237
310.214
310.414
310.593
310.757
310.908
311.048
311.18
311.304
311.421
311.532
311.638
311.739
311.835
311.929
312.018
312.105
312.189
312.271
312.35
312.428
312.504
312.578
312.651
312.722
312.792
312.862
312.93
312.998
313.066
313.134
313.202
313.27
313.339
313.408
313.477
313.544
313.575
313.397
312.722
312.204
311.869
311.681
311.68
311.711
311.758
311.815
311.876
311.935
311.992
312.044
312.091
312.135
312.174
312.21
312.241
312.27
312.298
312.324
312.349
312.374
312.399
312.424
312.448
312.472
312.496
312.52
312.544
312.568
312.591
312.614
312.637
312.659
312.682
312.703
312.725
312.746
312.767
312.788
312.809
312.83
312.851
312.872
312.893
312.915
312.938
312.962
312.988
313.016
313.051
313.093
310.213
310.411
310.588
310.751
310.901
311.04
311.171
311.294
311.41
311.52
311.625
311.725
311.822
311.914
312.003
312.09
312.173
312.255
312.334
312.411
312.487
312.561
312.634
312.705
312.776
312.846
312.915
312.983
313.052
313.12
313.189
313.258
313.328
313.397
313.465
313.53
313.565
313.398
312.678
312.111
311.725
311.491
311.523
311.576
311.638
311.705
311.771
311.836
311.896
311.952
312.004
312.051
312.092
312.129
312.163
312.195
312.225
312.253
312.281
312.308
312.334
312.359
312.385
312.409
312.434
312.458
312.482
312.505
312.528
312.55
312.572
312.593
312.615
312.635
312.656
312.676
312.696
312.716
312.736
312.756
312.777
312.798
312.82
312.843
312.867
312.892
312.92
312.95
312.987
313.033
310.212
310.409
310.585
310.747
310.896
311.035
311.165
311.287
311.403
311.513
311.617
311.718
311.813
311.906
311.995
312.081
312.164
312.246
312.325
312.402
312.478
312.552
312.625
312.697
312.768
312.839
312.909
312.978
313.047
313.117
313.186
313.256
313.324
313.389
313.447
313.497
313.535
313.4
312.714
312.15
311.756
311.507
311.549
311.61
311.676
311.743
311.807
311.867
311.922
311.974
312.022
312.066
312.106
312.143
312.178
312.211
312.242
312.272
312.301
312.329
312.356
312.382
312.407
312.432
312.456
312.479
312.502
312.524
312.546
312.566
312.587
312.607
312.626
312.645
312.664
312.683
312.701
312.721
312.74
312.76
312.781
312.803
312.827
312.852
312.878
312.907
312.939
312.975
313.019
313.067
310.211
310.408
310.584
310.745
310.894
311.033
311.162
311.285
311.4
311.51
311.614
311.714
311.81
311.902
311.991
312.078
312.161
312.243
312.322
312.4
312.476
312.551
312.624
312.697
312.769
312.84
312.91
312.98
313.05
313.12
313.188
313.253
313.312
313.359
313.387
313.395
313.42
313.441
313.208
312.906
312.58
312.3
312.259
312.234
312.218
312.21
312.208
312.212
312.22
312.232
312.248
312.267
312.288
312.31
312.333
312.357
312.382
312.407
312.431
312.455
312.479
312.503
312.526
312.549
312.571
312.592
312.613
312.633
312.653
312.672
312.69
312.708
312.726
312.743
312.76
312.778
312.796
312.815
312.835
312.857
312.88
312.905
312.933
312.963
312.997
313.034
313.074
313.115
313.16
313.212
310.211
310.408
310.584
310.745
310.894
311.032
311.162
311.284
311.4
311.509
311.614
311.714
311.81
311.902
311.991
312.078
312.162
312.243
312.323
312.401
312.478
312.553
312.627
312.701
312.773
312.845
312.916
312.986
313.055
313.12
313.179
313.228
313.26
313.263
313.228
313.169
313.171
313.198
313.045
312.905
312.765
312.634
312.701
312.759
312.798
312.816
312.815
312.795
312.765
312.73
312.697
312.668
312.647
312.632
312.625
312.625
312.63
312.64
312.653
312.67
312.688
312.709
312.731
312.754
312.777
312.8
312.822
312.844
312.866
312.887
312.907
312.927
312.946
312.965
312.984
313.003
313.023
313.045
313.067
313.092
313.117
313.144
313.174
313.207
313.243
313.284
313.33
313.383
313.444
313.519
310.211
310.408
310.584
310.746
310.894
311.033
311.163
311.285
311.401
311.51
311.615
311.715
311.811
311.903
311.992
312.079
312.163
312.245
312.325
312.403
312.48
312.556
312.631
312.705
312.778
312.851
312.921
312.987
313.046
313.095
313.13
313.141
313.12
313.055
312.948
312.852
312.876
312.925
312.753
312.601
312.474
312.372
312.51
312.64
312.745
312.833
312.901
312.946
312.969
312.973
312.964
312.948
312.929
312.913
312.902
312.894
312.891
312.894
312.903
312.917
312.935
312.958
312.984
313.012
313.042
313.073
313.104
313.136
313.167
313.198
313.228
313.257
313.285
313.313
313.341
313.368
313.397
313.426
313.457
313.491
313.528
313.568
313.614
313.665
313.723
313.79
313.875
313.979
314.1
314.24
310.211
310.408
310.585
310.746
310.895
311.034
311.164
311.287
311.402
311.512
311.617
311.717
311.813
311.905
311.994
312.081
312.165
312.247
312.327
312.406
312.483
312.559
312.634
312.709
312.782
312.854
312.918
312.967
312.996
313.001
312.981
312.933
312.853
312.739
312.613
312.571
312.68
312.815
312.606
312.418
312.277
312.194
312.544
312.855
313.097
313.238
313.303
313.324
313.318
313.297
313.268
313.239
313.213
313.193
313.181
313.178
313.185
313.201
313.225
313.256
313.294
313.335
313.378
313.422
313.466
313.509
313.552
313.594
313.635
313.676
313.716
313.757
313.797
313.838
313.88
313.922
313.965
314.009
314.055
314.102
314.151
314.2
314.249
314.296
314.34
314.378
314.402
314.412
314.411
314.403
310.212
310.409
310.585
310.747
310.896
311.035
311.165
311.288
311.403
311.513
311.618
311.718
311.814
311.907
311.996
312.083
312.167
312.249
312.33
312.408
312.486
312.562
312.638
312.712
312.785
312.849
312.875
312.861
312.809
312.735
312.656
312.572
312.487
312.404
312.353
312.441
313.933
313.673
313.484
313.386
313.337
313.333
313.348
313.359
313.367
313.372
313.372
313.367
313.356
313.341
313.319
313.294
313.27
313.252
313.243
313.242
313.247
313.259
313.277
313.299
313.324
313.352
313.383
313.415
313.449
313.483
313.517
313.55
313.582
313.612
313.639
313.663
313.683
313.7
313.712
313.72
313.724
313.724
313.721
313.716
313.712
313.711
310.212
310.409
310.586
310.747
310.896
311.035
311.165
311.288
311.404
311.514
311.618
311.719
311.815
311.908
311.997
312.084
312.168
312.251
312.331
312.41
312.488
312.565
312.64
312.715
312.785
312.805
312.722
312.57
312.413
312.297
312.209
312.157
312.137
312.149
312.221
312.453
313.567
313.251
313.071
312.968
312.903
312.861
312.829
312.802
312.778
312.755
312.731
312.713
312.712
312.712
312.711
312.713
312.718
312.727
312.74
312.756
312.775
312.796
312.82
312.845
312.872
312.9
312.928
312.957
312.985
313.014
313.041
313.068
313.093
313.117
313.139
313.159
313.177
313.193
313.207
313.219
313.23
313.239
313.247
313.256
313.267
313.282
310.212
310.409
310.585
310.747
310.896
311.035
311.165
311.287
311.403
311.513
311.618
311.718
311.814
311.907
311.997
312.084
312.168
312.25
312.331
312.41
312.488
312.565
312.641
312.715
312.764
312.671
312.315
312.016
311.834
311.757
311.761
311.803
311.874
311.976
312.148
312.52
313.399
313.021
312.817
312.687
312.595
312.526
312.472
312.433
312.405
312.387
312.374
312.375
312.385
312.396
312.406
312.418
312.433
312.45
312.469
312.489
312.512
312.535
312.559
312.585
312.61
312.636
312.662
312.688
312.713
312.738
312.762
312.786
312.808
312.829
312.849
312.868
312.885
312.901
312.916
312.931
312.944
312.957
312.97
312.984
313.004
313.029
310.212
310.408
310.585
310.746
310.896
311.034
311.164
311.287
311.403
311.512
311.617
311.717
311.813
311.906
311.996
312.082
312.167
312.249
312.33
312.409
312.487
312.564
312.64
312.714
312.759
312.652
312.186
311.801
311.545
311.412
311.467
311.55
311.661
311.809
312.043
312.522
313.311
312.91
312.693
312.54
312.431
312.348
312.285
312.242
312.215
312.2
312.197
312.204
312.215
312.229
312.243
312.26
312.278
312.298
312.318
312.338
312.36
312.381
312.403
312.425
312.447
312.469
312.491
312.512
312.534
312.555
312.576
312.596
312.616
312.635
312.653
312.671
312.688
312.705
312.722
312.738
312.755
312.771
312.789
312.808
312.831
312.859
310.211
310.408
310.585
310.746
310.895
311.034
311.164
311.286
311.402
311.512
311.616
311.716
311.813
311.905
311.995
312.081
312.166
312.248
312.329
312.408
312.486
312.563
312.638
312.712
312.757
312.646
312.103
311.649
311.33
311.136
311.225
311.334
311.465
311.63
311.882
312.395
313.319
312.876
312.643
312.517
312.411
312.319
312.245
312.199
312.17
312.158
312.157
312.163
312.175
312.19
312.207
312.225
312.245
312.265
312.285
312.304
312.323
312.341
312.359
312.377
312.395
312.413
312.43
312.447
312.464
312.482
312.499
312.516
312.532
312.549
312.566
312.583
312.6
312.617
312.634
312.651
312.669
312.687
312.707
312.728
312.752
312.781
310.211
310.408
310.585
310.746
310.895
311.034
311.164
311.286
311.401
311.511
311.616
311.716
311.812
311.905
311.994
312.081
312.165
312.247
312.328
312.407
312.484
312.561
312.637
312.71
312.758
312.657
312.107
311.643
311.31
311.096
311.196
311.311
311.438
311.588
311.809
312.253
313.417
312.978
312.715
312.617
312.5
312.39
312.3