/*--------------------------------*- C++ -*----------------------------------*\
| =========                 |                                                 |
| \\      /  F ield         | OpenFOAM: The Open Source CFD Toolbox           |
|  \\    /   O peration     | Version:  v2012                                 |
|   \\  /    A nd           | Website:  www.openfoam.com                      |
|    \\/     M anipulation  |                                                 |
\*---------------------------------------------------------------------------*/
FoamFile
{
    version     2.0;
    format      ascii;
    class       volScalarField;
    location    "400/air";
    object      alphat;
}
// * * * * * * * * * * * * * * * * * * * * * * * * * * * * * * * * * * * * * //

dimensions      [1 -1 -1 0 0 0 0];


internalField   nonuniform List<scalar> 
287104
(
0.00647909
0.0060022
0.00563539
0.00534292
0.00510411
0.00490564
0.00473834
0.00459561
0.00447261
0.00436567
0.00427197
0.00418932
0.00411597
0.00405051
0.00399181
0.00393892
0.00389108
0.00384762
0.00380801
0.00377178
0.00373853
0.00370794
0.0036797
0.00365357
0.00362933
0.00360678
0.00358577
0.00356613
0.00354774
0.00353048
0.00351425
0.00349895
0.0034845
0.00347082
0.00345784
0.00344549
0.00343372
0.00342248
0.00341171
0.00340136
0.00339141
0.0033818
0.0033725
0.00336349
0.00335473
0.00334619
0.00333786
0.00332972
0.00332175
0.00331392
0.00330624
0.0032987
0.00329127
0.00328396
0.00327676
0.00326967
0.00326269
0.0032558
0.00324902
0.00324233
0.00323575
0.00322926
0.00322287
0.00321657
0.00321037
0.00320425
0.00319823
0.00319229
0.00318643
0.00318065
0.00317493
0.00316928
0.00316368
0.00315812
0.0031526
0.0031471
0.00314161
0.0031361
0.00313056
0.00312495
0.00311926
0.00311344
0.00310744
0.00310116
0.0030945
0.00308725
0.00307915
0.00306928
0.00305787
0.00303284
0.00647904
0.00600208
0.0056352
0.00534266
0.0051038
0.00490528
0.00473793
0.00459517
0.00447215
0.00436519
0.00427148
0.00418883
0.00411548
0.00405003
0.00399135
0.00393849
0.00389067
0.00384724
0.00380767
0.00377147
0.00373827
0.00370772
0.00367952
0.00365344
0.00362925
0.00360675
0.00358579
0.00356621
0.00354788
0.00353069
0.00351454
0.00349932
0.00348496
0.00347137
0.00345849
0.00344626
0.00343461
0.00342348
0.00341284
0.00340263
0.00339281
0.00338333
0.00337417
0.0033653
0.00335667
0.00334827
0.00334007
0.00333205
0.00332419
0.00331648
0.00330891
0.00330145
0.00329412
0.00328689
0.00327976
0.00327273
0.0032658
0.00325897
0.00325222
0.00324557
0.00323901
0.00323255
0.00322617
0.00321988
0.00321368
0.00320757
0.00320154
0.00319559
0.00318972
0.00318393
0.00317819
0.00317252
0.0031669
0.00316132
0.00315576
0.00315023
0.00314469
0.00313913
0.00313354
0.00312787
0.00312211
0.00311622
0.00311013
0.00310376
0.00309702
0.00308968
0.0030815
0.00307158
0.00306014
0.00303531
0.00647907
0.00600211
0.00563523
0.00534268
0.0051038
0.00490527
0.0047379
0.00459513
0.00447208
0.00436511
0.00427139
0.00418874
0.0041154
0.00404996
0.00399129
0.00393845
0.00389065
0.00384725
0.0038077
0.00377153
0.00373836
0.00370783
0.00367967
0.00365362
0.00362947
0.00360701
0.00358609
0.00356656
0.00354829
0.00353116
0.00351507
0.00349992
0.00348563
0.00347213
0.00345935
0.00344721
0.00343566
0.00342465
0.00341412
0.00340402
0.00339433
0.00338498
0.00337595
0.00336721
0.00335871
0.00335045
0.00334238
0.0033345
0.00332677
0.00331919
0.00331175
0.00330443
0.00329722
0.00329012
0.00328313
0.00327623
0.00326943
0.00326273
0.00325612
0.0032496
0.00324318
0.00323686
0.00323063
0.00322449
0.00321844
0.00321248
0.00320661
0.00320083
0.00319513
0.0031895
0.00318395
0.00317845
0.00317302
0.00316763
0.00316227
0.00315693
0.00315159
0.00314624
0.00314085
0.0031354
0.00312985
0.00312416
0.00311828
0.00311214
0.00310562
0.00309854
0.00309065
0.00308107
0.00307004
0.0030461
0.0064791
0.00600213
0.00563522
0.00534264
0.00510372
0.00490515
0.00473773
0.0045949
0.00447181
0.0043648
0.00427106
0.00418838
0.00411503
0.0040496
0.00399093
0.0039381
0.00389031
0.00384692
0.00380738
0.00377123
0.00373806
0.00370755
0.0036794
0.00365337
0.00362923
0.00360679
0.0035859
0.00356639
0.00354816
0.00353107
0.00351503
0.00349994
0.00348572
0.00347229
0.00345959
0.00344754
0.00343609
0.00342519
0.00341477
0.0034048
0.00339522
0.003386
0.0033771
0.00336847
0.0033601
0.00335196
0.00334401
0.00333623
0.00332861
0.00332113
0.00331378
0.00330654
0.00329941
0.00329238
0.00328545
0.00327861
0.00327187
0.00326521
0.00325864
0.00325216
0.00324577
0.00323947
0.00323326
0.00322714
0.00322111
0.00321517
0.00320931
0.00320353
0.00319782
0.00319219
0.00318662
0.00318111
0.00317565
0.00317022
0.00316482
0.00315943
0.00315402
0.00314858
0.00314309
0.0031375
0.00313179
0.00312593
0.00311984
0.00311347
0.00310671
0.00309937
0.00309122
0.00308139
0.00307012
0.00304605
0.00647913
0.00600217
0.00563525
0.00534264
0.0051037
0.00490508
0.00473762
0.00459475
0.00447161
0.00436455
0.00427077
0.00418808
0.00411472
0.00404929
0.00399063
0.00393781
0.00389005
0.00384668
0.00380715
0.00377102
0.00373787
0.00370737
0.00367924
0.00365322
0.0036291
0.00360669
0.00358582
0.00356636
0.00354816
0.00353113
0.00351514
0.00350012
0.00348599
0.00347265
0.00346004
0.00344811
0.00343678
0.003426
0.00341572
0.00340589
0.00339646
0.00338739
0.00337864
0.00337017
0.00336195
0.00335395
0.00334614
0.00333851
0.00333103
0.00332368
0.00331646
0.00330934
0.00330233
0.00329541
0.00328859
0.00328185
0.00327521
0.00326864
0.00326217
0.00325578
0.00324948
0.00324327
0.00323714
0.00323111
0.00322515
0.00321928
0.0032135
0.00320778
0.00320214
0.00319657
0.00319105
0.00318559
0.00318016
0.00317475
0.00316936
0.00316396
0.00315853
0.00315305
0.00314748
0.0031418
0.00313596
0.00312992
0.00312363
0.00311703
0.00311002
0.00310242
0.00309402
0.00308399
0.00307254
0.00304848
0.00647917
0.0060022
0.00563526
0.00534262
0.00510363
0.00490495
0.00473743
0.00459449
0.00447128
0.00436417
0.00427035
0.00418765
0.0041143
0.00404889
0.00399026
0.00393747
0.00388972
0.00384637
0.00380685
0.00377072
0.00373758
0.00370708
0.00367896
0.00365294
0.00362883
0.00360644
0.0035856
0.00356617
0.00354802
0.00353104
0.00351513
0.0035002
0.00348616
0.00347295
0.00346048
0.0034487
0.00343754
0.00342694
0.00341686
0.00340724
0.00339803
0.00338919
0.00338067
0.00337245
0.00336447
0.00335672
0.00334916
0.00334178
0.00333454
0.00332744
0.00332046
0.00331358
0.00330681
0.00330014
0.00329355
0.00328705
0.00328065
0.00327433
0.0032681
0.00326197
0.00325593
0.00324998
0.00324412
0.00323836
0.00323269
0.00322712
0.00322163
0.00321623
0.00321091
0.00320567
0.00320049
0.00319536
0.00319029
0.00318525
0.00318022
0.0031752
0.00317016
0.00316508
0.00315991
0.00315463
0.00314921
0.00314359
0.00313775
0.00313165
0.00312521
0.00311828
0.00311071
0.00310172
0.00309153
0.00306968
0.0064792
0.00600223
0.00563527
0.0053426
0.00510355
0.00490481
0.0047372
0.00459415
0.00447083
0.0043636
0.00426969
0.00418694
0.00411357
0.00404817
0.00398956
0.00393679
0.00388907
0.00384574
0.00380625
0.00377013
0.003737
0.00370651
0.0036784
0.0036524
0.00362832
0.00360596
0.00358516
0.00356579
0.00354773
0.00353085
0.00351507
0.0035003
0.00348644
0.00347343
0.00346121
0.00344969
0.00343882
0.00342854
0.0034188
0.00340954
0.00340071
0.00339227
0.00338417
0.00337635
0.00336878
0.00336143
0.00335428
0.00334732
0.00334051
0.00333384
0.0033273
0.00332087
0.00331455
0.00330833
0.0033022
0.00329617
0.00329023
0.00328439
0.00327865
0.00327302
0.00326748
0.00326205
0.00325673
0.00325153
0.00324643
0.00324145
0.00323658
0.00323182
0.00322717
0.00322263
0.0032182
0.00321387
0.00320963
0.00320547
0.0032014
0.00319739
0.00319343
0.00318949
0.00318554
0.00318154
0.00317744
0.00317322
0.00316886
0.00316435
0.00315965
0.00315466
0.00314931
0.00314307
0.00313591
0.00311924
0.00647923
0.00600226
0.00563528
0.00534256
0.00510345
0.00490463
0.00473692
0.00459375
0.0044703
0.00436295
0.004269
0.00418627
0.00411298
0.00404764
0.00398909
0.00393635
0.00388863
0.00384527
0.00380573
0.00376954
0.00373633
0.00370575
0.00367755
0.00365147
0.00362732
0.00360492
0.00358411
0.00356477
0.00354677
0.00353001
0.00351438
0.00349981
0.00348618
0.00347344
0.00346151
0.00345033
0.00343983
0.00342996
0.00342065
0.00341183
0.00340345
0.00339546
0.0033878
0.00338043
0.0033733
0.00336639
0.00335967
0.00335311
0.0033467
0.0033404
0.00333423
0.00332818
0.00332224
0.0033164
0.00331068
0.00330507
0.00329957
0.00329419
0.00328893
0.00328379
0.00327877
0.00327388
0.00326911
0.00326447
0.00325995
0.00325556
0.00325129
0.00324714
0.0032431
0.00323918
0.00323535
0.00323163
0.00322799
0.00322443
0.00322094
0.00321749
0.00321407
0.00321064
0.00320718
0.00320362
0.00319989
0.00319598
0.00319189
0.00318764
0.00318318
0.00317848
0.00317354
0.00316816
0.00316347
0.00315422
0.00647926
0.00600229
0.00563528
0.0053425
0.00510331
0.00490437
0.00473649
0.00459307
0.00446926
0.00436146
0.00426772
0.00418597
0.00411398
0.00404988
0.00399226
0.00394
0.0038923
0.00384855
0.00380828
0.00377111
0.00373677
0.00370501
0.00367563
0.00364844
0.00362331
0.00360008
0.0035786
0.00355876
0.00354042
0.00352346
0.00350778
0.00349326
0.00347982
0.00346736
0.00345581
0.00344507
0.00343507
0.00342571
0.0034169
0.00340855
0.00340059
0.00339296
0.00338562
0.00337851
0.0033716
0.00336487
0.00335831
0.0033519
0.00334565
0.00333954
0.00333355
0.00332768
0.00332193
0.00331628
0.00331075
0.00330534
0.00330003
0.00329485
0.00328979
0.00328485
0.00328004
0.00327535
0.00327079
0.00326636
0.00326205
0.00325786
0.0032538
0.00324986
0.00324605
0.00324234
0.00323875
0.00323526
0.00323186
0.00322856
0.00322533
0.00322217
0.00321906
0.00321598
0.00321287
0.00320963
0.00320612
0.00320241
0.00319859
0.00319466
0.00319061
0.00318637
0.00318195
0.0031772
0.00317312
0.00316639
0.00647929
0.00600232
0.00563528
0.00534245
0.00510318
0.00490412
0.00473607
0.00459243
0.00446828
0.00436025
0.0043266
0.00430914
0.0042833
0.00424461
0.00419523
0.00413889
0.00407908
0.00401848
0.003959
0.00390194
0.00384812
0.00379802
0.00375184
0.00370965
0.00367137
0.00363683
0.00360575
0.00357779
0.00355254
0.00352957
0.00350842
0.00348854
0.00347153
0.00345716
0.00344482
0.00343402
0.00342436
0.00341554
0.00340738
0.00339969
0.00339235
0.00338527
0.00337836
0.00337162
0.00336523
0.00335924
0.00335366
0.00334843
0.0033435
0.00333884
0.00333439
0.00333012
0.00332602
0.00332206
0.00331824
0.00331455
0.00331099
0.00330755
0.00330424
0.00330105
0.00329798
0.00329503
0.00329219
0.00328947
0.00328685
0.00328435
0.00328195
0.00327966
0.00327747
0.00327538
0.0032734
0.00327152
0.00326974
0.00326806
0.00326646
0.00326494
0.00326347
0.00326203
0.0032606
0.00325899
0.00325029
0.00324005
0.00323012
0.003221
0.00321274
0.00320518
0.00319813
0.00319124
0.00318521
0.00317671
0.00647933
0.00600234
0.00563526
0.00534237
0.00510298
0.00490374
0.00473534
0.00459105
0.0044651
0.00436354
0.00768977
0.00841112
0.00839843
0.00814057
0.00781666
0.00749444
0.00719862
0.00693686
0.0067101
0.0065167
0.00635418
0.0062198
0.00611074
0.00602417
0.00595724
0.00590708
0.00587083
0.00584574
0.00582918
0.00581881
0.00581259
0.0058088
0.00580688
0.00580677
0.00580803
0.00581005
0.00581231
0.00581447
0.00581635
0.00581791
0.00581922
0.00582046
0.00582142
0.00582218
0.00582274
0.0058233
0.00582421
0.00582578
0.00582836
0.00583218
0.00583737
0.00584405
0.00585229
0.00586215
0.00587357
0.00588656
0.00590115
0.00591739
0.00593527
0.00595478
0.00597589
0.00599856
0.00602274
0.00604837
0.00607537
0.00610366
0.00613314
0.00616371
0.00619526
0.00622763
0.0062607
0.00629434
0.00632847
0.00636301
0.00639791
0.00643321
0.00646928
0.00650687
0.0065511
0.00659481
0.00527503
0.00449606
0.00401439
0.00370748
0.00350831
0.00337749
0.00329076
0.00323222
0.00319271
0.00316036
0.00647936
0.00600237
0.00563526
0.00534232
0.00510285
0.00490349
0.00473493
0.00459043
0.00446417
0.00436229
0.00769031
0.00841345
0.00839906
0.00813697
0.00780733
0.00747848
0.00717558
0.00690661
0.00667276
0.00647263
0.00630391
0.00616404
0.00605037
0.0059602
0.00589076
0.00583923
0.00580272
0.00577838
0.00576344
0.00575535
0.0057518
0.00575083
0.00575082
0.00575054
0.00574908
0.00574579
0.00574024
0.00573214
0.00572134
0.00570778
0.00569146
0.00567247
0.00565138
0.00562838
0.00560367
0.00557754
0.00555029
0.00552223
0.00549355
0.00546444
0.00543512
0.00540582
0.00537673
0.00534807
0.00532005
0.00529298
0.0052671
0.00524259
0.00521972
0.00519877
0.00518005
0.0051639
0.00515062
0.00514053
0.00513391
0.00513104
0.00513219
0.00513754
0.00514726
0.00516144
0.00518012
0.00520325
0.00523071
0.00526233
0.00529795
0.00533746
0.00538105
0.00542885
0.00548547
0.00554091
0.00462246
0.00405847
0.00369687
0.0034585
0.00329899
0.00319159
0.00311907
0.00306886
0.00303307
0.00299575
0.00647939
0.0060024
0.00563526
0.00534227
0.00510272
0.00490324
0.00473451
0.00458976
0.00446314
0.00436078
0.00768362
0.00840738
0.0083947
0.0081342
0.00780573
0.00747752
0.00717479
0.00690567
0.00667149
0.00647103
0.00630213
0.00616241
0.00604937
0.00596043
0.00589292
0.00584404
0.00581093
0.00579067
0.0057804
0.00577748
0.00577949
0.00578437
0.00579042
0.00579632
0.0058011
0.00580408
0.00580484
0.00580313
0.00579882
0.00579186
0.00578231
0.00577024
0.00575581
0.00573922
0.00572069
0.00570045
0.00567876
0.00565587
0.00563202
0.00560744
0.00558234
0.00555687
0.00553117
0.0055053
0.0054793
0.0054531
0.00542664
0.00539992
0.0053729
0.0053455
0.00531766
0.00528931
0.0052604
0.00523088
0.00520071
0.00516989
0.00513842
0.00510632
0.00507367
0.00504056
0.00500714
0.00497362
0.00494028
0.00490745
0.00487564
0.00484542
0.00481775
0.00479341
0.00477673
0.00475729
0.00399323
0.00353927
0.00325641
0.0030727
0.00294926
0.00286398
0.00280383
0.00275871
0.00272311
0.00267628
0.00647942
0.00600243
0.00563527
0.00534224
0.00510264
0.00490309
0.00473426
0.0045894
0.00446266
0.00436018
0.00768177
0.00840585
0.00839361
0.00813333
0.00780484
0.00747644
0.0071734
0.0069039
0.00666934
0.00646853
0.00629938
0.00615953
0.0060465
0.00595775
0.00589064
0.00584237
0.00581009
0.00579087
0.00578186
0.00578036
0.00578396
0.00579056
0.00579846
0.00580633
0.00581318
0.00581834
0.00582133
0.00582187
0.00581979
0.00581502
0.00580754
0.00579743
0.00578483
0.00576998
0.00575314
0.00573465
0.00571488
0.00569423
0.00567304
0.00565166
0.00563039
0.00560947
0.00558994
0.00557183
0.00555498
0.00553921
0.00552438
0.00551037
0.00549713
0.00548466
0.00547303
0.00546227
0.00545238
0.00544332
0.00543505
0.0054275
0.00542062
0.00541431
0.00540843
0.00540285
0.00539741
0.00539196
0.00538631
0.00538031
0.00537384
0.00536687
0.00535974
0.00535318
0.00535208
0.00535904
0.00451963
0.00404168
0.00374992
0.00355854
0.00342311
0.00331991
0.00324375
0.00318129
0.00312567
0.00305816
0.00647945
0.00600246
0.00563529
0.00534222
0.00510258
0.00490297
0.00473407
0.00458912
0.00446227
0.00435966
0.00767932
0.00840309
0.00839093
0.00813082
0.00780248
0.00747415
0.00717109
0.00690151
0.00666681
0.00646584
0.00629656
0.00615661
0.00604356
0.0059549
0.00588798
0.00584005
0.00580821
0.00578955
0.0057812
0.00578046
0.00578489
0.0057924
0.00580128
0.0058102
0.00581815
0.00582443
0.00582854
0.00583015
0.00582903
0.00582501
0.005818
0.00580801
0.00579514
0.00577963
0.00576176
0.00574194
0.00572058
0.00569814
0.00567503
0.00565162
0.00562826
0.00560519
0.00558265
0.00556079
0.00553973
0.00551952
0.00550021
0.00548184
0.00546486
0.00544937
0.00543523
0.00542223
0.00541024
0.00539917
0.00538897
0.00537967
0.00537136
0.00536413
0.00535804
0.00535314
0.00534954
0.00534735
0.00534669
0.00534771
0.00535063
0.00535576
0.00536375
0.00537552
0.00539598
0.00542738
0.00458493
0.00411591
0.00384019
0.00366944
0.00355773
0.00347993
0.00342144
0.00337239
0.00332506
0.00326256
0.00647948
0.00600249
0.00563531
0.00534223
0.00510256
0.00490291
0.00473398
0.00458898
0.00446207
0.00435941
0.00767782
0.00840115
0.00838869
0.00812833
0.00779973
0.00747117
0.00716788
0.00689809
0.00666323
0.00646213
0.00629277
0.00615281
0.00603983
0.0059513
0.00588459
0.00583693
0.00580542
0.00578713
0.00577917
0.00577883
0.00578369
0.00579164
0.00580099
0.00581042
0.00581894
0.00582583
0.00583057
0.00583277
0.0058321
0.00582829
0.00582112
0.00581048
0.00579642
0.00577915
0.00575902
0.0057365
0.00571211
0.0056864
0.00565986
0.00563295
0.00560602
0.00557936
0.0055532
0.00552766
0.00550285
0.00547884
0.00545562
0.00543317
0.00541145
0.00539041
0.00537
0.00535016
0.00533081
0.0053119
0.00529335
0.00527511
0.00525713
0.00523938
0.00522181
0.00520441
0.00518717
0.00517012
0.0051533
0.00513678
0.0051207
0.00510524
0.00509082
0.00507779
0.00506943
0.0050604
0.00428716
0.00384862
0.00358497
0.00342014
0.00331309
0.00323883
0.00318306
0.00313607
0.00309322
0.00303575
0.00647951
0.00600253
0.00563535
0.00534225
0.00510257
0.00490292
0.00473397
0.00458898
0.00446208
0.00435942
0.00767735
0.00840014
0.00838705
0.00812601
0.00779675
0.00746758
0.00716378
0.00689358
0.00665842
0.00645717
0.00628777
0.0061479
0.00603512
0.00594689
0.00588055
0.00583326
0.00580212
0.00578414
0.00577641
0.00577621
0.00578113
0.0057891
0.00579849
0.00580802
0.00581676
0.00582403
0.0058293
0.00583213
0.00583205
0.0058286
0.00582134
0.00580997
0.00579443
0.0057749
0.00575183
0.00572581
0.00569752
0.00566764
0.00563681
0.00560555
0.00557428
0.00554332
0.00551287
0.00548307
0.00545397
0.00542557
0.00539784
0.00537072
0.00534413
0.00531799
0.0052922
0.00526666
0.00524127
0.00521593
0.00519054
0.005165
0.00513921
0.0051131
0.00508659
0.00505962
0.00503215
0.00500414
0.00497561
0.00494659
0.00491719
0.00488759
0.00485818
0.0048292
0.00480388
0.00477203
0.00401376
0.00357248
0.00330298
0.00312993
0.00301196
0.00292574
0.00285783
0.00279864
0.00274447
0.00267068
0.00647954
0.00600257
0.00563538
0.00534229
0.00510261
0.00490296
0.00473402
0.00458905
0.00446217
0.0043595
0.00767602
0.00839753
0.00838341
0.00812167
0.007792
0.00746264
0.00715884
0.00688878
0.00665388
0.00645301
0.00628415
0.00614499
0.00603312
0.00594599
0.00588089
0.00583494
0.00580513
0.00578843
0.00578188
0.00578279
0.00578879
0.00579795
0.00580876
0.0058201
0.00583115
0.00584127
0.00584988
0.00585636
0.00585995
0.00585972
0.00585479
0.0058445
0.0058286
0.00580737
0.0057815
0.00575196
0.00571984
0.00568618
0.0056519
0.00561776
0.00558428
0.00555185
0.00552066
0.00549081
0.0054623
0.00543507
0.00540901
0.00538402
0.00536002
0.00533694
0.0053147
0.00529321
0.00527242
0.00525225
0.00523266
0.00521361
0.00519508
0.00517706
0.00515957
0.00514265
0.00512634
0.00511074
0.00509596
0.00508217
0.0050696
0.00505858
0.00504972
0.00504353
0.0050439
0.00504202
0.00424018
0.00377276
0.0034874
0.00330521
0.00318352
0.00309828
0.00303539
0.00298498
0.00294203
0.00288793
0.00647957
0.00600261
0.00563543
0.00534235
0.00510269
0.00490309
0.00473424
0.00458942
0.00446281
0.0043605
0.00767987
0.00839998
0.00838363
0.00811981
0.00778857
0.00745842
0.00715481
0.00688617
0.00665412
0.00645774
0.00629512
0.00616393
0.00606154
0.00598506
0.00593131
0.00589691
0.00587845
0.00587259
0.00587631
0.00588697
0.0059024
0.00592093
0.00594131
0.00596262
0.00598413
0.00600513
0.0060248
0.00604202
0.00605531
0.00606282
0.00606269
0.00605363
0.00603516
0.0060079
0.00597325
0.00593314
0.0058897
0.00584495
0.00580066
0.00575823
0.00571867
0.00568263
0.00565042
0.00562211
0.00559759
0.00557661
0.00555896
0.00554444
0.00553278
0.00552365
0.00551671
0.00551163
0.00550815
0.00550604
0.00550514
0.00550532
0.0055065
0.00550862
0.00551166
0.00551561
0.00552049
0.00552634
0.00553323
0.00554129
0.00555069
0.00556174
0.00557509
0.0055917
0.00561637
0.00564955
0.00472217
0.00417545
0.0038339
0.00361024
0.00345802
0.00335082
0.00327268
0.00321257
0.00316321
0.0031122
0.0064796
0.00600265
0.00563548
0.0053424
0.00510277
0.00490321
0.00473444
0.00458973
0.0044633
0.00436112
0.00767493
0.00839212
0.00837718
0.00811713
0.0077939
0.00747768
0.007195
0.00695458
0.00675758
0.00660179
0.00648342
0.00639788
0.00634028
0.00630571
0.00628954
0.00628759
0.00629626
0.00631259
0.00633428
0.00635957
0.00638724
0.00641647
0.00644673
0.00647768
0.00650901
0.00654031
0.00657084
0.00659938
0.00662397
0.00664183
0.00664976
0.00664502
0.00662599
0.0065926
0.00654617
0.0064891
0.00642438
0.00635524
0.00628491
0.00621633
0.00615209
0.00609431
0.00604454
0.00600379
0.0059725
0.00595055
0.00593868
0.00593659
0.00594253
0.00595432
0.00597002
0.00598815
0.00600764
0.00602781
0.00604821
0.00606862
0.00608889
0.00610899
0.00612891
0.00614869
0.00616836
0.006188
0.0062077
0.00622759
0.00624786
0.00626885
0.00629133
0.00631664
0.00635054
0.00639005
0.00518446
0.00447619
0.00403808
0.00375663
0.00357062
0.0034448
0.00335784
0.00329595
0.0032508
0.00321129
0.00647963
0.00600269
0.00563553
0.00534248
0.00510291
0.00490346
0.00473496
0.00459081
0.0044661
0.00435737
0.00428077
0.00421408
0.00414578
0.00408231
0.0040229
0.00396736
0.00391561
0.00386761
0.00382328
0.00378247
0.00374503
0.0037108
0.00367958
0.00365117
0.00362538
0.00360202
0.00358091
0.00356186
0.00354473
0.00352938
0.0035157
0.00350359
0.003493
0.00348389
0.00347628
0.00347018
0.00346562
0.0034626
0.003461
0.00346058
0.00346088
0.00346133
0.00346138
0.00346055
0.00345852
0.00345506
0.00345011
0.00344381
0.00343634
0.00342792
0.00341881
0.00340925
0.00339951
0.00338979
0.0033803
0.0033712
0.00336261
0.00335463
0.00334731
0.00334067
0.00333469
0.00332934
0.00332456
0.0033203
0.00331649
0.00331307
0.00330999
0.00330719
0.00330463
0.00330226
0.00330004
0.00329795
0.00329596
0.00329403
0.00329215
0.0032903
0.00328846
0.0032866
0.0032847
0.00328257
0.00327427
0.0032645
0.00325488
0.00324587
0.00323754
0.00322978
0.0032225
0.00321537
0.00320905
0.00319981
0.00647966
0.00600273
0.00563558
0.00534254
0.00510298
0.00490357
0.00473514
0.0045911
0.00446656
0.00435796
0.00426279
0.00417897
0.00410458
0.00403813
0.00397839
0.00392442
0.00387541
0.00383074
0.00378988
0.0037524
0.00371793
0.00368619
0.00365692
0.00362991
0.00360498
0.00358198
0.0035608
0.00354131
0.00352344
0.00350711
0.00349228
0.00347892
0.00346704
0.00345668
0.0034479
0.00344082
0.00343559
0.00343229
0.0034309
0.00343116
0.00343244
0.00343399
0.00343503
0.00343498
0.00343348
0.00343041
0.0034258
0.00341979
0.00341258
0.0034044
0.00339549
0.00338608
0.00337636
0.00336652
0.00335671
0.00334705
0.00333765
0.00332861
0.00331999
0.00331185
0.00330422
0.00329713
0.00329057
0.00328455
0.00327904
0.00327404
0.00326949
0.00326538
0.00326166
0.00325829
0.00325524
0.00325247
0.00324994
0.0032476
0.00324543
0.00324339
0.00324144
0.00323953
0.00323763
0.00323558
0.00323327
0.00323072
0.00322803
0.00322522
0.00322228
0.00321916
0.00321586
0.00321219
0.00320894
0.00320221
0.00647969
0.00600277
0.00563562
0.00534259
0.00510305
0.00490369
0.00473534
0.00459143
0.00446714
0.00435886
0.00426387
0.00418001
0.00410546
0.00403879
0.0039788
0.00392456
0.00387528
0.00383032
0.00378915
0.00375132
0.00371649
0.00368433
0.0036546
0.0036271
0.00360163
0.00357807
0.00355628
0.00353617
0.00351766
0.00350068
0.0034852
0.00347122
0.00345875
0.00344787
0.00343873
0.00343154
0.00342659
0.00342417
0.00342446
0.00342716
0.00343139
0.00343598
0.00343977
0.00344191
0.00344194
0.00343975
0.00343541
0.00342916
0.00342127
0.00341207
0.00340194
0.00339116
0.00337998
0.00336856
0.00335713
0.00334591
0.00333505
0.00332469
0.00331493
0.00330583
0.00329743
0.00328976
0.00328284
0.00327664
0.00327116
0.00326636
0.0032622
0.00325865
0.00325565
0.00325315
0.0032511
0.00324945
0.00324812
0.00324708
0.00324626
0.0032456
0.00324504
0.00324452
0.00324397
0.00324331
0.00324245
0.00324133
0.00323995
0.00323829
0.00323631
0.00323392
0.00323103
0.00322726
0.00322288
0.00321176
0.00647972
0.0060028
0.00563566
0.00534262
0.00510308
0.00490371
0.00473535
0.00459144
0.00446713
0.0043588
0.00426367
0.00417958
0.00410476
0.00403779
0.0039775
0.00392296
0.00387337
0.0038281
0.00378661
0.00374846
0.00371328
0.00368077
0.00365068
0.0036228
0.00359694
0.00357299
0.0035508
0.00353028
0.00351136
0.00349397
0.00347807
0.00346366
0.00345077
0.00343952
0.00343009
0.00342285
0.00341829
0.00341705
0.00341983
0.00342649
0.00343579
0.0034459
0.00345481
0.00346117
0.00346439
0.00346437
0.00346131
0.00345558
0.00344764
0.00343806
0.0034274
0.003416
0.00340421
0.0033923
0.00338053
0.00336912
0.00335824
0.00334806
0.0033387
0.00333024
0.00332275
0.00331627
0.00331081
0.00330634
0.00330282
0.00330019
0.00329838
0.00329727
0.00329676
0.00329673
0.00329706
0.00329761
0.00329826
0.00329891
0.00329943
0.00329973
0.00329972
0.00329932
0.00329845
0.00329705
0.00329505
0.00329239
0.00328906
0.00328505
0.00328031
0.0032748
0.00326842
0.00326073
0.0032519
0.00323523
0.00647975
0.00600284
0.00563569
0.00534264
0.00510308
0.0049037
0.00473532
0.00459139
0.00446707
0.00435869
0.00426348
0.00417924
0.00410421
0.00403698
0.0039764
0.00392152
0.00387156
0.0038259
0.00378399
0.00374541
0.00370978
0.0036768
0.00364623
0.00361787
0.00359154
0.00356711
0.00354445
0.00352347
0.00350408
0.00348622
0.00346983
0.0034549
0.00344145
0.0034296
0.00341958
0.00341189
0.00340729
0.00340711
0.00341377
0.00342857
0.0034503
0.00347518
0.00349863
0.00351785
0.00353176
0.00354027
0.00354388
0.00354338
0.0035396
0.00353327
0.00352626
0.0035191
0.00351222
0.00350597
0.00350059
0.00349623
0.00349297
0.00349082
0.00348971
0.00348952
0.00349009
0.00349125
0.00349279
0.00349452
0.00349623
0.00349777
0.00349896
0.00349967
0.00349979
0.00349923
0.00349792
0.00349581
0.00349288
0.00348912
0.00348453
0.00347911
0.00347289
0.00346589
0.00345813
0.00344964
0.00344041
0.00343047
0.00341983
0.00340851
0.0033965
0.00338374
0.00337015
0.00335526
0.00333924
0.0033156
0.00647978
0.00600287
0.00563571
0.00534264
0.00510305
0.00490363
0.0047352
0.00459121
0.00446679
0.0043583
0.00426292
0.00417845
0.00410316
0.00403563
0.00397471
0.00391947
0.00386912
0.00382304
0.0037807
0.00374165
0.00370553
0.00367205
0.00364097
0.00361208
0.00358522
0.00356026
0.00353708
0.00351558
0.00349567
0.00347727
0.00346031
0.00344475
0.00343057
0.00341788
0.00340686
0.00339817
0.00339282
0.00339359
0.00341098
0.00345513
0.00352457
0.0036045
0.00367961
0.00374398
0.003796
0.00383654
0.00386739
0.00389047
0.0039075
0.00391994
0.00392842
0.00393595
0.00394204
0.00394625
0.00394829
0.00394801
0.00394542
0.00394062
0.00393383
0.00392529
0.00391525
0.00390395
0.00389161
0.00387843
0.00386457
0.00385014
0.00383525
0.00381997
0.00380436
0.00378845
0.00377228
0.00375588
0.00373925
0.00372241
0.00370538
0.00368817
0.00367077
0.00365321
0.00363548
0.00361758
0.00359951
0.00358125
0.00356279
0.0035441
0.00352515
0.00350582
0.003486
0.0034652
0.00344343
0.00341493
0.00647981
0.0060029
0.00563572
0.00534263
0.00510301
0.00490353
0.00473505
0.00459097
0.00446645
0.00435783
0.00426228
0.00417761
0.00410207
0.00403424
0.00397299
0.00391736
0.00386659
0.00382005
0.00377719
0.0037376
0.0037009
0.00366681
0.0036351
0.00360557
0.00357807
0.00355247
0.00352867
0.00350655
0.00348603
0.00346699
0.00344936
0.00343303
0.00341792
0.00340403
0.00339138
0.00338067
0.00337295
0.00337453
0.00344293
0.00362527
0.00388815
0.00415038
0.00436476
0.00452627
0.00463925
0.00471247
0.00475447
0.00477256
0.00477268
0.00475954
0.00473654
0.00470509
0.00466757
0.00462563
0.00458084
0.00453456
0.00448787
0.0044416
0.00439631
0.00435239
0.00431008
0.00426946
0.00423055
0.00419331
0.00415765
0.00412346
0.00409061
0.00405899
0.00402848
0.00399896
0.00397032
0.00394246
0.00391531
0.0038888
0.00386284
0.00383741
0.00381244
0.0037879
0.00376376
0.00373997
0.00371651
0.00369334
0.00367041
0.00364768
0.00362506
0.00360244
0.00357964
0.00355618
0.00353186
0.00350188
0.00647983
0.00600292
0.00563573
0.00534261
0.00510294
0.00490341
0.00473484
0.00459066
0.00446602
0.00435724
0.0042615
0.00417659
0.00410077
0.00403262
0.00397099
0.00391494
0.00386371
0.00381664
0.00377322
0.00373301
0.00369566
0.00366087
0.00362843
0.00359816
0.00356991
0.00354358
0.00351905
0.00349624
0.00347502
0.00345531
0.00343696
0.00341987
0.00340386
0.0033888
0.00337442
0.0033613
0.00334988
0.00335894
0.0036947
0.00437934
0.00508004
0.00557562
0.00585346
0.00597138
0.00597922
0.00591835
0.00581835
0.005699
0.00557277
0.00544691
0.00532481
0.00520803
0.00509806
0.00499593
0.00490186
0.00481557
0.00473653
0.00466405
0.00459745
0.00453607
0.00447945
0.00442736
0.00437907
0.00433381
0.00429103
0.00425038
0.00421157
0.00417439
0.00413866
0.00410423
0.00407098
0.00403882
0.00400764
0.0039774
0.00394804
0.00391951
0.00389178
0.00386484
0.00383865
0.00381319
0.00378842
0.00376428
0.00374072
0.00371762
0.00369485
0.0036722
0.00364967
0.00362696
0.00360352
0.00357563
0.00647986
0.00600295
0.00563574
0.00534258
0.00510286
0.00490326
0.00473461
0.00459033
0.00446555
0.0043566
0.00426066
0.00417551
0.0040994
0.00403091
0.00396888
0.00391239
0.00386064
0.003813
0.00376894
0.00372802
0.00368989
0.00365428
0.00362097
0.00358981
0.00356066
0.00353344
0.00350806
0.00348444
0.00346245
0.00344198
0.0034229
0.00340506
0.00338822
0.0033721
0.00335588
0.00333956
0.00332052
0.00336362
0.00460795
0.00604578
0.00697095
0.00736097
0.00737596
0.00718307
0.00689673
0.00658539
0.00628535
0.00601297
0.00577348
0.00556639
0.00538877
0.00523672
0.00510631
0.00499376
0.00489575
0.00480983
0.00473471
0.00466811
0.00460748
0.00455137
0.00449891
0.00444952
0.00440279
0.00435841
0.00431613
0.00427575
0.00423709
0.00419999
0.00416431
0.00412994
0.00409679
0.00406477
0.00403384
0.00400396
0.00397512
0.0039473
0.00392052
0.00389478
0.00387008
0.00384641
0.00382375
0.00380204
0.00378121
0.00376114
0.00374164
0.00372247
0.00370317
0.00368317
0.00366022
0.00363356
0.00647988
0.00600296
0.00563573
0.00534254
0.00510277
0.0049031
0.00473435
0.00458995
0.00446503
0.0043559
0.00425974
0.00417433
0.00409791
0.00402906
0.00396661
0.00390962
0.00385731
0.00380903
0.00376424
0.00372251
0.00368348
0.0036469
0.00361256
0.00358033
0.00355011
0.00352185
0.00349549
0.00347096
0.00344812
0.00342689
0.00340715
0.00338888
0.00337201
0.00335651
0.00334166
0.0033275
0.00331011
0.00335788
0.00470801
0.00623769
0.0072094
0.00757945
0.00757504
0.00736106
0.00704615
0.00670127
0.00636656
0.00606129
0.00579258
0.00556113
0.00536428
0.00519824
0.00505901
0.00494433
0.00484794
0.00476481
0.00469157
0.00462585
0.00456601
0.00451088
0.00445963
0.00441164
0.00436645
0.0043237