/*--------------------------------*- C++ -*----------------------------------*\
| =========                 |                                                 |
| \\      /  F ield         | OpenFOAM: The Open Source CFD Toolbox           |
|  \\    /   O peration     | Version:  v2012                                 |
|   \\  /    A nd           | Website:  www.openfoam.com                      |
|    \\/     M anipulation  |                                                 |
\*---------------------------------------------------------------------------*/
FoamFile
{
    version     2.0;
    format      ascii;
    class       volScalarField;
    location    "400/air";
    object      epsilon;
}
// * * * * * * * * * * * * * * * * * * * * * * * * * * * * * * * * * * * * * //

dimensions      [0 2 -3 0 0 0 0];


internalField   nonuniform List<scalar> 
287104
(
0.0965288
0.0769508
0.0638411
0.0545278
0.0476348
0.0423714
0.0382498
0.0349545
0.0322729
0.0300576
0.0282035
0.026634
0.0252921
0.0241346
0.0231282
0.0222468
0.02147
0.0207813
0.0201675
0.0196175
0.0191226
0.0186754
0.0182695
0.0179
0.0175623
0.0172527
0.0169679
0.0167053
0.0164624
0.0162371
0.0160275
0.0158321
0.0156495
0.0154782
0.0153173
0.0151657
0.0150224
0.0148866
0.0147575
0.0146346
0.014517
0.0144044
0.0142962
0.0141919
0.0140911
0.0139935
0.0138987
0.0138065
0.0137167
0.013629
0.0135432
0.0134593
0.0133771
0.0132965
0.0132174
0.0131398
0.0130636
0.0129888
0.0129154
0.0128433
0.0127724
0.0127029
0.0126347
0.0125676
0.0125018
0.0124372
0.0123737
0.0123112
0.0122498
0.0121894
0.0121298
0.0120711
0.012013
0.0119556
0.0118986
0.011842
0.0117855
0.0117289
0.0116721
0.0116147
0.0115564
0.0114969
0.0114354
0.0113712
0.011303
0.0112286
0.0111453
0.0110433
0.0109258
0.0106655
0.096523
0.0769403
0.0638275
0.0545122
0.0476179
0.0423536
0.0382315
0.0349358
0.032254
0.0300386
0.0281845
0.0266152
0.0252736
0.0241164
0.0231104
0.0222296
0.0214533
0.0207651
0.0201518
0.0196024
0.019108
0.0186613
0.018256
0.0178869
0.0175498
0.0172407
0.0169566
0.0166946
0.0164524
0.0162278
0.0160191
0.0158246
0.0156429
0.0154727
0.0153129
0.0151624
0.0150204
0.0148859
0.0147582
0.0146367
0.0145206
0.0144094
0.0143027
0.0141998
0.0141004
0.0140042
0.0139107
0.0138198
0.0137311
0.0136445
0.0135597
0.0134767
0.0133952
0.0133153
0.0132368
0.0131597
0.0130838
0.0130093
0.0129361
0.0128641
0.0127933
0.0127238
0.0126554
0.0125883
0.0125223
0.0124574
0.0123936
0.0123308
0.0122691
0.0122082
0.0121483
0.0120891
0.0120305
0.0119726
0.011915
0.0118578
0.0118006
0.0117433
0.0116856
0.0116274
0.0115682
0.0115076
0.011445
0.0113797
0.0113103
0.0112348
0.0111505
0.0110478
0.0109298
0.0106715
0.0965206
0.0769359
0.0638217
0.0545054
0.0476103
0.0423453
0.0382226
0.0349265
0.0322443
0.0300286
0.0281745
0.0266052
0.0252636
0.0241067
0.0231009
0.0222204
0.0214444
0.0207566
0.0201435
0.0195945
0.0191004
0.018654
0.0182491
0.0178804
0.0175437
0.0172351
0.0169514
0.0166899
0.0164483
0.0162243
0.0160163
0.0158226
0.0156417
0.0154725
0.0153137
0.0151643
0.0150234
0.0148901
0.0147637
0.0146434
0.0145287
0.0144189
0.0143135
0.0142121
0.0141141
0.0140193
0.0139272
0.0138377
0.0137503
0.0136651
0.0135816
0.0134999
0.0134197
0.0133411
0.0132638
0.013188
0.0131134
0.0130402
0.0129682
0.0128975
0.0128281
0.0127599
0.0126929
0.0126271
0.0125625
0.0124991
0.0124368
0.0123755
0.0123154
0.0122562
0.0121978
0.0121403
0.0120835
0.0120273
0.0119716
0.0119162
0.0118609
0.0118054
0.0117497
0.0116933
0.011636
0.0115772
0.0115166
0.0114531
0.0113858
0.0113125
0.0112307
0.0111311
0.0110167
0.0107665
0.0965182
0.0769311
0.0638149
0.0544969
0.0476005
0.0423342
0.0382105
0.0349133
0.0322304
0.0300141
0.0281596
0.0265902
0.0252487
0.0240919
0.0230865
0.0222062
0.0214305
0.020743
0.0201302
0.0195814
0.0190875
0.0186413
0.0182366
0.0178681
0.0175316
0.0172232
0.0169398
0.0166787
0.0164375
0.0162141
0.0160067
0.0158137
0.0156337
0.0154653
0.0153075
0.0151592
0.0150195
0.0148875
0.0147624
0.0146436
0.0145303
0.0144219
0.014318
0.0142179
0.0141213
0.0140278
0.0139371
0.0138487
0.0137625
0.0136783
0.0135958
0.0135149
0.0134355
0.0133575
0.0132809
0.0132056
0.0131315
0.0130586
0.0129869
0.0129165
0.0128472
0.0127792
0.0127123
0.0126466
0.0125821
0.0125186
0.0124563
0.012395
0.0123346
0.0122752
0.0122166
0.0121588
0.0121016
0.0120449
0.0119886
0.0119325
0.0118763
0.0118198
0.0117628
0.011705
0.0116459
0.0115852
0.0115223
0.0114564
0.0113865
0.0113105
0.011226
0.0111238
0.0110071
0.0107559
0.0965161
0.0769269
0.0638091
0.0544898
0.0475921
0.0423247
0.0381999
0.0349018
0.0322179
0.030001
0.0281459
0.0265763
0.0252349
0.0240783
0.0230732
0.0221933
0.021418
0.0207308
0.0201183
0.0195698
0.0190762
0.0186303
0.0182258
0.0178576
0.0175213
0.0172132
0.0169302
0.0166696
0.0164289
0.0162061
0.0159994
0.0158072
0.0156281
0.0154609
0.0153043
0.0151573
0.015019
0.0148885
0.014765
0.0146478
0.0145362
0.0144296
0.0143274
0.014229
0.0141342
0.0140423
0.0139531
0.0138663
0.0137816
0.0136987
0.0136176
0.0135379
0.0134597
0.0133828
0.0133072
0.0132329
0.0131597
0.0130877
0.0130169
0.0129473
0.0128788
0.0128115
0.0127454
0.0126804
0.0126165
0.0125537
0.0124919
0.0124311
0.0123712
0.0123122
0.012254
0.0121964
0.0121394
0.0120827
0.0120263
0.0119698
0.0119132
0.011856
0.0117981
0.0117389
0.0116781
0.0116153
0.01155
0.0114814
0.0114085
0.0113295
0.0112422
0.0111376
0.0110189
0.0107673
0.0965139
0.0769225
0.0638029
0.0544819
0.0475826
0.0423138
0.0381875
0.034888
0.032203
0.0299852
0.0281298
0.0265603
0.0252193
0.0240634
0.0230588
0.0221795
0.0214046
0.0207178
0.0201055
0.0195572
0.0190637
0.0186178
0.0182134
0.0178452
0.0175091
0.0172013
0.0169186
0.0166584
0.0164183
0.0161962
0.0159905
0.0157994
0.0156216
0.0154558
0.0153009
0.0151558
0.0150196
0.0148913
0.0147702
0.0146554
0.0145464
0.0144425
0.014343
0.0142474
0.0141553
0.0140662
0.0139798
0.0138957
0.0138136
0.0137334
0.0136548
0.0135776
0.0135019
0.0134275
0.0133543
0.0132823
0.0132116
0.013142
0.0130736
0.0130064
0.0129404
0.0128757
0.0128121
0.0127497
0.0126886
0.0126285
0.0125696
0.0125117
0.0124549
0.0123989
0.0123438
0.0122894
0.0122355
0.0121821
0.012129
0.012076
0.0120227
0.011969
0.0119145
0.0118587
0.0118014
0.011742
0.0116803
0.0116157
0.0115475
0.0114741
0.0113937
0.0112983
0.0111906
0.0109585
0.0965118
0.0769183
0.0637968
0.0544741
0.0475731
0.0423025
0.0381743
0.0348727
0.0321855
0.0299657
0.028109
0.0265389
0.0251981
0.0240427
0.0230389
0.0221603
0.0213861
0.0206999
0.0200881
0.0195401
0.019047
0.0186014
0.0181972
0.0178294
0.0174936
0.0171863
0.0169043
0.0166449
0.0164059
0.0161853
0.0159811
0.015792
0.0156165
0.0154532
0.0153012
0.0151593
0.0150265
0.014902
0.0147849
0.0146744
0.0145698
0.0144704
0.0143756
0.0142845
0.0141966
0.0141117
0.0140295
0.0139495
0.0138717
0.0137956
0.0137212
0.0136483
0.0135768
0.0135066
0.0134376
0.0133699
0.0133034
0.0132381
0.0131741
0.0131113
0.0130499
0.0129898
0.012931
0.0128736
0.0128175
0.0127628
0.0127094
0.0126573
0.0126065
0.0125569
0.0125086
0.0124613
0.0124151
0.0123699
0.0123255
0.0122817
0.0122385
0.0121954
0.0121521
0.0121082
0.0120631
0.0120166
0.0119684
0.0119185
0.0118664
0.0118113
0.0117524
0.0116841
0.0116055
0.0114227
0.0965097
0.076914
0.0637906
0.054466
0.0475631
0.0422903
0.0381599
0.034856
0.0321664
0.0299447
0.0280876
0.0265187
0.0251795
0.0240257
0.023023
0.0221452
0.0213713
0.0206848
0.0200724
0.0195235
0.0190292
0.0185824
0.018177
0.0178081
0.0174716
0.0171638
0.0168817
0.0166227
0.0163845
0.0161652
0.015963
0.0157764
0.0156036
0.0154433
0.0152945
0.0151561
0.0150272
0.0149067
0.0147938
0.0146875
0.014587
0.0144916
0.0144006
0.0143134
0.0142293
0.014148
0.0140691
0.0139922
0.0139172
0.0138437
0.0137717
0.013701
0.0136318
0.0135638
0.0134971
0.0134317
0.0133677
0.013305
0.0132438
0.0131839
0.0131254
0.0130684
0.0130127
0.0129586
0.0129058
0.0128544
0.0128044
0.0127557
0.0127082
0.012662
0.0126169
0.0125728
0.0125297
0.0124874
0.0124457
0.0124046
0.0123636
0.0123225
0.0122809
0.0122381
0.0121934
0.0121467
0.0120981
0.0120475
0.0119949
0.0119398
0.0118823
0.0118206
0.0117686
0.0116679
0.0965077
0.0769097
0.0637842
0.0544574
0.047552
0.0422763
0.0381419
0.034833
0.0321364
0.0299065
0.0280549
0.0265055
0.0251906
0.0240587
0.0230714
0.0222008
0.0214263
0.0207326
0.0201082
0.0195439
0.0190325
0.0185681
0.0181458
0.0177613
0.0174111
0.0170917
0.0168003
0.0165342
0.016291
0.0160685
0.0158647
0.0156778
0.0155062
0.0153485
0.0152033
0.0150692
0.0149449
0.0148293
0.0147209
0.0146187
0.0145215
0.0144286
0.0143393
0.014253
0.0141692
0.0140876
0.014008
0.0139304
0.0138546
0.0137804
0.0137078
0.0136367
0.013567
0.0134987
0.0134317
0.0133661
0.013302
0.0132393
0.013178
0.0131183
0.01306
0.0130033
0.012948
0.0128943
0.0128421
0.0127913
0.012742
0.0126942
0.0126477
0.0126026
0.0125587
0.0125161
0.0124746
0.0124341
0.0123945
0.0123558
0.0123176
0.0122796
0.0122415
0.0122018
0.012159
0.0121141
0.012068
0.012021
0.0119726
0.0119224
0.0118704
0.0118153
0.0117688
0.0116944
0.0965056
0.0769055
0.0637779
0.0544489
0.047541
0.0422624
0.0381244
0.0348109
0.0321079
0.0298741
0.0292253
0.0289101
0.0284301
0.0277028
0.0267818
0.0257505
0.0246813
0.0236267
0.0226202
0.0216814
0.0208199
0.0200388
0.0193368
0.0187102
0.0181538
0.0176616
0.0172268
0.0168421
0.0165001
0.0161932
0.0159142
0.0156549
0.0154365
0.0152548
0.0151008
0.0149676
0.0148498
0.0147432
0.0146451
0.0145531
0.0144655
0.0143809
0.0142985
0.0142181
0.0141418
0.0140705
0.014004
0.0139417
0.013883
0.0138274
0.0137741
0.013723
0.0136735
0.0136256
0.0135791
0.013534
0.0134902
0.0134478
0.0134066
0.0133666
0.0133279
0.0132903
0.0132539
0.0132187
0.0131847
0.0131517
0.0131199
0.0130891
0.0130594
0.0130308
0.0130034
0.012977
0.0129517
0.0129274
0.012904
0.0128815
0.0128595
0.0128378
0.012816
0.012792
0.0126841
0.0125587
0.0124375
0.0123266
0.0122264
0.0121349
0.0120503
0.0119685
0.0118979
0.011802
0.0965036
0.0769012
0.0637713
0.0544398
0.0475286
0.0422453
0.0380995
0.0347723
0.0320322
0.0299356
0.164244
0.21551
0.215114
0.196422
0.174346
0.154045
0.136839
0.122724
0.111312
0.102162
0.0948773
0.0891287
0.084645
0.081203
0.0786154
0.0767218
0.075383
0.0744764
0.0738944
0.073544
0.0733482
0.0732418
0.0732038
0.0732329
0.0733126
0.0734207
0.0735376
0.0736506
0.0737531
0.0738438
0.0739257
0.074005
0.0740741
0.0741354
0.0741884
0.0742411
0.0743061
0.0743961
0.0745236
0.0746972
0.0749226
0.0752038
0.0755445
0.0759467
0.0764093
0.0769327
0.0775193
0.0781713
0.0788896
0.0796746
0.0805265
0.0814448
0.0824287
0.0834768
0.0845874
0.0857584
0.0869874
0.0882714
0.089606
0.0909865
0.0924082
0.0938671
0.0953602
0.0968842
0.0984376
0.100023
0.101659
0.103383
0.105436
0.107442
0.0548939
0.0339397
0.0241263
0.0189814
0.016065
0.0143185
0.0132303
0.0125257
0.012064
0.0116968
0.0965017
0.0768971
0.0637652
0.0544315
0.047518
0.0422318
0.0380825
0.0347509
0.0320049
0.0299027
0.16423
0.215612
0.215075
0.196075
0.173641
0.15299
0.135464
0.121068
0.109414
0.100059
0.0926052
0.0867198
0.0821314
0.0786166
0.0759879
0.0740845
0.0727659
0.0719069
0.0713964
0.0711358
0.0710401
0.0710368
0.0710675
0.0710872
0.0710632
0.0709721
0.0707981
0.070531
0.0701658
0.0697016
0.0691401
0.0684866
0.0677631
0.0669766
0.0661363
0.0652536
0.0643407
0.0634086
0.0624647
0.0615162
0.0605708
0.0596358
0.0587179
0.0578235
0.0569589
0.0561333
0.0553528
0.0546221
0.0539478
0.0533375
0.0527993
0.0523412
0.0519712
0.0516968
0.0515256
0.0514649
0.0515219
0.0517025
0.052012
0.0524544
0.0530329
0.0537488
0.0546013
0.0555893
0.0567125
0.0579725
0.0593812
0.0609489
0.0628427
0.0647245
0.0375325
0.0253649
0.0191409
0.0156466
0.0135584
0.0122577
0.0114243
0.0108665
0.0104783
0.0100863
0.0964997
0.076893
0.0637591
0.0544234
0.0475075
0.0422184
0.0380652
0.0347287
0.0319757
0.0298645
0.163756
0.215078
0.214663
0.195796
0.173458
0.152858
0.135351
0.120953
0.10929
0.0999251
0.0924685
0.0865936
0.0820333
0.0785675
0.0760115
0.0742058
0.0730099
0.0722975
0.071955
0.0718809
0.0719866
0.0721968
0.0724495
0.0726959
0.0729005
0.0730386
0.0730937
0.0730558
0.0729199
0.0726857
0.0723552
0.0719328
0.071425
0.0708395
0.0701853
0.0694726
0.068712
0.0679135
0.0670868
0.0662409
0.0653835
0.0645205
0.0636565
0.0627947
0.0619361
0.061078
0.0602195
0.0593608
0.0585006
0.0576368
0.0567673
0.0558906
0.0550056
0.0541113
0.0532072
0.0522933
0.0513704
0.0504401
0.0495048
0.0485678
0.0476338
0.0467088
0.0458005
0.0449184
0.0440748
0.0432846
0.0425712
0.0419529
0.0415402
0.0410563
0.024287
0.016907
0.013163
0.0110522
0.00976671
0.00893831
0.008382
0.00797931
0.00767065
0.0072788
0.0964978
0.0768891
0.0637535
0.0544161
0.0474984
0.0422075
0.0380523
0.0347135
0.0319582
0.029845
0.163593
0.214892
0.214502
0.195655
0.173323
0.152719
0.135203
0.120795
0.109121
0.0997495
0.0922895
0.0864155
0.0818611
0.0784068
0.0758685
0.0740872
0.0729228
0.0722489
0.0719518
0.0719297
0.0720934
0.0723668
0.0726878
0.0730075
0.0732899
0.0735093
0.073648
0.073694
0.0736407
0.073486
0.0732301
0.0728767
0.0724319
0.0719037
0.0713036
0.0706457
0.0699448
0.0692154
0.0684713
0.0677248
0.0669867
0.0662659
0.0655963
0.0649793
0.0644089
0.0638781
0.0633814
0.0629148
0.0624756
0.0620638
0.0616807
0.0613275
0.0610037
0.0607077
0.0604374
0.0601908
0.0599654
0.0597578
0.0595636
0.0593779
0.0591959
0.059012
0.0588208
0.0586169
0.0583966
0.0581593
0.0579163
0.0576905
0.0576367
0.057822
0.0346765
0.0247899
0.0197918
0.0169066
0.0150437
0.0137354
0.0128159
0.0120892
0.0114633
0.0107311
0.096496
0.0768854
0.0637482
0.0544092
0.0474901
0.0421977
0.0380408
0.0347001
0.0319428
0.0298273
0.163391
0.214614
0.214222
0.195398
0.173092
0.152508
0.135005
0.120605
0.108936
0.0995662
0.092108
0.0862369
0.0816872
0.0782403
0.0757124
0.0739451
0.0727981
0.0721453
0.0718726
0.0718781
0.0720723
0.0723792
0.0727366
0.0730955
0.0734194
0.0736817
0.0738635
0.0739505
0.0739336
0.0738074
0.0735692
0.07322
0.0727645
0.0722107
0.0715716
0.0708634
0.0701034
0.0693087
0.0684951
0.0676768
0.0668655
0.0660707
0.0652996
0.0645576
0.0638479
0.063172
0.062531
0.0619255
0.0613695
0.0608659
0.0604085
0.0599908
0.0596077
0.0592556
0.0589327
0.0586395
0.0583787
0.0581527
0.0579628
0.057811
0.0577001
0.0576334
0.0576147
0.0576485
0.0577418
0.0579044
0.0581572
0.0585306
0.0591842
0.0601799
0.036242
0.026193
0.021254
0.0185264
0.0168704
0.0157739
0.0149793
0.0143331
0.0137299
0.0129657
0.0964942
0.0768818
0.0637432
0.0544031
0.0474829
0.0421895
0.0380316
0.03469
0.0319317
0.0298151
0.163251
0.214398
0.213976
0.195142
0.172835
0.152255
0.134757
0.120362
0.108699
0.099336
0.0918851
0.086022
0.0814814
0.0780447
0.0755282
0.0737734
0.0726398
0.0720011
0.071743
0.0717636
0.0719733
0.0722965
0.0726714
0.0730497
0.0733952
0.0736812
0.0738878
0.0739983
0.074
0.0738831
0.07364
0.0732678
0.072769
0.0721516
0.0714304
0.0706255
0.0697581
0.0688493
0.0679184
0.0669817
0.0660526
0.0651409
0.0642538
0.063396
0.0625704
0.0617785
0.0610196
0.0602924
0.0595948
0.058925
0.0582806
0.0576592
0.0570585
0.0564759
0.0559091
0.055356
0.054815
0.054285
0.0537647
0.0532535
0.0527514
0.052259
0.0517775
0.0513093
0.0508583
0.0504299
0.0500365
0.0496879
0.0494796
0.0492866
0.0299863
0.0217121
0.0175593
0.0152296
0.0138337
0.0129198
0.0122625
0.0117289
0.0112591
0.0106526
0.0964924
0.0768784
0.0637385
0.0543975
0.0474767
0.0421828
0.0380247
0.0346831
0.031925
0.0298085
0.163178
0.214255
0.213775
0.1949
0.172564
0.151966
0.134459
0.120063
0.108403
0.0990486
0.0916095
0.0857609
0.0812369
0.0778179
0.0753193
0.0735814
0.0724628
0.0718364
0.0715872
0.071613
0.0718253
0.0721494
0.0725258
0.0729083
0.0732629
0.0735644
0.0737926
0.0739286
0.0739544
0.0738531
0.0736087
0.0732111
0.0726592
0.0719605
0.0711336
0.0702044
0.0692005
0.0681488
0.0670731
0.0659931
0.0649236
0.0638754
0.0628555
0.0618679
0.0609139
0.0599929
0.0591033
0.0582422
0.0574067
0.0565935
0.0557993
0.0550206
0.054254
0.0534962
0.0527439
0.0519942
0.0512443
0.0504921
0.0497355
0.048973
0.0482034
0.0474266
0.0466428
0.0458536
0.0450623
0.0442735
0.0434983
0.0427422
0.0420897
0.0412725
0.0245702
0.0173315
0.0137058
0.0116668
0.0103983
0.00953042
0.00888139
0.0083401
0.00786422
0.00724551
0.0964907
0.076875
0.0637341
0.0543924
0.0474712
0.0421772
0.0380192
0.0346779
0.0319201
0.0298033
0.16305
0.213991
0.213424
0.194514
0.172177
0.151596
0.134116
0.119749
0.108122
0.0987995
0.0913948
0.0855837
0.0811011
0.0777276
0.0752775
0.0735894
0.0725199
0.0719399
0.0717341
0.0718009
0.0720545
0.0724244
0.0728561
0.0733087
0.0737525
0.0741643
0.0745219
0.0747994
0.0749664
0.0749887
0.074832
0.074472
0.0739015
0.0731316
0.072192
0.0711241
0.0699715
0.0687753
0.0675698
0.0663818
0.0652298
0.0641258
0.063076
0.0620821
0.061143
0.0602552
0.059414
0.0586153
0.0578553
0.0571306
0.056438
0.0557743
0.0551364
0.0545217
0.0539281
0.0533537
0.0527974
0.0522585
0.051737
0.0512333
0.0507486
0.0502849
0.0498452
0.0494338
0.0490572
0.0487239
0.0484509
0.048252
0.0482382
0.0481486
0.0286291
0.020154
0.0159049
0.0135271
0.0120748
0.0111184
0.0104435
0.00992077
0.00948906
0.00896506
0.096489
0.0768719
0.0637301
0.0543881
0.0474672
0.0421741
0.038018
0.0346797
0.0319271
0.0298171
0.163252
0.214114
0.21337
0.194309
0.17188
0.151271
0.133824
0.119549
0.10807
0.0989535
0.0918094
0.08631
0.082182
0.0791952
0.077151
0.075875
0.075213
0.0750295
0.0752075
0.0756488
0.0762739
0.0770212
0.0778445
0.0787097
0.0795895
0.0804575
0.0812802
0.0820098
0.0825831
0.0829236
0.0829541
0.0826205
0.0819075
0.0808425
0.0794905
0.0779382
0.076276
0.0745863
0.072937
0.0713789
0.0699455
0.068656
0.0675173
0.0665275
0.0656788
0.0649592
0.0643586
0.0638678
0.0634758
0.0631702
0.0629385
0.0627692
0.0626526
0.0625809
0.062548
0.0625497
0.0625828
0.0626455
0.062737
0.0628571
0.0630067
0.0631875
0.0634023
0.0636555
0.0639541
0.0643089
0.0647436
0.065292
0.0661249
0.0672171
0.0392229
0.0270922
0.0209539
0.0174812
0.015349
0.0139542
0.0129907
0.0122795
0.0117161
0.0111567
0.0964874
0.0768688
0.0637262
0.0543839
0.0474631
0.0421708
0.0380161
0.0346801
0.0319311
0.0298232
0.162898
0.213458
0.212817
0.194052
0.172162
0.152365
0.135997
0.123036
0.113056
0.105567
0.100114
0.0963053
0.0938114
0.0923546
0.0917033
0.0916661
0.092087
0.0928422
0.0938357
0.0949963
0.0962731
0.0976318
0.0990504
0.100515
0.102012
0.103526
0.105021
0.106436
0.107674
0.108594
0.109036
0.108861
0.107992
0.106431
0.104262
0.101622
0.0986735
0.0955815
0.0924977
0.0895519
0.0868475
0.0844602
0.0824391
0.0808087
0.0795727
0.0787138
0.0782478
0.0781612
0.0783865
0.078841
0.0794511
0.0801596
0.080926
0.0817229
0.0825332
0.0833469
0.0841588
0.0849669
0.0857708
0.0865719
0.0873722
0.0881748
0.0889837
0.0898047
0.0906468
0.0915251
0.0924733
0.093551
0.0950152
0.0967109
0.0516105
0.0331959
0.0243583
0.0196016
0.016823
0.0150985
0.0139762
0.0132107
0.0126697
0.0122093
0.0964858
0.0768658
0.0637226
0.0543804
0.0474607
0.042171
0.0380222
0.034698
0.0319846
0.0297387
0.0282283
0.0269577
0.0256943
0.0245562
0.0235222
0.0225823
0.0217298
0.0209589
0.0202637
0.019638
0.0190761
0.0185722
0.0181209
0.0177174
0.0173569
0.0170352
0.0167485
0.0164933
0.0162667
0.0160661
0.0158895
0.0157351
0.0156018
0.0154887
0.0153957
0.0153231
0.015271
0.015239
0.0152259
0.0152281
0.0152398
0.0152536
0.0152622
0.015259
0.0152399
0.0152015
0.0151434
0.0150672
0.0149753
0.014871
0.0147575
0.0146383
0.0145167
0.0143957
0.0142777
0.0141647
0.0140582
0.0139596
0.0138693
0.0137874
0.0137137
0.0136478
0.0135888
0.0135361
0.0134888
0.0134463
0.0134077
0.0133724
0.0133398
0.0133094
0.0132808
0.0132534
0.0132271
0.0132013
0.013176
0.0131507
0.0131254
0.0130996
0.0130731
0.0130435
0.0129403
0.01282
0.012702
0.0125917
0.0124897
0.012395
0.0123063
0.01222
0.0121445
0.0120375
0.0964842
0.0768628
0.0637188
0.0543762
0.0474567
0.0421675
0.0380201
0.034698
0.031988
0.0297442
0.0278674
0.0262823
0.024928
0.023759
0.0227407
0.0218468
0.0210564
0.0203533
0.0197246
0.01916
0.0186509
0.0181905
0.0177732
0.0173943
0.0170499
0.0167367
0.016452
0.0161936
0.0159595
0.0157482
0.0155586
0.0153899
0.0152416
0.0151139
0.0150074
0.0149235
0.0148638
0.014829
0.0148189
0.0148298
0.0148541
0.0148816
0.0149027
0.0149091
0.0148964
0.0148631
0.0148096
0.0147377
0.0146502
0.01455
0.0144404
0.0143246
0.0142052
0.0140845
0.0139644
0.0138466
0.0137324
0.0136228
0.0135188
0.0134208
0.0133293
0.0132444
0.0131661
0.0130943
0.0130288
0.0129691
0.0129149
0.0128657
0.0128211
0.0127805
0.0127435
0.0127095
0.0126781
0.0126489
0.0126214
0.0125951
0.0125697
0.0125447
0.0125193
0.0124922
0.0124617
0.0124284
0.0123935
0.0123573
0.0123196
0.01228
0.0122386
0.0121934
0.0121542
0.0120773
0.0964826
0.0768598
0.0637149
0.054372
0.0474526
0.0421643
0.0380185
0.0346992
0.0319939
0.029756
0.027882
0.0262953
0.0249374
0.0237639
0.0227409
0.0218422
0.0210472
0.0203395
0.019706
0.0191363
0.0186219
0.0181558
0.0177324
0.017347
0.0169957
0.0166754
0.0163832
0.0161171
0.0158752
0.0156562
0.0154589
0.0152828
0.0151277
0.0149943
0.0148839
0.0147993
0.0147437
0.0147207
0.0147325
0.0147754
0.0148381
0.0149057
0.0149631
0.014999
0.0150073
0.0149864
0.0149376
0.0148638
0.0147689
0.0146572
0.014534
0.0144028
0.0142671
0.0141287
0.0139909
0.0138561
0.0137264
0.0136033
0.013488
0.0133811
0.013283
0.0131941
0.0131141
0.0130431
0.0129805
0.012926
0.0128791
0.0128392
0.0128056
0.0127777
0.0127548
0.0127363
0.0127213
0.0127093
0.0126996
0.0126915
0.0126842
0.0126772
0.0126695
0.0126602
0.0126483
0.0126332
0.0126149
0.0125932
0.0125676
0.0125373
0.0125014
0.0124555
0.0124044
0.0122774
0.096481
0.0768566
0.0637107
0.0543671
0.0474471
0.0421584
0.0380125
0.034693
0.0319874
0.0297484
0.0278717
0.0262808
0.024918
0.0237397
0.0227121
0.0218089
0.0210096
0.0202976
0.0196599
0.019086
0.0185673
0.0180968
0.0176689
0.0172789
0.0169229
0.0165979
0.0163011
0.0160303
0.0157837
0.0155599
0.0153578
0.0151768
0.0150171
0.0148794
0.0147659
0.014681
0.0146306
0.0146229
0.0146666
0.0147602
0.0148884
0.0150276
0.0151521
0.0152434
0.0152934
0.0153004
0.0152671
0.0151987
0.0151012
0.0149824
0.0148501
0.0147087
0.0145629
0.0144164
0.0142724
0.0141336
0.0140022
0.0138801
0.0137685
0.0136684
0.0135805
0.013505
0.0134419
0.0133908
0.0133511
0.013322
0.0133024
0.0132911
0.0132867
0.0132878
0.0132928
0.0133003
0.0133087
0.0133166
0.0133229
0.0133263
0.0133257
0.0133203
0.0133091
0.0132914
0.0132665
0.0132338
0.013193
0.0131442
0.013087
0.0130208
0.0129448
0.0128536
0.0127499
0.0125558
0.0964794
0.0768535
0.0637064
0.0543618
0.0474412
0.0421519
0.0380055
0.0346856
0.0319796
0.0297398
0.0278615
0.0262679
0.0249016
0.0237191
0.0226867
0.0217784
0.0209737
0.0202561
0.0196127
0.0190328
0.0185081
0.0180317
0.0175978
0.0172019
0.0168402
0.0165096
0.0162073
0.0159312
0.0156793
0.0154502
0.0152425
0.0150556
0.0148894
0.0147448
0.0146244
0.0145342
0.0144836
0.0144893
0.0145818
0.014779
0.0150677
0.0154011
0.0157197
0.0159848
0.0161795
0.016301
0.0163553
0.0163525
0.0163044
0.0162212
0.0161286
0.0160339
0.0159432
0.0158609
0.0157903
0.0157334
0.0156913
0.0156639
0.0156505
0.0156493
0.0156583
0.0156751
0.0156971
0.0157214
0.0157456
0.0157672
0.015784
0.0157942
0.0157962
0.0157888
0.0157711
0.0157426
0.0157028
0.0156519
0.0155899
0.015517
0.0154337
0.0153404
0.0152375
0.0151256
0.0150048
0.0148756
0.0147384
0.0145936
0.0144411
0.0142805
0.0141111
0.0139271
0.0137313
0.0134448
0.0964778
0.0768503
0.0637018
0.0543561
0.0474344
0.042144
0.0379964
0.0346751
0.0319673
0.0297254
0.0278441
0.0262468
0.0248762
0.0236889
0.0226515
0.021738
0.0209277
0.0202044
0.0195551
0.0189693
0.0184384
0.0179556
0.0175154
0.0171131
0.0167452
0.0164084
0.0161002
0.0158182
0.0155605
0.0153254
0.0151113
0.0149173
0.0147427
0.0145882
0.0144559
0.0143537
0.0142941
0.0143112
0.0145375
0.0151112
0.0160394
0.0171515
0.0182412
0.0192096
0.0200157
0.0206582
0.021155
0.0215308
0.02181
0.0220141
0.0221545
0.0222796
0.0223812
0.0224517
0.0224859
0.0224812
0.0224378
0.0223577
0.0222446
0.0221027
0.0219367
0.0217507
0.0215486
0.0213339
0.0211092
0.0208768
0.0206383
0.0203951
0.0201482
0.0198984
0.0196462
0.0193923
0.0191369
0.0188804
0.0186231
0.0183654
0.0181074
0.0178495
0.0175916
0.017334
0.0170766
0.0168194
0.0165622
0.0163047
0.0160465
0.0157864
0.0155228
0.0152495
0.0149673
0.0146026
0.0964763
0.0768471
0.0636972
0.0543503
0.0474273
0.0421356
0.0379865
0.0346636
0.0319539
0.0297096
0.0278256
0.0262248
0.0248503
0.0236584
0.022616
0.0216968
0.0208806
0.0201509
0.0194947
0.0189017
0.0183633
0.0178728
0.0174248
0.0170148
0.0166392
0.016295
0.0159796
0.0156907
0.0154262
0.0151841
0.0149626
0.01476
0.0145747
0.0144062
0.0142545
0.014128
0.0140392
0.0140632
0.01493
0.017413
0.0214547
0.0260619
0.0302801
0.0337376
0.0363019
0.0380274
0.0390376
0.0394735
0.0394689
0.03914
0.038573
0.0378109
0.0369164
0.0359348
0.0349071
0.0338668
0.0328393
0.0318422
0.0308867
0.0299791
0.0291216
0.0283142
0.027555
0.0268408
0.0261683
0.0255338
0.0249336
0.0243643
0.0238226
0.0233058
0.0228112
0.0223365
0.02188
0.02144
0.021015
0.020604
0.0202058
0.0198197
0.0194447
0.0190803
0.0187255
0.0183798
0.0180422
0.0177118
0.0173875
0.0170672
0.0167488
0.0164255
0.0160951
0.0156935
0.0964748
0.076844
0.0636927
0.0543444
0.0474199
0.0421266
0.0379758
0.0346509
0.0319388
0.0296918
0.0278044
0.0261998
0.0248208
0.0236241
0.0225761
0.0216509
0.0208281
0.0200914
0.0194276
0.0188265
0.0182797
0.0177805
0.0173235
0.0169046
0.0165201
0.0161674
0.0158439
0.0155473
0.0152753
0.0150259
0.0147968
0.0145859
0.0143907
0.0142091
0.0140372
0.0138823
0.0137483
0.0138554
0.0184007
0.0305558
0.0475777
0.0627992
0.0725791
0.0770016
0.0772767
0.0749306
0.0711973
0.0669131
0.0625759
0.0584434
0.0546136
0.0511111
0.0479541
0.0451425
0.0426532
0.0404532
0.0385063
0.0367777
0.0352364
0.0338552
0.0326136
0.0314985
0.030487
0.0295578
0.0286967
0.0278935
0.0271402
0.0264309
0.0257607
0.0251255
0.024522
0.0239473
0.0233993
0.022876
0.0223758
0.0218975
0.02144
0.0210021
0.0205831
0.0201817
0.0197969
0.0194273
0.0190714
0.0187271
0.0183919
0.0180625
0.0177393
0.0174168
0.0170878
0.0167012
0.0964735
0.0768411
0.0636885
0.0543387
0.0474127
0.0421178
0.0379651
0.034638
0.0319235
0.0296735
0.0277827
0.0261742
0.0247907
0.0235888
0.0225351
0.0216035
0.0207735
0.0200289
0.0193565
0.0187461
0.0181894
0.0176797
0.0172121
0.0167823
0.0163872
0.0160244
0.0156913
0.0153858
0.0151056
0.0148483
0.0146116
0.0143932
0.0141894
0.0139964
0.0138038
0.0136115
0.0133837
0.0138905
0.0355258
0.079916
0.122202
0.143701
0.144526
0.133483
0.118176
0.10292
0.0895217
0.0784147
0.069443
0.0622609
0.0565111
0.0518806
0.0481179
0.0450214
0.0424371
0.0402559
0.0384139
0.0368269
0.0354201
0.0341502
0.0329904
0.0319225
0.0309334
0.0300128
0.0291526
0.0283462
0.0275878
0.0268726
0.0261966
0.0255562
0.0249488
0.0243719
0.0238238
0.0233032
0.022809
0.0223404
0.0218966
0.021477
0.0210807
0.0207068
0.0203539
0.0200205
0.0197046
0.0194035
0.019114
0.0188319
0.0185503
0.0182608
0.017931
0.0175498
0.0964723
0.0768387
0.0636847
0.0543336
0.0474061
0.0421094
0.0379547
0.0346253
0.031908
0.029655
0.0277606
0.0261479
0.0247596
0.0235521
0.0224922
0.0215535
0.0207156
0.0199622
0.0192801
0.018659
0.0180908
0.0175689
0.0170885
0.016646
0.0162384
0.0158636
0.0155197
0.0152045
0.0149156
0.0146507
0.0144079
0.0141861
0.013984
0.0138007
0.0136268
0.0134625
0.0132564
0.0138164
0.0378484
0.0876137
0.134858
0.156441
0.156167
0.143342
0.125775
0.108252
0.0928792
0.0801935
0.0700308
0.0619974
0.0556695
0.0506804
0.0467363
0.0436487
0.0411605
0.0390919
0.0373277
0.0357908
0.0344286
0.0332047
0.032093
0.0310747
0.0301353
0.0292637
0.0284505
0.0276884
0.026971
0.0262933
0.0256509
0.0250408
0.0244605
0.0239084
0.0233836
0.022886
0.0224157
0.0219732
0.021559
0.0211736
0.0208169
0.0204884
0.0201872
0.0199116
0.0196591
0.0194265
0.0192096
0.0190035
0.0187996
0.0185913
0.0183404
0.0180523
0.0964715
0.0768368
0.0636816
0.0543292
0.0474001
0.0421017
0.037945
0.0346132
0.0318933
0.029637
0.0277389
0.0261219
0.0247286
0.0235154
0.0224488
0.0215026
0.020656
0.0198927
0.0191996
0.0185662
0.0179844
0.0174479
0.0169523
0.0164941
0.0160713
0.0156824
0.0153258
0.0149997
0.0147012
0.0144281
0.0141794
0.0139572
0.0137654
0.013614
0.0135037
0.0134486
0.0133632
0.0139285
0.0369591
0.0860312
0.133692
0.155994
0.156172
0.143768
0.126557
0.109335
0.0941797
0.0816048
0.0714461
0.0633059
0.0567785
0.051562
0.0474172
0.0440389
0.0412321
0.0388643
0.0368413
0.0350936
0.0335683
0.0322245
0.0310298
0.029958
0.028988
0.028102
0.0272851
0.026525
0.0258115
0.0251367
0.0244946
0.0238811
0.023294
0.0227325
0.0221968
0.0216883
0.0212088
0.0207604
0.0203453
0.0199654
0.0196219
0.0193159
0.0190475
0.0188159
0.0186192
0.0184539
0.0183148
0.0181961
0.0180867
0.0179803
0.0178318
0.017665
0.096471
0.0768354
0.0636793
0.0543256
0.0473951
0.042095
0.0379363
0.0346021
0.0318794
0.0296199
0.027718
0.0260965
0.024698
0.0234788
0.0224052
0.0214508
0.0205948
0.0198206
0.019115
0.0184675
0.0178699
0.0173162
0.0168021
0.0163251
0.0158839
0.0154782
0.0151074
0.0147696
0.0144614
0.0141799
0.013926
0.0137077
0.0135413
0.0134644
0.0135132
0.0137562
0.0139781
0.0145726
0.0342112
0.0773648
0.120982
0.143527
0.145511
0.135225
0.120506
0.105836
0.0929185
0.0820699
0.0730738
0.065587
0.0592963
0.0540374
0.0495989
0.045796
0.0425134
0.0396717
0.0372093
0.0350745
0.0332215
0.0316089
0.0301991
0.0289584
0.0278564
0.0268663
0.025965
0.0251327
0.0243537
0.0236155
0.0229096
0.0222299
0.0215731
0.0209376
0.0203238
0.0197345
0.0191747
0.0186508
0.0181716
0.0177426
0.0173641
0.0170459
0.0167781
0.0165549
0.016373
0.0162302
0.0161239
0.0160509
0.0160046
0.0159807
0.0159557
0.0159252
0.0964707
0.0768346
0.0636777
0.0543229
0.0473911
0.0420893
0.0379286
0.0345922
0.0318667
0.029604
0.0276983
0.0260724
0.0246686
0.0234432
0.0223623
0.0213993
0.0205331
0.019747
0.0190274
0.0183638
0.0177477
0.0171733
0.0166368
0.0161364
0.0156723
0.0152461
0.0148593
0.0145102
0.0141938
0.013907
0.0136536
0.0134543
0.0133532
0.0134555
0.0139111
0.0149416
0.0158108
0.0163147
0.0172658
0.0210755
0.0287307
0.0377416
0.0460445
0.0530733
0.0581479
0.061091
0.0621137
0.0615986
0.0599353
0.0574683
0.0544919
0.0512791
0.0480401
0.044889
0.0419095
0.0391558
0.036656
0.0344174
0.0324312
0.0306789
0.0291349
0.0277706
0.0265563
0.025463
0.0244638
0.0235349
0.0226565
0.0218127
0.0209928
0.0201925
0.0194176
0.0186803
0.018002
0.0173587
0.0167378
0.0161332