/*--------------------------------*- C++ -*----------------------------------*\
| =========                 |                                                 |
| \\      /  F ield         | OpenFOAM: The Open Source CFD Toolbox           |
|  \\    /   O peration     | Version:  v2012                                 |
|   \\  /    A nd           | Website:  www.openfoam.com                      |
|    \\/     M anipulation  |                                                 |
\*---------------------------------------------------------------------------*/
FoamFile
{
    version     2.0;
    format      ascii;
    class       volScalarField;
    location    "400/air";
    object      GLeaf;
}
// * * * * * * * * * * * * * * * * * * * * * * * * * * * * * * * * * * * * * //

dimensions      [1 0 -3 0 0 0 0];


internalField   nonuniform List<scalar> 
287104
(
766.845
794.742
797.332
798.813
800.335
801.595
802.503
803.086
803.398
803.491
803.412
803.192
802.854
802.414
801.885
801.282
800.617
799.9
799.137
798.334
797.496
796.628
795.733
794.817
793.881
792.93
791.965
790.989
790.004
789.012
788.014
787.012
786.007
784.998
783.98
782.956
781.947
780.963
779.974
778.974
777.971
776.96
775.967
775.009
774.046
773.079
772.122
771.174
770.233
769.302
768.379
767.466
766.561
765.666
764.78
763.902
763.033
762.174
761.326
760.488
759.663
758.85
758.05
757.265
756.493
755.737
754.996
754.271
753.562
752.87
752.195
751.534
750.887
750.248
749.612
748.969
748.31
747.633
746.955
746.31
745.737
745.246
744.795
744.294
743.651
742.843
742.081
742.306
744.899
733.608
778.217
809.04
811.49
812.668
813.906
814.877
815.512
815.841
815.907
815.753
815.422
814.946
814.348
813.647
812.858
811.997
811.076
810.105
809.092
808.04
806.956
805.845
804.71
803.557
802.387
801.203
800.007
798.802
797.591
796.375
795.155
793.933
792.712
791.487
790.244
788.983
787.753
786.586
785.411
784.201
782.985
781.746
780.537
779.412
778.269
777.1
775.949
774.808
773.678
772.559
771.452
770.357
769.273
768.2
767.137
766.085
765.044
764.015
762.997
761.993
761.001
760.024
759.061
758.113
757.182
756.267
755.371
754.493
753.632
752.787
751.955
751.133
750.319
749.512
748.713
747.919
747.129
746.346
745.582
744.866
744.224
743.66
743.13
742.56
741.876
741.055
740.307
740.754
744.344
733.679
765.816
795.84
797.921
798.838
799.877
800.677
801.157
801.346
801.286
801.017
800.576
799.997
799.302
798.509
797.633
796.689
795.69
794.645
793.56
792.44
791.291
790.117
788.923
787.713
786.489
785.253
784.006
782.751
781.489
780.225
778.958
777.691
776.426
775.158
773.866
772.546
771.265
770.076
768.879
767.627
766.369
765.076
763.819
762.681
761.522
760.316
759.134
757.961
756.801
755.655
754.522
753.402
752.294
751.198
750.114
749.042
747.982
746.936
745.902
744.883
743.877
742.887
741.912
740.953
740.013
739.092
738.189
737.304
736.434
735.577
734.728
733.887
733.055
732.236
731.435
730.656
729.9
729.167
728.467
727.819
727.242
726.729
726.238
725.704
725.061
724.265
723.495
723.976
727.953
718.2
753.575
782.797
784.697
785.483
786.407
787.104
787.496
787.61
787.486
787.161
786.669
786.047
785.314
784.487
783.579
782.606
781.58
780.509
779.401
778.261
777.092
775.901
774.691
773.466
772.229
770.981
769.723
768.456
767.182
765.905
764.625
763.345
762.068
760.789
759.482
758.136
756.83
755.642
754.448
753.182
751.91
750.592
749.309
748.179
747.025
745.806
744.614
743.431
742.262
741.107
739.967
738.839
737.723
736.619
735.527
734.448
733.382
732.329
731.29
730.263
729.251
728.253
727.272
726.308
725.362
724.434
723.522
722.624
721.734
720.851
719.974
719.105
718.252
717.422
716.624
715.86
715.13
714.432
713.769
713.157
712.608
712.107
711.604
711.032
710.326
709.44
708.552
708.93
712.956
703.686
742.221
770.825
772.639
773.356
774.204
774.829
775.159
775.225
775.062
774.704
774.185
773.543
772.796
771.955
771.035
770.049
769.01
767.929
766.813
765.665
764.491
763.295
762.082
760.854
759.616
758.369
757.113
755.85
754.579
753.303
752.023
750.743
749.467
748.19
746.889
745.544
744.23
743.042
741.853
740.59
739.325
738.013
736.729
735.604
734.463
733.251
732.066
730.893
729.734
728.59
727.459
726.34
725.234
724.14
723.059
721.993
720.94
719.901
718.874
717.861
716.861
715.877
714.91
713.96
713.028
712.109
711.202
710.3
709.402
708.507
707.622
706.756
705.92
705.126
704.376
703.668
702.995
702.348
701.729
701.15
700.618
700.11
699.56
698.89
698.047
697.025
696.035
696.318
700.226
691.125
731.319
759.403
761.164
761.832
762.622
763.19
763.473
763.509
763.329
762.959
762.442
761.798
761.049
760.206
759.281
758.288
757.244
756.158
755.039
753.89
752.717
751.521
750.309
749.083
747.847
746.604
745.356
744.103
742.844
741.578
740.306
739.032
737.76
736.491
735.213
733.902
732.598
731.388
730.19
728.942
727.701
726.436
725.177
724.037
722.903
721.719
720.559
719.414
718.286
717.172
716.072
714.985
713.912
712.855
711.816
710.793
709.787
708.794
707.817
706.855
705.91
704.983
704.076
703.187
702.313
701.451
700.594
699.741
698.893
698.059
697.25
696.484
695.774
695.128
694.543
694.008
693.504
693.018
692.546
692.098
691.677
691.257
690.767
690.123
689.289
688.317
687.458
687.84
691.547
682.041
720.658
748.261
749.98
750.603
751.331
751.831
752.055
752.054
751.865
751.501
751.032
750.394
749.649
748.807
747.879
746.884
745.837
744.75
743.632
742.486
741.316
740.125
738.916
737.694
736.46
735.222
733.983
732.745
731.506
730.262
729.012
727.756
726.499
725.251
724.025
722.805
721.555
720.306
719.089
717.889
716.717
715.576
714.417
713.269
712.184
711.124
710.092
709.088
708.11
707.152
706.213
705.296
704.403
703.536
702.692
701.87
701.068
700.283
699.518
698.773
698.05
697.349
696.669
696.006
695.357
694.717
694.085
693.466
692.871
692.314
691.814
691.388
691.047
690.795
690.624
690.518
690.449
690.393
690.336
690.281
690.213
690.128
689.956
689.617
689.082
688.412
687.835
688.262
691.306
679.698
710.155
737.291
738.973
739.559
740.226
740.643
740.772
740.684
740.431
740.034
739.594
738.922
738.154
737.312
736.394
735.414
734.386
733.321
732.225
731.101
729.953
728.784
727.594
726.387
725.166
723.937
722.712
721.496
720.29
719.088
717.884
716.675
715.481
714.324
713.26
712.298
711.274
710.088
708.97
708.015
707.13
706.392
705.623
704.632
703.763
703.045
702.339
701.671
701.032
700.424
699.859
699.342
698.876
698.462
698.095
697.768
697.481
697.234
697.029
696.867
696.749
696.671
696.629
696.617
696.63
696.67
696.741
696.855
697.028
697.275
697.607
698.034
698.555
699.168
699.862
700.619
701.409
702.196
702.947
703.651
704.27
704.826
705.256
705.5
705.546
705.461
705.456
706.243
708.157
691.308
699.785
726.458
728.111
728.673
729.299
729.647
729.668
729.43
728.98
728.313
727.288
726.273
725.341
724.458
723.552
722.607
721.626
720.613
719.568
718.492
717.388
716.257
715.101
713.921
712.753
711.609
710.498
709.435
708.424
707.461
706.537
705.638
704.751
703.907
703.232
702.793
702.247
701.266
700.369
699.844
699.426
699.317
699.168
698.434
697.905
697.747
697.584
697.478
697.412
697.388
697.405
697.476
697.598
697.766
697.967
698.197
698.454
698.742
699.062
699.412
699.788
700.182
700.586
700.997
701.416
701.852
702.318
702.832
703.407
704.053
704.772
705.559
706.409
707.312
708.258
709.234
710.213
711.159
712.048
712.882
713.713
714.409
714.896
715.154
715.232
715.233
715.367
716.24
717.633
697.846
689.55
715.761
717.385
717.932
718.54
718.858
718.814
718.442
717.668
716.023
709.871
706.32
704.06
702.489
701.224
700.111
699.071
698.059
697.044
696.005
694.934
693.827
692.682
691.497
690.322
689.154
688.001
686.878
685.806
684.794
683.841
682.925
681.95
680.942
680.117
679.645
678.965
677.405
675.92
675.091
674.408
674.251
674.08
672.817
671.85
671.546
671.188
670.884
670.619
670.408
670.274
670.225
670.257
670.353
670.502
670.7
670.953
671.263
671.63
672.047
672.506
672.995
673.511
674.056
674.642
675.285
676.004
676.809
677.706
678.692
679.755
680.885
682.069
683.296
684.552
685.818
687.072
688.288
689.484
690.853
693.727
696.262
698.231
699.659
700.706
701.603
702.66
704.521
706.818
687.789
679.457
705.206
706.799
707.327
707.923
708.246
708.231
707.891
706.787
701.408
649.841
633.067
626.728
623.898
622.182
620.771
619.382
617.922
616.38
614.777
613.144
611.514
609.917
608.374
606.897
605.491
604.157
602.904
601.746
600.688
599.717
598.798
597.899
597.025
596.438
596.404
596.109
594.413
592.705
591.924
591.225
591.199
591.119
589.217
587.6
586.935
586.097
585.267
584.439
583.649
582.925
582.269
581.666
581.095
580.554
580.052
579.601
579.209
578.874
578.591
578.354
578.162
578.027
577.966
578.004
578.159
578.445
578.863
579.403
580.055
580.805
581.641
582.555
583.534
584.559
585.606
586.641
587.633
588.828
592.651
613.564
630.257
642.61
651.662
658.405
663.734
668.518
673.91
680.022
666.027
669.51
694.803
696.366
696.873
697.449
697.766
697.763
697.445
696.304
690.509
636.62
619.249
612.976
610.422
609.029
607.932
606.818
605.589
604.232
602.772
601.243
599.683
598.129
596.614
595.158
593.768
592.441
591.171
589.973
588.868
587.87
586.961
586.066
585.184
584.664
584.935
584.925
582.901
580.795
580.035
579.364
579.638
579.948
577.613
575.573
574.886
573.914
572.913
571.887
570.873
569.884
568.896
567.874
566.798
565.672
564.514
563.335
562.131
560.898
559.633
558.346
557.056
555.798
554.609
553.523
552.565
551.745
551.067
550.529
550.134
549.888
549.796
549.862
550.076
550.417
550.857
551.36
551.899
552.57
554.745
571.105
585.293
596.676
605.784
613.24
619.727
626.135
634.04
644.598
638.695
659.713
684.557
686.093
686.581
687.139
687.441
687.428
687.103
685.959
680.178
626.958
609.769
603.577
601.07
599.714
598.652
597.577
596.391
595.08
593.668
592.19
590.682
589.184
587.736
586.371
585.102
583.912
582.766
581.653
580.59
579.621
578.764
577.958
577.188
576.871
577.609
578.09
575.892
573.508
572.947
572.483
573.269
574.288
571.799
569.621
569.306
568.661
568.042
567.467
566.962
566.509
566.06
565.58
565.069
564.543
564.005
563.443
562.842
562.187
561.478
560.727
559.959
559.2
558.467
557.761
557.07
556.371
555.643
554.871
554.047
553.168
552.23
551.219
550.115
548.897
547.548
546.062
544.456
542.847
542.424
553.785
562.987
569.939
575.415
580.075
584.492
589.476
596.94
609.039
608.915
650.064
674.468
675.983
676.456
676.997
677.285
677.263
676.934
675.804
670.113
617.831
600.934
594.839
592.363
591.018
589.967
588.905
587.735
586.444
585.054
583.597
582.107
580.623
579.19
577.861
576.666
575.587
574.555
573.505
572.422
571.361
570.401
569.53
568.74
568.496
569.573
570.455
567.968
565.139
564.614
564.174
565.267
566.839
563.992
561.398
561.182
560.597
560.101
559.703
559.387
559.084
558.738
558.39
558.065
557.786
557.544
557.311
557.062
556.801
556.553
556.354
556.236
556.217
556.293
556.447
556.652
556.883
557.126
557.37
557.611
557.834
558.015
558.117
558.105
557.945
557.619
557.123
556.489
555.911
557.197
570.904
580.866
587.554
592.154
595.463
598.147
601.264
606.461
615.083
608.861
640.557
664.53
666.032
666.499
667.03
667.308
667.275
666.939
665.816
660.213
608.817
592.2
586.199
583.754
582.424
581.384
580.337
579.184
577.913
576.545
575.111
573.641
572.167
570.739
569.429
568.301
567.355
566.499
565.597
564.551
563.394
562.257
561.223
560.332
560.097
561.448
562.718
559.963
556.658
556.122
555.652
556.958
559.04
555.826
552.747
552.558
552.003
551.621
551.363
551.122
550.782
550.318
549.806
549.338
548.941
548.582
548.217
547.831
547.469
547.173
546.971
546.875
546.874
546.94
547.046
547.174
547.318
547.478
547.657
547.846
548.023
548.159
548.223
548.197
548.084
547.905
547.698
547.523
547.591
549.674
564.481
575.855
584.277
590.868
596.358
601.232
606.221
612.821
621.419
612.075
631.186
654.734
656.229
656.701
657.237
657.52
657.485
657.14
656.014
650.481
599.9
583.544
577.631
575.221
573.913
572.894
571.869
570.74
569.495
568.154
566.748
565.303
563.842
562.412
561.098
560.006
559.184
558.543
557.882
556.981
555.782
554.433
553.135
552.038
551.72
553.258
554.888
551.92
548.156
547.577
547.05
548.482
551.02
547.49
543.94
543.783
543.335
543.15
543.056
542.823
542.32
541.617
540.902
540.305
539.827
539.395
538.955
538.514
538.116
537.802
537.581
537.434
537.324
537.215
537.083
536.925
536.744
536.54
536.299
535.99
535.571
535.006
534.275
533.385
532.365
531.268
530.158
529.099
528.219
528.843
541.27
550.656
557.292
562.131
565.916
569.097
572.532
577.871
586.431
582.019
621.949
645.073
646.561
647.044
647.602
647.914
647.905
647.57
646.441
640.963
591.129
575.016
569.188
566.816
565.533
564.54
563.541
562.438
561.219
559.905
558.528
557.109
555.664
554.227
552.883
551.777
551.024
550.588
550.23
549.597
548.469
546.934
545.292
543.855
543.316
544.903
546.829
543.708
539.518
538.857
538.246
539.704
542.609
538.829
534.869
534.798
534.575
534.675
534.727
534.386
533.577
532.541
531.588
530.863
530.314
529.829
529.358
528.924
528.566
528.297
528.088
527.892
527.667
527.396
527.078
526.724
526.335
525.891
525.354
524.676
523.818
522.764
521.525
520.142
518.675
517.203
515.804
514.559
513.613
514.02
525.201
534.116
540.664
545.463
549.077
552.145
555.581
561.089
570.754
569.763
612.853
635.552
637.028
637.515
638.096
638.457
638.515
638.242
637.165
631.775
582.667
566.81
561.075
558.733
557.462
556.476
555.483
554.386
553.172
551.864
550.495
549.088
547.648
546.193
544.793
543.612
542.84
542.531
542.475
542.21
541.307
539.697
537.708
535.822
534.91
536.386
538.529
535.331
530.79
530.043
529.352
530.764
533.961
530.051
525.834
525.994
526.178
526.655
526.818
526.262
525.081
523.738
522.653
521.939
521.474
521.109
520.794
520.548
520.383
520.271
520.161
520.012
519.814
519.578
519.321
519.044
518.726
518.321
517.783
517.077
516.199
515.173
514.052
512.905
511.81
510.846
510.09
509.611
509.53
510.942
523.888
534.619
542.841
549.166
554.256
558.778
563.473
569.78
579.364
575.52
603.909
626.185
627.642
628.119
628.705
629.104
629.244
629.095
628.191
623.08
575.06
559.593
553.981
551.64
550.333
549.297
548.249
547.095
545.824
544.464
543.051
541.616
540.163
538.688
537.235
535.956
535.093
534.817
535.015
535.188
534.701
533.238
531.039
528.703
527.308
528.524
530.804
527.611
522.816
521.992
521.212
522.484
525.87
521.927
517.609
518.132
518.824
519.642
519.762
518.843
517.257
515.71
514.671
514.168
513.98
513.919
513.918
513.973
514.065
514.151
514.198
514.2
514.18
514.16
514.134
514.071
513.919
513.626
513.164
512.54
511.794
510.99
510.204
509.507
508.962
508.62
508.517
508.67
509.154
511.775
527.437
539.994
549.427
556.644
562.46
567.461
572.11
577.455
584.375
575.826
595.116
616.976
618.413
618.872
619.442
619.845
620.03
620.001
619.388
615.114
571.009
556.605
551.112
548.58
547.029
545.781
544.587
543.371
542.127
540.882
539.661
538.482
537.33
536.162
534.964
533.835
533.03
532.826
533.272
533.938
534.061
533.036
530.892
528.226
526.297
527.104
529.4
526.221
521.188
520.195
519.165
520.028
523.31
519.171
514.624
515.303
516.174
516.829
516.341
514.611
512.383
510.568
509.601
509.355
509.495
509.781
510.205
510.722
511.26
511.773
512.251
512.708
513.16
513.594
513.962
514.206
514.277
514.158
513.873
513.48
513.056
512.682
512.427
512.346
512.471
512.811
513.354
514.08
515.092
518.152
534.94
548.174
557.973
565.386
571.224
575.944
579.906
584.008
588.637
576.315
586.454
607.904
609.325
609.77
610.319
610.694
610.842
610.784
610.474
609.523
605.452
603.402
602.35
601.614
600.963
600.312
599.623
598.878
598.073
597.21
596.298
595.346
594.336
593.223
591.962
590.61
589.422
588.784
588.958
589.693
590.187
589.549
587.479
584.433
581.814
582.064
584.356
581.158
575.87
574.841
573.713
574.386
577.932
573.81
569.215
570.313
571.474
571.907
570.729
568.241
565.6
563.837
563.215
563.375
563.838
564.327
564.765
565.16
565.532
565.908
566.314
566.758
567.213
567.622
567.911
568.033
567.983
567.8
567.551
567.319
567.179
567.187
567.381
567.773
568.353
569.088
569.925
570.804
571.688
572.705
574.87
576.929
578.788
580.514
582.089
583.43
584.627
586.315
588.519
573.985
577.889
598.931
600.339
600.772
601.307
601.664
601.788
601.707
601.444
600.982
600.29
599.558
598.834
598.077
597.278
596.443
595.579
594.688
593.776
592.845
591.905
590.964
590.013
589.003
587.856
586.554
585.269
584.399
584.37
585.179
586.151
586.239
584.792
581.943
579.014
578.761
580.917
577.787
572.457
571.432
570.193
570.589
574.338
570.572
566.335
567.903
569.134
569.054
567.097
564.084
561.454
560.109
559.979
560.452
560.986
561.364
561.606
561.798
562.011
562.278
562.592
562.903
563.137
563.227
563.136
562.88
562.519
562.139
561.822
561.637
561.626
561.807
562.176
562.713
563.376
564.116
564.877
565.614
566.311
567.004
567.771
568.585
569.427
570.245
570.934
571.447
571.938
572.997
574.797
561.338
569.385
590.021
591.415
591.836
592.357
592.703
592.822
592.742
592.495
592.112
591.715
591.142
590.469
589.723
588.921
588.077
587.201
586.3
585.379
584.441
583.493
582.549
581.614
580.656
579.589
578.332
576.947
575.763
575.295
575.806
576.876
577.472
576.67
574.206
571.142
570.38
572.235
569.049
563.584
562.472
561.005
560.967
564.802
561.297
557.165
558.682
559.317
558.161
555.162
551.61
548.982
547.821
547.662
547.765
547.679
547.356
546.942
546.571
546.29
546.065
545.819
545.46
544.923
544.197
543.322
542.381
541.469
540.669
540.035
539.59
539.334
539.252
539.314
539.48
539.706
539.947
540.171
540.363
540.533
540.711
540.903
541.164
541.457
541.708
541.864
541.968
542.186
543.098
545.372
535.788
560.923
581.152
582.534
582.943
583.449
583.783
583.895
583.811
583.564
583.183
582.734
582.164
581.507
580.781
580.002
579.179
578.321
577.436
576.528
575.599
574.656
573.715
572.797
571.903
570.971
569.887
568.599
567.288
566.442
566.513
567.406
568.265
568.037
566.094
563.141
562.037
563.582
560.329
555.085
553.929
552.32
551.956
555.671
552.656
548.775
550.263
550.427
548.644
545.408
542.268
540.417
539.878
539.889
539.765
539.322
538.729
538.191
537.782
537.444
537.058
536.526
535.794
534.877
533.852
532.818
531.873
531.086
530.488
530.078
529.834
529.725
529.714
529.762
529.832
529.889
529.91
529.885
529.818
529.724
529.617
529.492
529.356
529.18
528.943
528.671
528.44
528.378
529.154
531.953
523.929
552.509
572.333
573.704
574.101
574.594
574.917
575.021
574.933
574.682
574.298
573.815
573.241
572.593
571.886
571.129
570.331
569.498
568.636
567.748
566.836
565.901
564.958
564.037
563.18
562.38
561.544
560.54
559.371
558.364
558.023
558.537
559.346
559.424
557.879
555.088
553.772
555.073
551.762
545.675
544.438
542.728
542.14
546.827
544.452
540.931
542.556
542.659
540.949
538.307
536.205
535.362
535.368
535.473
535.327
535.055
534.906
534.964
535.127
535.22
535.108
534.759
534.218
533.583
532.969
532.462
532.112
531.922
531.87
531.92
532.031
532.169
532.305
532.412
532.47
532.466
532.399
532.272
532.085
531.838
531.528
531.151
530.719
530.248
529.772
529.329
528.917
528.588
529.075
531.531
522.127
544.199
563.62
564.98
565.367
565.847
566.161
566.258
566.165
565.912
565.528
565.035
564.461
563.821
563.126
562.386
561.608
560.797
559.957
559.091
558.2
557.279
556.333
555.392
554.523
553.79
553.18
552.564
551.793
550.963
550.451
550.603
551.179
551.3
549.899
547.098
545.542
546.73
543.602
542.088
540.907
539.139
538.343
538.819
537.285
534.59
537.09
538.056
537.385
536.092
535.373
535.404
535.687
535.797
535.791
535.93
536.31
536.787
537.127
537.173
536.906
536.432
535.887
535.394
535.032
534.83
534.77
534.817
534.927
535.065
535.202
535.319
535.399
535.435
535.422
535.36
535.249
535.084
534.852
534.541
534.151
533.71
533.262
532.859
532.528
532.234
531.875
531.493
531.897
533.994
522.737
536.119
555.147
556.497
556.872
557.34
557.645
557.737
557.642
557.388
557.004
556.512
555.941
555.307
554.62
553.892
553.13
552.338
551.521
550.681
549.818
548.924
547.991
547.032
546.112
545.346
544.828
544.524
544.24
543.867
543.529
543.543
543.936
544.046
542.688
539.7
537.709
538.797
535.841
519.681
518.178
515.964
514.9
530.327
529.77
527.836
531.272
532.972
532.953
532.27
531.868
531.764
531.636
531.495
531.592
532.038
532.653
533.135
533.289
533.111
532.731
532.331
532.034
531.894
531.91
532.045
532.252
532.489
532.727
532.945
533.133
533.284
533.395
533.465
533.496
533.486
533.428
533.306
533.106
532.827
532.499
532.18
531.932
531.786
531.705
531.568
531.244
530.861
531.282
533.123
520.661
528.501
547.154
548.493
548.856
549.31
549.605
549.69
549.59
549.335
548.952
548.464
547.896
547.267
546.588
545.869
545.12
544.347
543.552
542.738
541.906
541.049
540.151
539.198
538.224
537.343
536.728
536.487
536.51
536.616
536.679
536.829
537.24
537.531
536.495
533.523
530.946
531.831
530.532
563.92
560.495
555.395
551.656
518.158
517.911
517.164
521.919
524.318
524.758
524.448
524.219
524.113
524.096
524.336
524.948
525.764
526.454
526.79
526.779
526.583
526.391
526.34
526.465
526.732
527.083
527.47
527.853
528.212
528.537
528.821
529.063
529.262
529.42
529.538
529.613
529.637
529.598
529.486
529.303
529.076
528.856
528.706
528.657
528.682
528.674
528.486
528.054
527.629
528.058
529.667
516.524
521.671
539.988
541.319
541.669
542.11
542.392
542.467
542.359
542.096
541.706
541.214
540.644
540.013
539.336
538.624
537.886
537.13
536.36
535.576
534.78
533.969
533.127
532.222
531.239
530.242
529.408
528.949
528.903
529.189
529.572
529.952
530.504
531.163
530.972
528.886
526.379
527.642
524.633
477.906
470.368
466.182
466.316
506.439
510.267
510.874
516.338
518.533
518.851
518.69
518.709
518.892
519.254
519.868
520.633
521.285
521.616
521.639
521.534
521.493
521.616
521.925
522.361
522.848
523.327
523.78
524.192
524.56
524.883
525.161
525.395
525.587
525.739
525.848
525.909
525.912
525.853
525.738
525.591
525.453
525.368
525.364
525.425
525.472
525.384
525.063
524.554
524.164
524.621
525.971
512.254
516
534.04
535.369
535.716
536.153
536.435
536.509
536.399
536.133
535.735
535.233
534.648
534
533.305
532.577
531.828
531.069
530.306
529.54
528.774
528.007
527.228
526.4
525.474
524.446
523.426
522.638
522.227
522.296
522.685
523.16
523.786
524.737
525.585
525.181
523.709
525.193
515.185
250.449
244.951
246.752
255.662
502.746
511.919
511.52
515.051
515.201
514.677
514.584
514.996
515.593
516.238
516.885
517.429
517.755
517.873
517.921
518.059
518.369
518.824
519.371
519.937
520.466
520.929
521.336
521.687
521.986
522.235
522.439
522.605
522.736
522.832
522.886
522.892
522.848
522.76
522.648
522.541
522.465
522.433
522.432
522.415
522.302
522.014
521.532
520.968
520.617
521.089
522.295
508.318
511.786
529.621
530.958
531.316
531.773
532.083
532.193
532.122
531.895
531.531
531.053
530.479
529.826
529.11
528.347
527.552
526.741
525.93
525.124
524.33
523.551
522.782
521.995
521.134
520.146
519.06
518.041
517.263
516.958
517.134
517.582
518.24
519.338
520.984
522.342
522.405
525.005
510.036
67.1688
64.1537
71.5432
87.8763
504.851
516.984
513.598
513.966
511.906
510.893
511.007
511.536
511.997
512.372
512.76
513.186
513.647
514.167
514.787
515.522
516.334
517.126
517.856
518.49
519.01
519.413
519.73
519.973
520.158
520.302
520.419
520.519
520.601
520.657
520.677
520.656
520.597
520.512
520.42
520.329
520.239
520.131
519.975
519.733
519.366
518.851
518.224
517.607
517.242
517.677
518.818
504.851
509.149
526.846
528.186
528.555
529.038
529.395
529.573
529.59
529.468
529.22
528.859
528.395
527.833
527.181
526.447
525.645
524.792
523.91
523.016
522.124
521.244
520.378
519.512
518.606
517.594
516.454
515.297
514.285
513.699
513.67
514.092
514.866
516.18
518.391
521.09
522.262
526.001
509.582
-4.31426
-5.94208
4.78912
24.9755
511.614
523.132
516.073
513.799
510.297
508.891
508.501
508.181
507.785
507.65
508.019
508.886
510.083
511.426
512.783
514.082
515.252
516.225
516.995
517.584
518.005
518.278
518.456
518.57
518.653
518.734
518.828
518.931
519.029
519.102
519.135
519.121
519.059
518.954
518.807
518.602
518.317
517.953
517.49
516.918
516.234
515.451
514.613
513.812
513.254
513.525
514.729
501.294
507.957
525.57
526.891
527.241
527.715
528.077
528.284
528.361
528.331
528.212
528.012
527.732
527.369
526.914
526.361
525.709
524.967
524.15
523.277
522.371
521.445
520.504
519.543
518.537
517.423
516.141
514.722
513.451
512.581
512.306
512.675
513.548
515.991
518.927
523.085
525.104
529.775
510.968
-25.484
-32.5471
-21.2791
3.14961
525.631
536.083
524.786
519.725
513.892
510.514
508.092
506.101
504.812
504.602
505.465
507.046
508.895
510.683
512.262
513.611
514.08
514.928
515.537
515.966
516.253
516.428
516.547
516.647
516.769
516.942
517.162
517.387
517.558
517.663
517.724
517.715
517.62
517.422
517.113
516.679
516.087
515.242
514.126
512.801
511.338
509.81
508.289
506.874
505.796
505.76
507.194
495.201
507.842
525.422
526.709
527.011
527.424
527.716
527.85
527.862
527.786
527.649
527.471
527.259
527.011
526.716
526.361
525.934
525.427
524.842
524.192
523.496
522.771
522.021
521.238
520.393
519.41
518.17
516.85
515.321
514.047
513.273
512.927
513.378
515.684
519.072
525.022
528.992
537.658
520.336
-13.7757
-25.6692
-19.1899
3.98046
539.421
552
536.688
529.233
520.519
514.64
510.319
507.344
505.846
505.758
506.658
507.98
509.282
510.362
511.218
511.937
511.888
512.375
512.732
513.016
513.266
513.506
513.774
514.059
514.381
514.783
515.212
515.574
515.787
515.804
515.647
515.342
514.787
513.912
512.749
511.361
509.86
508.475
507.361
506.562
506.056
505.77
505.613
505.536
505.686
506.783
509.379
498.202
508.296
525.895
527.167
527.437
527.796
528.007
528.032
527.907
527.672
527.362
527.01
526.637
526.254
525.864
525.464
525.045
524.598
524.118
523.613
523.101
522.612
522.163
521.758
521.368
520.896
520.117
518.183
516.771
515.37
514.238
514.256
513.875
515.017
517.136
523.124
530.459
554.394
539.131
-19.9389
-37.5663
-32.8507
-5.71269
562.759
578.779
548.177
535.249
523.329
515.855
510.927
507.982
506.617
506.341
506.616
506.996
507.278
507.474
507.694
508.013
507.734
508.181
508.646
509.123
509.591
510.077
510.642
511.268
511.836
512.231
512.399
512.374
512.078
511.503
510.762
509.98
509.404
509.22
509.438
510.006
510.826
511.794
512.817
513.822
514.743
515.527
516.142
516.608
517.14
518.515
521.071
508.17
508.844
526.486
527.772
528.056
528.423
528.629
528.63
528.455
528.138
527.712
527.209
526.654
526.067
525.46
524.84
524.209
523.563
522.899
522.219
521.542
520.909
520.373
519.984
519.757
519.622
519.353
522.061
521.019
519.744
518.542
514.271
513.54
513.651
513.242
515.32
522.608
587.154
573.317
56.1247
34.7924
38.0597
67.0289
605.031
623.629
550.992
531.901
516.953
507.463
501.621
498.697
497.811
498.134
498.979
499.829
500.492
501.012
501.647
502.613
503.081
503.997
504.687
505.383
506.196
506.938
507.391
507.518
507.407
507.352
507.539
507.98
508.795
510.042
511.585
513.264
514.929
516.47
517.829
518.991
519.972
520.803
521.518
522.137
522.66
523.071
523.356
523.539
523.828
524.931
526.908
512.602
509.187
526.853
528.156
528.466
528.869
529.122
529.175
529.054
528.788
528.402
527.924
527.372
526.764
526.109
525.416
524.687
523.919
523.105
522.236
521.316
520.377
519.49
518.755
518.264
517.997
517.51
505.011
503.507
501.773
500.247
510.573
509.385
508.429
506.016
501.157
473.72
494.098
517.477
512.802
507.81
504.072
500.959
498.187
496.65
496.258
496.798
497.739
498.619
499.283
499.875
500.135
501.374
502.63
503.626
504.506
505.72
507.398
509.346
511.52
513.754
515.903
517.862
519.568
521.001
522.165
523.077
523.769
524.288
524.684
524.998
525.269
525.522
525.776
526.03
526.26
526.432
526.511
526.506
526.609
527.46
528.955
513.957
509.239
526.899
528.197
528.508
528.918
529.187
529.267
529.183
528.964
528.633
528.214
527.727
527.184
526.594
525.961
525.287
524.57
523.798
522.953
522.02
521.001
519.937
518.927
518.092
517.534
518.333
555.379
553.258
549.675
545.974
507.248
505.689
505.757
505.508
504.333
475.108
501.341
533.197
529.272
524.076
519.868
516.565
514.337
512.967
512.437
512.374
513.176
513.951
514.858
516.181
516.953
518.321
519.48
520.465
521.346
522.214
523.031
523.766
524.411
524.982
525.478
525.898
526.249
526.521
526.712
526.806
526.818
526.831
526.858
526.902
526.974
527.084
527.235
527.416
527.588
527.688
527.667
527.547
527.529
528.198
529.329
514.01
509.065
526.703
527.989
528.282
528.674
528.924
528.988
528.89
528.658
528.319
527.897
527.411
526.875
526.296
525.679
525.026
524.333
523.59
522.776
521.866
520.834
519.684
518.497
517.371
516.413
515.269
474.642
467.687
464.122
464.422
499.541
501.544
503.357
505.145
506.359
477.008
504.338
538.856
536.321
532.157
528.976
526.67
525.189
524.442
524.294
524.645
525.396
526.226
526.785
527.269
526.964
527.161
527.19
527.13
527.031
526.993
526.981
526.974
527.001
527.086
527.186
527.264
527.305
527.306
527.271
527.209
527.132
527.057
527.002
526.98
526.999
527.069
527.186
527.329
527.442
527.456
527.331
527.122
527.037
527.597
528.567
513.247
508.786
526.408
527.686
527.967
528.342
528.572
528.613
528.492
528.237
527.876
527.437
526.94
526.4
525.825
525.218
524.58
523.903
523.178
522.382
521.484
520.45
519.276
518.031
516.739
514.675
505.864
246.221
238.764
240.246
249.647
495.114
502.8
505.421
507.752
509.587
479.382
506.364
541.876
539.822
535.847
532.625
530.246
528.62
527.674
527.309
527.402
527.844
528.33
528.638
528.815
528.189
528.07
527.858
527.614
527.341
527.146
526.98
526.863
526.803
526.775
526.741
526.68
526.59
526.481
526.361
526.243
526.138
526.06
526.018
526.016
526.056
526.138
526.251
526.362
526.415
526.351
526.16
525.92
525.812
526.307
527.21
512.039
508.512
526.131
527.412
527.694
528.065
528.286
528.312
528.17
527.889
527.5
527.033
526.511
525.954
525.369
524.763
524.133
523.47
522.758
521.973
521.082
520.057
518.9
517.67
516.322
513.371
498.107
56.514
49.4107
55.3192
72.135
493.055
505.512
508.433
510.469
511.804
480.986
507.435
544.387
542.29
537.775
534.281
531.826
530.11
528.968
528.265
528.005
528.083
528.258
528.378
528.416
527.668
527.445
527.154
526.85
526.516
526.265
526.024
525.82
525.66
525.522
525.377
525.22
525.058
524.904
524.764
524.648
524.564
524.519
524.513
524.545
524.607
524.688
524.773
524.828
524.809
524.689
524.482
524.255
524.147
524.612
525.536
510.626
508.313
525.936
527.23
527.527
527.914
528.149
528.185
528.046
527.76
527.358
526.869
526.319
525.728
525.109
524.469
523.809
523.122
522.39
521.59
520.693
519.675
518.532
517.299
515.877
512.376
493.994
-23.733
-31.2036
-23.4855
-3.10555
492.446
506.878
509.162
510.021
510.027
479.594
507.628
546.17
544.315