/*--------------------------------*- C++ -*----------------------------------*\
| =========                 |                                                 |
| \\      /  F ield         | OpenFOAM: The Open Source CFD Toolbox           |
|  \\    /   O peration     | Version:  v2012                                 |
|   \\  /    A nd           | Website:  www.openfoam.com                      |
|    \\/     M anipulation  |                                                 |
\*---------------------------------------------------------------------------*/
FoamFile
{
    version     2.0;
    format      ascii;
    class       volScalarField;
    location    "400/air";
    object      ILambda_68_0;
}
// * * * * * * * * * * * * * * * * * * * * * * * * * * * * * * * * * * * * * //

dimensions      [1 0 -3 0 0 0 0];


internalField   nonuniform List<scalar> 
287104
(
166.746
166.757
166.764
166.771
166.779
166.786
166.793
166.8
166.808
166.815
166.822
166.829
166.836
166.843
166.85
166.857
166.864
166.871
166.878
166.884
166.891
166.898
166.905
166.912
166.918
166.925
166.932
166.939
166.946
166.952
166.959
166.966
166.973
166.979
166.986
166.993
167
167.007
167.013
167.02
167.027
167.034
167.041
167.047
167.054
167.061
167.068
167.075
167.082
167.088
167.095
167.102
167.109
167.115
167.122
167.129
167.136
167.142
167.149
167.155
167.162
167.168
167.175
167.183
167.191
167.199
167.205
167.208
167.207
167.206
167.209
167.22
167.24
167.263
167.281
167.29
167.292
167.295
167.301
167.309
167.314
167.316
167.322
167.335
167.353
167.364
167.343
167.237
167.55
173.165
166.746
166.756
166.763
166.771
166.778
166.785
166.792
166.799
166.807
166.814
166.821
166.828
166.835
166.842
166.848
166.855
166.862
166.869
166.876
166.882
166.889
166.896
166.903
166.909
166.916
166.923
166.929
166.936
166.943
166.949
166.956
166.963
166.969
166.976
166.983
166.989
166.996
167.003
167.009
167.016
167.023
167.03
167.036
167.043
167.05
167.057
167.063
167.07
167.077
167.083
167.09
167.097
167.103
167.11
167.117
167.123
167.13
167.137
167.143
167.15
167.156
167.162
167.169
167.177
167.185
167.193
167.199
167.201
167.201
167.199
167.202
167.213
167.233
167.256
167.274
167.283
167.285
167.287
167.294
167.301
167.306
167.307
167.311
167.323
167.34
167.353
167.333
167.231
167.541
173.015
166.746
166.756
166.763
166.77
166.777
166.785
166.792
166.799
166.806
166.813
166.82
166.827
166.834
166.841
166.847
166.854
166.861
166.868
166.874
166.881
166.888
166.894
166.901
166.908
166.914
166.921
166.927
166.934
166.941
166.947
166.954
166.96
166.967
166.974
166.98
166.987
166.994
167
167.007
167.014
167.02
167.027
167.033
167.04
167.047
167.053
167.06
167.067
167.073
167.08
167.087
167.093
167.1
167.106
167.113
167.12
167.126
167.133
167.139
167.145
167.152
167.158
167.165
167.172
167.181
167.188
167.194
167.196
167.196
167.194
167.197
167.208
167.228
167.251
167.269
167.277
167.279
167.281
167.288
167.295
167.299
167.3
167.304
167.315
167.332
167.344
167.324
167.222
167.526
172.864
166.745
166.756
166.762
166.77
166.777
166.784
166.791
166.798
166.805
166.812
166.819
166.826
166.833
166.839
166.846
166.853
166.86
166.866
166.873
166.88
166.886
166.893
166.899
166.906
166.912
166.919
166.925
166.932
166.939
166.945
166.952
166.958
166.965
166.971
166.978
166.984
166.991
166.997
167.004
167.011
167.017
167.024
167.03
167.037
167.044
167.05
167.057
167.063
167.07
167.076
167.083
167.09
167.096
167.103
167.109
167.116
167.122
167.129
167.135
167.141
167.147
167.154
167.16
167.168
167.176
167.184
167.189
167.192
167.191
167.189
167.192
167.203
167.223
167.246
167.263
167.272
167.274
167.276
167.282
167.289
167.293
167.294
167.297
167.306
167.323
167.338
167.317
167.204
167.488
172.788
166.745
166.755
166.762
166.769
166.776
166.783
166.79
166.797
166.804
166.811
166.818
166.825
166.832
166.838
166.845
166.852
166.858
166.865
166.872
166.878
166.885
166.891
166.898
166.904
166.911
166.917
166.924
166.93
166.937
166.943
166.949
166.956
166.962
166.969
166.975
166.982
166.988
166.995
167.001
167.008
167.014
167.021
167.027
167.034
167.04
167.047
167.053
167.06
167.066
167.073
167.079
167.086
167.092
167.099
167.105
167.111
167.118
167.124
167.131
167.137
167.143
167.149
167.156
167.163
167.171
167.178
167.184
167.186
167.185
167.184
167.186
167.197
167.217
167.239
167.257
167.265
167.267
167.269
167.274
167.282
167.286
167.286
167.288
167.296
167.312
167.33
167.316
167.193
167.42
172.614
166.745
166.755
166.762
166.769
166.776
166.783
166.79
166.797
166.804
166.81
166.817
166.824
166.831
166.837
166.844
166.851
166.857
166.864
166.87
166.877
166.883
166.89
166.896
166.903
166.909
166.915
166.922
166.928
166.935
166.941
166.947
166.954
166.96
166.967
166.973
166.979
166.986
166.992
166.999
167.005
167.011
167.018
167.024
167.031
167.037
167.043
167.05
167.056
167.062
167.069
167.075
167.082
167.088
167.094
167.1
167.107
167.113
167.119
167.125
167.131
167.137
167.143
167.15
167.157
167.164
167.172
167.177
167.179
167.178
167.176
167.179
167.189
167.209
167.231
167.248
167.256
167.257
167.259
167.264
167.271
167.275
167.275
167.275
167.281
167.294
167.315
167.32
167.216
167.354
172.171
166.745
166.755
166.761
166.768
166.775
166.782
166.789
166.796
166.803
166.81
166.816
166.823
166.83
166.836
166.843
166.85
166.856
166.863
166.869
166.875
166.882
166.888
166.895
166.901
166.907
166.914
166.92
166.926
166.933
166.939
166.945
166.951
166.958
166.964
166.97
166.977
166.983
166.989
166.996
167.002
167.008
167.014
167.021
167.027
167.033
167.04
167.046
167.052
167.058
167.064
167.071
167.077
167.083
167.089
167.095
167.101
167.107
167.113
167.119
167.125
167.13
167.136
167.142
167.149
167.156
167.163
167.168
167.17
167.169
167.166
167.168
167.179
167.198
167.22
167.237
167.244
167.244
167.245
167.25
167.256
167.259
167.259
167.259
167.262
167.269
167.288
167.323
167.297
167.385
171.395
166.744
166.755
166.761
166.768
166.775
166.782
166.789
166.796
166.802
166.809
166.816
166.822
166.829
166.835
166.842
166.848
166.855
166.861
166.868
166.874
166.88
166.887
166.893
166.899
166.906
166.912
166.918
166.924
166.931
166.937
166.943
166.949
166.956
166.962
166.968
166.974
166.981
166.987
166.993
166.999
167.005
167.012
167.018
167.024
167.03
167.036
167.042
167.048
167.054
167.06
167.066
167.072
167.078
167.084
167.09
167.096
167.102
167.107
167.113
167.119
167.124
167.129
167.135
167.142
167.149
167.156
167.16
167.162
167.16
167.157
167.159
167.169
167.188
167.209
167.226
167.233
167.233
167.233
167.237
167.243
167.247
167.246
167.246
167.247
167.246
167.253
167.315
167.44
167.651
170.583
166.744
166.754
166.761
166.768
166.775
166.781
166.788
166.795
166.802
166.808
166.815
166.822
166.828
166.835
166.841
166.848
166.854
166.861
166.867
166.874
166.88
166.886
166.893
166.899
166.905
166.912
166.918
166.924
166.931
166.937
166.943
166.95
166.956
166.963
166.969
166.975
166.982
166.988
166.994
167.001
167.007
167.014
167.02
167.026
167.032
167.039
167.045
167.051
167.057
167.064
167.07
167.076
167.082
167.088
167.094
167.1
167.106
167.112
167.117
167.123
167.128
167.134
167.14
167.147
167.154
167.161
167.166
167.168
167.166
167.164
167.166
167.176
167.195
167.217
167.234
167.241
167.241
167.242
167.246
167.252
167.256
167.256
167.257
167.259
167.249
167.227
167.285
167.599
168.187
170.494
166.744
166.754
166.76
166.767
166.774
166.781
166.788
166.794
166.801
166.808
166.815
166.822
166.829
166.836
166.843
166.85
166.856
166.863
166.87
166.877
166.884
166.891
166.898
166.905
166.911
166.918
166.925
166.932
166.939
166.945
166.952
166.959
166.966
166.973
166.98
166.987
166.994
167.001
167.008
167.015
167.022
167.03
167.037
167.044
167.051
167.058
167.065
167.072
167.079
167.086
167.093
167.1
167.107
167.114
167.12
167.127
167.134
167.141
167.147
167.154
167.16
167.166
167.173
167.181
167.189
167.196
167.202
167.204
167.203
167.202
167.204
167.215
167.235
167.257
167.275
167.283
167.284
167.284
167.289
167.295
167.299
167.299
167.301
167.305
167.292
167.234
167.227
167.672
168.9
171.482
166.744
166.754
166.76
166.767
166.774
166.781
166.787
166.794
166.801
166.808
166.816
166.824
166.832
166.84
166.848
166.856
166.864
166.872
166.88
166.888
166.896
166.903
166.911
166.918
166.926
166.933
166.94
166.948
166.955
166.962
166.969
166.977
166.984
166.991
166.999
167.006
167.013
167.021
167.029
167.036
167.044
167.052
167.059
167.067
167.075
167.083
167.091
167.099
167.106
167.114
167.122
167.13
167.138
167.146
167.154
167.162
167.169
167.177
167.185
167.193
167.2
167.208
167.216
167.225
167.234
167.243
167.25
167.254
167.254
167.254
167.258
167.27
167.291
167.315
167.333
167.342
167.344
167.345
167.35
167.357
167.36
167.36
167.361
167.367
167.359
167.284
167.17
167.541
169.402
173.368
166.744
166.754
166.76
166.767
166.773
166.78
166.787
166.793
166.8
166.807
166.815
166.823
166.831
166.839
166.847
166.855
166.863
166.871
166.879
166.887
166.894
166.902
166.909
166.917
166.924
166.931
166.938
166.945
166.953
166.96
166.967
166.974
166.981
166.988
166.995
167.002
167.01
167.017
167.025
167.032
167.04
167.047
167.055
167.062
167.07
167.078
167.085
167.093
167.101
167.109
167.117
167.125
167.133
167.141
167.15
167.158
167.166
167.175
167.183
167.192
167.2
167.209
167.218
167.228
167.238
167.248
167.257
167.262
167.263
167.265
167.27
167.284
167.306
167.331
167.352
167.362
167.365
167.368
167.375
167.383
167.388
167.389
167.391
167.397
167.399
167.344
167.174
167.261
169.159
175.175
166.744
166.753
166.76
166.766
166.773
166.78
166.786
166.793
166.8
166.806
166.814
166.822
166.83
166.838
166.846
166.854
166.862
166.87
166.878
166.886
166.893
166.901
166.908
166.915
166.922
166.929
166.936
166.943
166.95
166.957
166.964
166.971
166.977
166.984
166.991
166.998
167.005
167.013
167.02
167.027
167.034
167.041
167.048
167.055
167.062
167.069
167.077
167.084
167.091
167.098
167.105
167.113
167.12
167.127
167.134
167.142
167.149
167.156
167.163
167.17
167.177
167.185
167.192
167.201
167.21
167.219
167.226
167.23
167.23
167.23
167.235
167.248
167.269
167.294
167.314
167.324
167.328
167.331
167.338
167.347
167.353
167.356
167.358
167.363
167.368
167.344
167.226
167.12
168.338
175.24
166.744
166.753
166.759
166.766
166.773
166.779
166.786
166.793
166.799
166.806
166.814
166.822
166.83
166.838
166.846
166.854
166.861
166.869
166.877
166.884
166.892
166.899
166.907
166.914
166.921
166.928
166.935
166.942
166.948
166.955
166.962
166.968
166.975
166.982
166.99
166.997
167.004
167.011
167.017
167.024
167.031
167.038
167.045
167.052
167.059
167.067
167.074
167.081
167.088
167.095
167.102
167.109
167.116
167.123
167.13
167.137
167.144
167.151
167.158
167.165
167.171
167.178
167.185
167.193
167.201
167.209
167.215
167.217
167.217
167.215
167.218
167.229
167.249
167.272
167.29
167.298
167.298
167.299
167.303
167.309
167.312
167.312
167.311
167.313
167.311
167.288
167.232
167.236
168.078
173.349
166.744
166.753
166.759
166.766
166.773
166.779
166.786
166.792
166.799
166.806
166.813
166.821
166.829
166.837
166.845
166.853
166.861
166.868
166.876
166.883
166.891
166.898
166.905
166.913
166.919
166.926
166.933
166.94
166.947
166.953
166.96
166.967
166.974
166.981
166.989
166.996
167.003
167.009
167.016
167.022
167.029
167.036
167.043
167.05
167.058
167.065
167.072
167.079
167.086
167.093
167.101
167.108
167.115
167.122
167.129
167.136
167.144
167.151
167.158
167.165
167.172
167.179
167.186
167.195
167.203
167.212
167.218
167.221
167.221
167.221
167.224
167.236
167.257
167.28
167.299
167.307
167.309
167.31
167.315
167.321
167.324
167.324
167.325
167.327
167.324
167.284
167.2
167.283
168.477
173.413
166.743
166.753
166.759
166.766
166.772
166.779
166.785
166.792
166.798
166.805
166.813
166.821
166.829
166.836
166.844
166.852
166.86
166.867
166.875
166.882
166.89
166.897
166.904
166.911
166.918
166.925
166.932
166.939
166.945
166.952
166.959
166.966
166.973
166.981
166.988
166.994
167
167.007
167.014
167.021
167.028
167.034
167.042
167.049
167.056
167.063
167.07
167.077
167.085
167.092
167.099
167.106
167.114
167.121
167.128
167.136
167.143
167.15
167.158
167.165
167.172
167.179
167.187
167.196
167.205
167.214
167.221
167.225
167.226
167.226
167.23
167.243
167.265
167.29
167.309
167.319
167.323
167.325
167.332
167.34
167.345
167.347
167.35
167.356
167.358
167.314
167.178
167.182
168.635
174.912
166.743
166.753
166.759
166.766
166.772
166.779
166.785
166.792
166.798
166.805
166.813
166.82
166.828
166.836
166.844
166.851
166.859
166.867
166.874
166.882
166.889
166.896
166.903
166.91
166.917
166.924
166.931
166.937
166.944
166.951
166.957
166.965
166.972
166.979
166.984
166.989
166.995
167.002
167.01
167.018
167.025
167.032
167.039
167.046
167.053
167.06
167.067
167.074
167.081
167.088
167.095
167.102
167.11
167.117
167.124
167.132
167.139
167.146
167.154
167.161
167.168
167.175
167.183
167.192
167.201
167.21
167.217
167.221
167.222
167.222
167.227
167.24
167.261
167.286
167.306
167.316
167.319
167.322
167.329
167.337
167.342
167.344
167.345
167.351
167.357
167.324
167.177
167.065
168.359
175.143
166.743
166.753
166.759
166.766
166.772
166.779
166.785
166.791
166.798
166.805
166.812
166.82
166.828
166.835
166.843
166.851
166.858
166.866
166.873
166.881
166.888
166.895
166.902
166.909
166.916
166.923
166.929
166.936
166.942
166.949
166.956
166.963
166.97
166.974
166.978
166.982
166.987
166.994
167.003
167.012
167.02
167.026
167.032
167.039
167.046
167.053
167.059
167.066
167.073
167.08
167.087
167.094
167.1
167.107
167.114
167.121
167.128
167.135
167.142
167.149
167.155
167.162
167.17
167.178
167.186
167.194
167.201
167.203
167.203
167.202
167.206
167.217
167.237
167.261
167.279
167.287
167.288
167.289
167.294
167.3
167.302
167.301
167.298
167.3
167.303
167.288
167.194
167.062
167.834
173.224
166.743
166.753
166.759
166.765
166.772
166.778
166.785
166.791
166.798
166.804
166.812
166.819
166.827
166.835
166.842
166.85
166.857
166.865
166.872
166.879
166.886
166.893
166.9
166.907
166.913
166.92
166.926
166.932
166.938
166.945
166.951
166.957
166.962
166.965
166.968
166.973
166.979
166.986
166.994
167.002
167.009
167.016
167.022
167.028
167.035
167.041
167.048
167.054
167.061
167.067
167.074
167.08
167.087
167.093
167.1
167.106
167.112
167.119
167.125
167.131
167.137
167.143
167.149
167.156
167.163
167.171
167.176
167.177
167.176
167.174
167.176
167.186
167.205
167.226
167.243
167.25
167.249
167.248
167.251
167.255
167.256
167.252
167.247
167.245
167.246
167.244
167.215
167.136
167.46
171.358
166.743
166.753
166.759
166.765
166.772
166.778
166.785
166.791
166.797
166.804
166.811
166.818
166.826
166.833
166.84
166.847
166.855
166.861
166.868
166.875
166.881
166.888
166.894
166.9
166.906
166.912
166.917
166.923
166.929
166.935
166.941
166.945
166.948
166.95
166.956
166.965
166.973
166.98
166.985
166.989
166.995
167.003
167.01
167.016
167.022
167.028
167.034
167.041
167.047
167.053
167.06
167.066
167.072
167.078
167.084
167.09
167.095
167.101
167.107
167.112
167.117
167.122
167.128
167.134
167.141
167.147
167.152
167.153
167.151
167.148
167.149
167.159
167.177
167.198
167.214
167.22
167.219
167.218
167.22
167.224
167.224
167.221
167.216
167.212
167.21
167.213
167.22
167.208
167.387
170.282
166.743
166.753
166.759
166.765
166.772
166.778
166.784
166.791
166.797
166.803
166.809
166.816
166.822
166.828
166.834
166.84
166.846
166.852
166.858
166.864
166.87
166.876
166.881
166.887
166.893
166.899
166.905
166.911
166.917
166.923
166.928
166.931
166.934
166.937
166.946
166.959
166.972
166.98
166.982
166.981
166.982
166.989
166.998
167.005
167.01
167.016
167.022
167.028
167.034
167.039
167.045
167.051
167.057
167.063
167.068
167.074
167.079
167.085
167.09
167.096
167.101
167.106
167.112
167.118
167.125
167.131
167.136
167.137
167.135
167.132
167.133
167.143
167.162
167.183
167.199
167.206
167.205
167.204
167.206
167.211
167.212
167.209
167.204
167.2
167.197
167.2
167.22
167.255
167.456
169.928
166.743
166.753
166.759
166.765
166.771
166.778
166.784
166.79
166.797
166.803
166.809
166.815
166.821
166.828
166.834
166.84
166.846
166.852
166.858
166.864
166.869
166.875
166.881
166.887
166.892
166.898
166.904
166.91
166.916
166.922
166.926
166.931
166.935
166.943
166.955
166.97
166.984
166.993
166.994
166.989
166.983
166.986
166.996
167.005
167.011
167.017
167.023
167.029
167.035
167.041
167.047
167.053
167.059
167.064
167.07
167.076
167.082
167.088
167.093
167.099
167.104
167.11
167.116
167.122
167.129
167.136
167.141
167.142
167.14
167.138
167.14
167.15
167.168
167.19
167.206
167.213
167.212
167.211
167.214
167.218
167.22
167.217
167.212
167.208
167.203
167.202
167.221
167.272
167.544
170.195
166.743
166.753
166.758
166.765
166.771
166.778
166.784
166.79
166.796
166.803
166.809
166.815
166.821
166.827
166.833
166.839
166.845
166.851
166.857
166.863
166.869
166.874
166.88
166.886
166.892
166.898
166.904
166.91
166.915
166.92
166.925
166.932
166.945
166.966
166.987
167
167.005
167.003
167.003
167.001
166.994
166.994
166.999
167.004
167.012
167.018
167.024
167.031
167.037
167.043
167.05
167.056
167.062
167.069
167.075
167.081
167.087
167.093
167.099
167.105
167.111
167.117
167.123
167.13
167.138
167.145
167.15
167.152
167.15
167.148
167.15
167.161
167.18
167.202
167.219
167.226
167.225
167.225
167.228
167.232
167.234
167.231
167.227
167.222
167.217
167.212
167.223
167.268
167.594
170.797
166.743
166.753
166.758
166.765
166.771
166.777
166.784
166.79
166.796
166.802
166.809
166.815
166.821
166.827
166.833
166.839
166.845
166.851
166.857
166.862
166.868
166.874
166.88
166.887
166.893
166.898
166.903
166.909
166.914
166.919
166.922
166.931
166.957
167.001
167.042
167.056
167.039
167.013
167.003
167.013
167.017
167.018
167.011
166.999
167.011
167.019
167.025
167.031
167.038
167.045
167.051
167.058
167.064
167.07
167.077
167.083
167.089
167.096
167.102
167.107
167.113
167.119
167.126
167.133
167.14
167.147
167.152
167.154
167.153
167.151
167.153
167.164
167.183
167.205
167.222
167.229
167.229
167.228
167.231
167.236
167.238
167.235
167.231
167.227
167.222
167.215
167.218
167.262
167.646
171.017
166.743
166.752
166.758
166.765
166.771
166.777
166.784
166.79
166.796
166.802
166.808
166.814
166.82
166.826
166.832
166.838
166.844
166.85
166.856
166.862
166.868
166.874
166.881
166.887
166.893
166.898
166.903
166.908
166.915
166.92
166.923
166.927
166.945
166.988
167.039
167.063
167.053
167.032
167.021
167.04
167.057
167.053
167.029
166.996
167.007
167.018
167.023
167.03
167.036
167.043
167.049
167.056
167.062
167.068
167.074
167.081
167.087
167.093
167.099
167.104
167.11
167.116
167.122
167.129
167.136
167.143
167.148
167.15
167.148
167.146
167.148
167.159
167.178
167.2
167.217
167.224
167.224
167.223
167.226
167.231
167.233
167.23
167.225
167.222
167.219
167.212
167.211
167.261
167.678
170.827
166.743
166.752
166.758
166.765
166.771
166.777
166.783
166.79
166.796
166.802
166.808
166.814
166.82
166.826
166.832
166.838
166.844
166.85
166.855
166.861
166.868
166.875
166.881
166.886
166.891
166.896
166.902
166.908
166.916
166.927
166.936
166.925
166.879
166.813
166.776
166.804
166.903
167.043
167.124
167.126
167.128
167.057
167
167.012
167
167.011
167.018
167.024
167.03
167.037
167.043
167.049
167.055
167.061
167.067
167.073
167.079
167.085
167.091
167.097
167.102
167.108
167.114
167.121
167.129
167.136
167.141
167.143
167.141
167.139
167.141
167.152
167.171
167.193
167.21
167.217
167.216
167.215
167.218
167.223
167.225
167.221
167.216
167.214
167.213
167.209
167.211
167.268
167.685
170.466
166.743
166.752
166.758
166.765
166.771
166.777
166.783
166.789
166.796
166.802
166.808
166.814
166.82
166.826
166.832
166.838
166.843
166.849
166.855
166.862
166.868
166.874
166.879
166.882
166.887
166.893
166.899
166.906
166.915
166.936
166.963
166.944
166.781
166.453
166.136
166.09
166.409
166.941
167.299
167.25
167.202
166.968
166.826
167.059
167.001
166.992
167.011
167.014
167.021
167.028
167.034
167.041
167.047
167.053
167.06
167.066
167.072
167.079
167.085
167.091
167.097
167.103
167.109
167.116
167.124
167.131
167.136
167.138
167.137
167.135
167.137
167.147
167.166
167.188
167.205
167.212
167.211
167.21
167.213
167.218
167.219
167.215
167.209
167.207
167.208
167.211
167.221
167.284
167.677
170.134
166.743
166.752
166.758
166.764
166.771
166.777
166.783
166.789
166.795
166.801
166.807
166.814
166.82
166.825
166.831
166.837
166.843
166.849
166.855
166.862
166.868
166.872
166.875
166.878
166.882
166.889
166.897
166.904
166.912
166.932
166.976
166.988
166.795
166.256
165.591
165.335
165.766
166.616
167.243
167.134
167.051
166.697
166.487
167.093
167.025
166.969
167.006
167.006
167.014
167.021
167.028
167.035
167.042
167.049
167.056
167.062
167.069
167.076
167.082
167.089
167.095
167.101
167.108
167.115
167.123
167.13
167.136
167.138
167.136
167.134
167.136
167.147
167.165
167.187
167.204
167.211
167.21
167.209
167.211
167.216
167.216
167.211
167.205
167.202
167.206
167.217
167.24
167.315
167.682
169.873
166.743
166.752
166.758
166.764
166.771
166.777
166.783
166.789
166.795
166.801
166.807
166.813
166.819
166.825
166.831
166.837
166.843
166.849
166.856
166.862
166.866
166.869
166.872
166.876
166.881
166.888
166.898
166.906
166.907
166.896
166.909
167.001
167.108
166.974
166.483
166.069
166.186
166.568
166.787
166.667
166.564
166.32
166.233
166.983
167.066
166.963
167
167.004
167.012
167.019
167.027
167.034
167.041
167.048
167.055
167.062
167.069
167.076
167.083
167.09
167.096
167.103
167.11
167.118
167.126
167.133
167.139
167.141
167.14
167.138
167.14
167.15
167.169
167.191
167.207
167.214
167.213
167.212
167.214
167.218
167.218
167.213
167.205
167.201
167.206
167.226
167.267
167.365
167.725
169.696
166.743
166.752
166.758
166.764
166.77
166.777
166.783
166.789
166.795
166.801
166.807
166.813
166.819
166.825
166.831
166.837
166.843
166.849
166.855
166.86
166.864
166.867
166.873
166.881
166.888
166.895
166.904
166.916
166.908
166.834
166.724
166.865
167.689
169.1
170.169
170.246
169.725
168.765
167.679
167.698
167.401
166.974
166.585
166.6
167.056
167.013
166.99
167.011
167.016
167.023
167.03
167.038
167.045
167.052
167.059
167.067
167.074
167.081
167.088
167.095
167.102
167.109
167.117
167.124
167.133
167.141
167.146
167.149
167.148
167.146
167.148
167.159
167.178
167.199
167.216
167.222
167.221
167.22
167.222
167.226
167.226
167.22
167.211
167.205
167.21
167.234
167.295
167.431
167.821
169.655
166.743
166.752
166.757
166.764
166.77
166.776
166.782
166.788
166.795
166.801
166.807
166.813
166.819
166.824
166.83
166.836
166.843
166.849
166.854
166.858
166.861
166.867
166.878
166.892
166.903
166.91
166.918
166.932
166.924
166.79
166.492
166.521
168.09
171.88
176.164
178.042
177.286
175.582
173.949
174.322
173.491
171.198
168.129
166.047
166.867
167.147
166.98
167.03
167.029
167.036
167.042
167.049
167.055
167.062
167.069
167.076
167.084
167.091
167.099
167.106
167.113
167.12
167.128
167.136
167.145
167.153
167.159
167.161
167.16
167.159
167.161
167.172
167.191
167.213
167.23
167.237
167.235
167.234
167.236
167.239
167.24
167.234
167.224
167.216
167.217
167.242
167.316
167.496
167.968
169.813
166.742
166.751
166.757
166.763
166.77
166.776
166.782
166.788
166.794
166.8
166.806
166.812
166.818
166.824
166.83
166.836
166.842
166.848
166.853
166.856
166.861
166.87
166.885
166.904
166.921
166.93
166.936
166.947
166.947
166.815
166.395
166.12
167.767
173.323
181.352
186.429
186.343
185.464
185.864
186.72
185.566
180.085
171.491
165.837
166.395
167.34
166.982
167.059
167.052
167.057
167.062
167.067
167.073
167.079
167.085
167.092
167.099
167.107
167.114
167.121
167.128
167.135
167.143
167.151
167.16
167.168
167.174
167.177
167.176
167.175
167.177
167.188
167.208
167.23
167.247
167.254
167.253
167.252
167.254
167.258
167.258
167.253
167.243
167.233
167.23
167.249
167.324
167.534
168.124
170.221
166.742
166.751
166.756
166.763
166.769
166.775
166.781
166.788
166.794
166.8
166.806
166.812
166.818
166.824
166.83
166.836
166.842
166.847
166.852
166.856
166.862
166.873
166.89
166.912
166.932
166.943
166.945
166.949
166.959
166.901
166.547
165.975
166.748
171.937
182.151
191.169
192.44
191.343
193.72
195.133
195.198
189.768
177.334
166.915
165.663
167.509
167.012
167.094
167.084
167.086
167.088
167.091
167.095
167.1
167.106
167.112
167.119
167.126
167.132
167.139
167.145
167.152
167.159
167.167
167.175
167.183
167.189
167.191
167.19
167.189
167.192
167.203
167.222
167.245
167.262
167.269
167.268
167.267
167.269
167.273
167.275
167.27
167.261
167.25
167.243
167.253
167.316
167.522
168.195
170.757
166.741
166.751
166.756
166.763
166.769
166.775
166.781
166.787
166.793
166.799
166.805
166.811
166.817
166.823
166.829
166.836
166.841
166.847
166.851
166.857
166.865
166.875
166.888
166.906
166.926
166.935
166.93
166.929
166.948
166.979
166.839
166.235
165.816
168.548
177.866
190.449
194.448
189.416
189.121
190.865
193.238
194.218
185.694
170.624
164.883
167.563
167.07
167.128
167.119
167.118
167.118
167.118
167.121
167.124
167.129
167.135
167.14
167.145
167.15
167.156
167.161
167.167
167.173
167.18
167.187
167.194
167.199
167.201
167.199
167.197
167.199
167.209
167.228
167.25
167.266
167.273
167.272
167.27
167.271
167.274
167.275
167.27
167.261
167.249
167.239
167.241
167.287
167.47
168.133
170.845
166.742
166.751
166.756
166.763
166.769
166.775
166.781
166.787
166.794
166.8
166.806
166.812
166.818
166.824
166.83
166.836
166.842
166.847
166.852
166.859
166.869
166.878
166.881
166.883
166.896
166.908
166.904
166.906
166.939
167.009
167.04
166.669
165.688
165.723
171.347
185.3
196.07
187.226
180.059
181.383
184.03
191.736
195.126
178.946
164.51
167.466
167.133
167.154
167.148
167.145
167.143
167.142
167.143
167.146
167.15
167.154
167.158
167.161
167.165
167.169
167.173
167.177
167.182
167.187
167.193
167.199
167.202
167.203
167.2
167.196
167.196
167.204
167.221
167.241
167.255
167.259
167.256
167.251
167.251
167.252
167.251
167.246
167.238
167.227
167.215
167.212
167.248
167.41
167.988
170.324
166.743
166.752
166.758
166.764
166.77
166.777
166.783
166.789
166.795
166.801
166.807
166.813
166.819
166.825
166.831
166.837
166.843
166.848
166.854
166.862
166.874
166.882
166.872
166.846
166.848
166.896
166.93
166.94
166.991
167.037
167.068
166.911
166.147
165.103
166.517
176.993
200.537
193.128
170.595
170.789
171.32
179.018
203.552
194.711
165.268
167.276
167.17
167.166
167.161
167.158
167.157
167.157
167.158
167.16
167.162
167.164
167.166
167.168
167.17
167.173
167.176
167.178
167.181
167.185
167.19
167.193
167.195
167.194
167.189
167.183
167.181
167.186
167.201
167.218
167.23
167.233
167.228
167.224
167.224
167.226
167.226
167.222
167.215
167.206
167.195
167.189
167.215
167.348
167.818
169.852
166.746
166.755
166.76
166.767
166.773
166.779
166.785
166.792
166.798
166.804
166.81
166.816
166.822
166.828
166.834
166.84
166.846
166.851
166.857
166.865
166.878
166.889
166.871
166.815
166.802
166.923
167.062
167.068
167.129
167.125
167.04
166.905
166.413
165.8
165.745
166.902
167.503
167.122
167.156
167.147
167.145
167.145
167.147
167.149
167.153
167.155
167.155
167.156
167.156
167.158
167.161
167.163
167.165
167.166
167.168
167.17
167.173
167.175
167.175
167.171
167.165
167.158
167.155
167.161
167.176
167.194
167.207
167.21
167.206
167.203
167.204
167.207
167.208
167.205
167.199
167.191
167.181
167.174
167.191
167.294
167.68
169.534
166.749
166.758
166.764
166.77
166.777
166.783
166.789
166.795
166.801
166.807
166.813
166.82
166.826
166.832
166.838
166.844
166.85
166.855
166.861
166.868
166.88
166.894
166.88
166.813
166.779
166.947
167.183
167.152
167.202
167.192
167.049
166.886
166.344
165.794
166.369
168.194
167.101
167.14
167.119
167.117
167.115
167.116
167.119
167.123
167.126
167.127
167.127
167.126
167.126
167.128
167.132
167.135
167.136
167.137
167.139
167.141
167.145
167.148
167.149
167.148
167.143
167.138
167.137
167.145
167.161
167.179
167.193
167.196
167.193
167.189
167.19
167.195
167.196
167.194
167.189
167.182
167.173
167.164
167.175
167.256
167.589
169.33
166.753
166.762
166.767
166.774
166.78
166.786
166.792
166.798
166.805
166.811
166.817
166.823
166.829
166.835
166.841
166.847
166.853
166.859
166.865
166.871
166.881
166.894
166.893
166.846
166.797
166.902
167.075
166.957
166.971
167.059
167.061
166.927
166.464
165.82
166.084
167.916
167.141
167.105
167.098
167.091
167.089
167.089
167.09
167.092
167.093
167.092
167.091
167.092
167.094
167.097
167.102
167.107
167.111
167.115
167.118
167.122
167.127
167.132
167.135
167.134
167.131
167.127
167.127
167.135
167.152
167.172
167.186
167.189
167.185
167.181
167.182
167.187
167.189
167.188
167.183
167.177
167.167
167.158
167.166
167.236
167.542
169.216
166.753
166.762
166.768
166.774
166.781
166.787
166.793
166.799
166.805
166.811
166.818
166.824
166.83
166.836
166.842
166.848
166.854
166.86
166.866
166.872
166.879
166.888
166.897
166.885
166.854
166.866
166.875
166.689
166.653
166.829
167.031
166.944
166.654
166.16
166.273
167.846
167.11
167.087
167.076
167.07
167.067
167.067
167.068
167.068
167.068
167.068
167.07
167.074
167.078
167.082
167.085
167.089
167.094
167.1
167.105
167.109
167.116
167.121
167.125
167.125
167.122
167.118
167.119
167.128
167.147
167.168
167.182
167.186
167.182
167.178
167.178
167.183
167.186
167.185
167.181
167.175
167.165
167.153
167.16
167.23
167.529
169.179
166.748
166.758
166.763
166.77
166.776
166.782
166.788
166.795
166.801
166.807
166.813
166.819
166.825
166.831
166.837
166.843
166.849
166.855
166.862
166.868
166.873
166.88
166.887
166.895
166.903
166.927
166.926
166.798
166.744
166.821
166.955
166.945
166.82
166.524
166.535
167.753
167.09
167.066
167.056
167.05
167.047
167.047
167.047
167.047
167.047
167.05
167.057
167.066
167.074
167.078
167.079
167.078
167.08
167.086
167.093
167.098
167.105
167.111
167.115
167.116
167.113
167.109
167.111
167.121
167.14
167.163
167.181
167.186
167.183
167.178
167.178
167.182
167.185
167.185
167.182
167.176
167.164
167.15
167.156
167.231
167.542
169.207
166.737
166.747
166.752
166.759
166.765
166.771
166.777
166.783
166.79
166.796
166.802
166.808
166.814
166.82
166.826
166.832
166.838
166.844
166.851
166.857
166.863
166.868
166.874
166.882
166.898
166.926
166.948
166.924
166.899
166.883
166.896
166.922
166.906
166.796
166.806
167.708
167.065
167.045
167.035
167.03