/*--------------------------------*- C++ -*----------------------------------*\
| =========                 |                                                 |
| \\      /  F ield         | OpenFOAM: The Open Source CFD Toolbox           |
|  \\    /   O peration     | Version:  v2012                                 |
|   \\  /    A nd           | Website:  www.openfoam.com                      |
|    \\/     M anipulation  |                                                 |
\*---------------------------------------------------------------------------*/
FoamFile
{
    version     2.0;
    format      ascii;
    class       volScalarField;
    location    "400/air";
    object      ILambda_24_0;
}
// * * * * * * * * * * * * * * * * * * * * * * * * * * * * * * * * * * * * * //

dimensions      [1 0 -3 0 0 0 0];


internalField   nonuniform List<scalar> 
287104
(
167.142
167.587
167.993
168.372
168.728
169.063
169.381
169.682
169.97
170.246
170.51
170.765
171.011
171.248
171.478
171.702
171.92
172.132
172.339
172.541
172.74
172.934
173.125
173.312
173.497
173.678
173.857
174.034
174.207
174.379
174.549
174.716
174.882
175.046
175.208
175.368
175.527
175.685
175.84
175.995
176.148
176.299
176.45
176.598
176.746
176.892
177.038
177.181
177.324
177.466
177.606
177.745
177.883
178.02
178.155
178.29
178.423
178.555
178.686
178.816
178.945
179.073
179.2
179.326
179.451
179.574
179.697
179.819
179.94
180.06
180.18
180.298
180.416
180.533
180.65
180.765
180.881
180.995
181.109
181.223
181.337
181.451
181.565
181.68
181.795
181.913
182.034
182.161
182.309
182.497
166.856
167.042
167.222
167.4
167.573
167.743
167.908
168.069
168.226
168.379
168.529
168.675
168.819
168.96
169.098
169.233
169.366
169.497
169.626
169.753
169.878
170.002
170.123
170.244
170.363
170.48
170.596
170.712
170.826
170.939
171.051
171.162
171.272
171.381
171.489
171.597
171.704
171.81
171.916
172.021
172.125
172.229
172.332
172.434
172.536
172.638
172.739
172.839
172.939
173.038
173.137
173.236
173.334
173.432
173.529
173.626
173.723
173.819
173.915
174.01
174.105
174.2
174.295
174.389
174.483
174.577
174.67
174.763
174.857
174.95
175.042
175.135
175.228
175.321
175.413
175.506
175.599
175.692
175.785
175.879
175.973
176.068
176.164
176.262
176.361
176.465
176.574
176.693
176.844
177.05
166.726
166.783
166.847
166.917
166.991
167.067
167.145
167.224
167.305
167.385
167.466
167.547
167.628
167.709
167.79
167.87
167.95
168.029
168.108
168.187
168.265
168.342
168.42
168.496
168.572
168.648
168.723
168.798
168.873
168.947
169.02
169.094
169.167
169.239
169.311
169.383
169.455
169.526
169.597
169.668
169.738
169.808
169.878
169.948
170.018
170.087
170.156
170.225
170.294
170.363
170.431
170.5
170.568
170.636
170.704
170.772
170.84
170.908
170.976
171.044
171.112
171.18
171.248
171.316
171.384
171.452
171.52
171.588
171.657
171.725
171.794
171.863
171.932
172.001
172.071
172.141
172.212
172.283
172.354
172.426
172.499
172.574
172.649
172.726
172.806
172.89
172.98
173.081
173.214
173.401
166.687
166.696
166.714
166.738
166.768
166.802
166.839
166.878
166.92
166.963
167.008
167.055
167.102
167.151
167.2
167.249
167.299
167.35
167.4
167.451
167.502
167.553
167.605
167.656
167.707
167.758
167.809
167.861
167.912
167.962
168.013
168.064
168.114
168.165
168.215
168.265
168.315
168.365
168.415
168.465
168.514
168.564
168.613
168.662
168.712
168.761
168.81
168.858
168.907
168.956
169.005
169.054
169.102
169.151
169.199
169.248
169.297
169.345
169.394
169.443
169.492
169.541
169.59
169.639
169.688
169.738
169.787
169.837
169.887
169.937
169.987
170.038
170.089
170.14
170.192
170.244
170.296
170.349
170.402
170.457
170.512
170.568
170.625
170.684
170.746
170.811
170.882
170.962
171.068
171.218
166.686
166.687
166.694
166.705
166.72
166.738
166.759
166.782
166.808
166.835
166.864
166.894
166.925
166.957
166.991
167.025
167.059
167.095
167.13
167.166
167.203
167.24
167.277
167.314
167.352
167.39
167.427
167.465
167.503
167.541
167.579
167.617
167.655
167.693
167.731
167.769
167.807
167.845
167.882
167.92
167.958
167.995
168.033
168.07
168.108
168.145
168.182
168.219
168.256
168.293
168.33
168.367
168.404
168.441
168.478
168.515
168.552
168.589
168.625
168.662
168.699
168.736
168.773
168.811
168.848
168.885
168.923
168.96
168.998
169.036
169.074
169.112
169.151
169.189
169.228
169.268
169.308
169.348
169.388
169.43
169.472
169.515
169.559
169.604
169.651
169.702
169.757
169.819
169.9
170.013
166.694
166.7
166.708
166.719
166.731
166.746
166.762
166.78
166.799
166.82
166.842
166.864
166.888
166.913
166.938
166.965
166.991
167.019
167.047
167.075
167.104
167.133
167.162
167.192
167.222
167.252
167.282
167.313
167.343
167.374
167.405
167.435
167.466
167.497
167.528
167.559
167.59
167.621
167.652
167.682
167.713
167.744
167.775
167.805
167.836
167.867
167.897
167.927
167.958
167.988
168.018
168.049
168.079
168.109
168.139
168.169
168.199
168.229
168.259
168.289
168.319
168.349
168.379
168.408
168.439
168.469
168.499
168.529
168.559
168.59
168.62
168.651
168.682
168.713
168.744
168.775
168.807
168.839
168.872
168.905
168.938
168.972
169.007
169.044
169.081
169.121
169.165
169.214
169.275
169.358
166.7
166.712
166.723
166.735
166.749
166.763
166.778
166.794
166.811
166.829
166.848
166.867
166.887
166.908
166.929
166.951
166.973
166.996
167.019
167.043
167.067
167.091
167.116
167.14
167.166
167.191
167.217
167.242
167.268
167.294
167.32
167.347
167.373
167.399
167.426
167.452
167.479
167.505
167.532
167.558
167.585
167.611
167.637
167.664
167.69
167.717
167.743
167.769
167.795
167.821
167.847
167.873
167.899
167.925
167.951
167.977
168.002
168.028
168.054
168.079
168.105
168.131
168.156
168.182
168.207
168.233
168.259
168.284
168.31
168.336
168.362
168.388
168.414
168.44
168.466
168.493
168.519
168.546
168.573
168.601
168.629
168.658
168.687
168.717
168.748
168.781
168.817
168.856
168.904
168.966
166.702
166.717
166.73
166.743
166.757
166.771
166.786
166.801
166.817
166.833
166.85
166.867
166.884
166.902
166.921
166.94
166.959
166.978
166.998
167.019
167.039
167.06
167.082
167.103
167.125
167.147
167.169
167.191
167.213
167.236
167.259
167.281
167.304
167.327
167.35
167.373
167.396
167.42
167.443
167.466
167.489
167.512
167.536
167.559
167.582
167.605
167.628
167.651
167.674
167.697
167.72
167.743
167.765
167.788
167.811
167.833
167.856
167.878
167.901
167.923
167.945
167.968
167.99
168.012
168.034
168.057
168.079
168.101
168.123
168.145
168.168
168.19
168.212
168.235
168.257
168.28
168.303
168.326
168.349
168.373
168.397
168.421
168.446
168.472
168.498
168.526
168.556
168.588
168.627
168.675
166.702
166.717
166.73
166.744
166.758
166.771
166.785
166.8
166.814
166.829
166.844
166.859
166.875
166.891
166.907
166.924
166.941
166.958
166.976
166.994
167.012
167.03
167.048
167.067
167.086
167.105
167.124
167.144
167.163
167.183
167.203
167.223
167.243
167.263
167.283
167.303
167.323
167.343
167.363
167.383
167.404
167.424
167.444
167.464
167.484
167.504
167.525
167.545
167.565
167.584
167.604
167.624
167.644
167.664
167.683
167.703
167.723
167.742
167.762
167.781
167.801
167.82
167.839
167.859
167.878
167.897
167.917
167.936
167.955
167.975
167.994
168.013
168.033
168.052
168.072
168.092
168.112
168.132
168.152
168.173
168.193
168.215
168.236
168.258
168.281
168.305
168.331
168.358
168.39
168.429
166.701
166.715
166.728
166.741
166.755
166.768
166.781
166.794
166.808
166.821
166.835
166.849
166.863
166.878
166.893
166.908
166.923
166.939
166.954
166.97
166.986
167.003
167.019
167.036
167.053
167.07
167.087
167.104
167.121
167.139
167.156
167.174
167.191
167.209
167.227
167.245
167.262
167.28
167.298
167.316
167.334
167.352
167.37
167.387
167.405
167.423
167.44
167.458
167.476
167.493
167.511
167.528
167.545
167.563
167.58
167.597
167.614
167.631
167.648
167.665
167.682
167.699
167.716
167.733
167.75
167.766
167.783
167.8
167.817
167.834
167.851
167.868
167.885
167.902
167.919
167.936
167.954
167.971
167.989
168.007
168.025
168.044
168.063
168.082
168.102
168.123
168.145
168.168
168.195
168.227
166.701
166.714
166.726
166.739
166.751
166.764
166.777
166.789
166.802
166.815
166.83
166.845
166.86
166.876
166.892
166.907
166.923
166.939
166.955
166.971
166.987
167.003
167.019
167.035
167.051
167.067
167.083
167.099
167.115
167.13
167.146
167.162
167.178
167.195
167.211
167.227
167.243
167.26
167.276
167.292
167.309
167.325
167.342
167.358
167.374
167.39
167.407
167.423
167.439
167.455
167.471
167.486
167.502
167.517
167.533
167.548
167.564
167.579
167.594
167.609
167.623
167.638
167.653
167.667
167.682
167.696
167.711
167.725
167.739
167.754
167.768
167.782
167.797
167.811
167.826
167.84
167.855
167.87
167.885
167.899
167.913
167.927
167.942
167.958
167.974
167.991
168.009
168.028
168.05
168.077
166.7
166.713
166.725
166.737
166.749
166.762
166.774
166.786
166.799
166.811
166.827
166.843
166.859
166.875
166.892
166.908
166.925
166.941
166.958
166.974
166.99
167.006
167.022
167.038
167.053
167.068
167.084
167.099
167.114
167.13
167.145
167.16
167.175
167.191
167.206
167.222
167.237
167.253
167.269
167.284
167.3
167.316
167.332
167.348
167.364
167.38
167.396
167.411
167.427
167.443
167.459
167.474
167.49
167.505
167.521
167.536
167.551
167.566
167.581
167.596
167.611
167.626
167.64
167.654
167.669
167.682
167.696
167.71
167.723
167.736
167.749
167.762
167.775
167.787
167.8
167.812
167.824
167.835
167.847
167.858
167.867
167.877
167.887
167.897
167.908
167.92
167.933
167.947
167.963
167.984
166.7
166.713
166.724
166.736
166.748
166.76
166.772
166.785
166.797
166.809
166.825
166.841
166.858
166.874
166.891
166.908
166.924
166.941
166.957
166.974
166.99
167.006
167.021
167.037
167.052
167.067
167.082
167.097
167.112
167.127
167.142
167.157
167.171
167.186
167.201
167.216
167.231
167.247
167.262
167.277
167.293
167.308
167.324
167.339
167.355
167.371
167.386
167.402
167.417
167.433
167.449
167.464
167.48
167.495
167.511
167.526
167.542
167.557
167.572
167.588
167.603
167.618
167.633
167.648
167.663
167.678
167.693
167.707
167.722
167.736
167.75
167.764
167.777
167.791
167.804
167.817
167.83
167.842
167.855
167.866
167.875
167.884
167.893
167.901
167.91
167.919
167.929
167.939
167.951
167.967
166.7
166.712
166.724
166.736
166.748
166.76
166.772
166.784
166.796
166.808
166.824
166.84
166.856
166.873
166.889
166.906
166.923
166.939
166.955
166.971
166.987
167.003
167.018
167.034
167.049
167.064
167.078
167.093
167.107
167.122
167.136
167.151
167.165
167.18
167.194
167.209
167.224
167.239
167.253
167.268
167.284
167.299
167.314
167.329
167.344
167.36
167.375
167.39
167.406
167.421
167.436
167.451
167.467
167.482
167.497
167.513
167.528
167.543
167.559
167.574
167.589
167.604
167.619
167.634
167.65
167.665
167.68
167.694
167.709
167.724
167.738
167.753
167.767
167.781
167.796
167.809
167.823
167.836
167.849
167.861
167.871
167.88
167.89
167.899
167.909
167.919
167.929
167.939
167.951
167.966
166.7
166.712
166.724
166.736
166.747
166.759
166.771
166.783
166.795
166.807
166.822
166.838
166.855
166.871
166.887
166.904
166.92
166.936
166.952
166.968
166.984
166.999
167.014
167.029
167.044
167.058
167.073
167.087
167.101
167.115
167.129
167.143
167.157
167.171
167.186
167.2
167.214
167.229
167.243
167.258
167.273
167.287
167.302
167.317
167.332
167.347
167.362
167.377
167.392
167.407
167.422
167.437
167.452
167.467
167.482
167.497
167.512
167.527
167.542
167.557
167.572
167.587
167.602
167.618
167.633
167.648
167.663
167.678
167.693
167.707
167.722
167.737
167.752
167.766
167.78
167.794
167.808
167.822
167.835
167.847
167.856
167.865
167.875
167.884
167.894
167.903
167.913
167.923
167.935
167.951
166.699
166.712
166.724
166.735
166.747
166.759
166.77
166.782
166.794
166.806
166.821
166.837
166.853
166.869
166.885
166.901
166.917
166.933
166.949
166.964
166.98
166.995
167.009
167.024
167.038
167.052
167.066
167.08
167.094
167.108
167.122
167.135
167.149
167.163
167.177
167.191
167.205
167.219
167.233
167.247
167.261
167.276
167.29
167.305
167.319
167.334
167.348
167.363
167.377
167.392
167.407
167.421
167.436
167.451
167.465
167.48
167.495
167.51
167.525
167.54
167.555
167.57
167.585
167.6
167.615
167.63
167.645
167.66
167.676
167.691
167.706
167.721
167.736
167.751
167.766
167.781
167.796
167.81
167.824
167.837
167.847
167.858
167.868
167.879
167.889
167.9
167.911
167.922
167.935
167.952
166.699
166.712
166.723
166.735
166.746
166.758
166.769
166.781
166.793
166.805
166.82
166.835
166.851
166.867
166.883
166.899
166.914
166.93
166.945
166.961
166.976
166.99
167.005
167.019
167.033
167.047
167.061
167.074
167.088
167.101
167.114
167.128
167.141
167.155
167.168
167.182
167.196
167.209
167.223
167.237
167.251
167.265
167.279
167.293
167.307
167.322
167.336
167.35
167.364
167.379
167.393
167.407
167.422
167.436
167.451
167.465
167.48
167.494
167.509
167.524
167.539
167.554
167.569
167.584
167.599
167.614
167.63
167.645
167.661
167.676
167.692
167.708
167.724
167.739
167.755
167.771
167.787
167.803
167.818
167.833
167.846
167.858
167.87
167.883
167.895
167.907
167.92
167.934
167.949
167.968
166.699
166.711
166.723
166.734
166.746
166.757
166.769
166.78
166.791
166.803
166.818
166.834
166.849
166.865
166.881
166.896
166.912
166.927
166.942
166.957
166.972
166.986
167
167.014
167.028
167.042
167.055
167.068
167.082
167.095
167.108
167.121
167.134
167.147
167.161
167.174
167.187
167.201
167.214
167.228
167.242
167.255
167.269
167.283
167.297
167.311
167.325
167.339
167.353
167.367
167.381
167.395
167.409
167.423
167.438
167.452
167.466
167.481
167.495
167.51
167.524
167.539
167.554
167.569
167.584
167.599
167.615
167.63
167.646
167.661
167.677
167.693
167.709
167.725
167.741
167.758
167.774
167.79
167.806
167.822
167.835
167.848
167.861
167.874
167.887
167.9
167.914
167.929
167.946
167.967
166.699
166.711
166.722
166.734
166.745
166.756
166.768
166.779
166.79
166.802
166.817
166.832
166.847
166.863
166.878
166.893
166.909
166.924
166.939
166.954
166.968
166.982
166.996
167.01
167.023
167.037
167.05
167.063
167.076
167.089
167.101
167.114
167.127
167.14
167.153
167.166
167.179
167.192
167.205
167.218
167.231
167.245
167.258
167.272
167.285
167.299
167.313
167.326
167.34
167.354
167.368
167.381
167.395
167.409
167.423
167.437
167.451
167.465
167.479
167.493
167.508
167.522
167.536
167.551
167.565
167.58
167.595
167.61
167.625
167.64
167.655
167.671
167.686
167.702
167.717
167.733
167.749
167.764
167.78
167.794
167.807
167.819
167.831
167.844
167.856
167.87
167.884
167.899
167.916
167.939
166.699
166.711
166.722
166.733
166.744
166.756
166.767
166.778
166.789
166.801
166.815
166.831
166.846
166.862
166.877
166.892
166.907
166.922
166.937
166.951
166.965
166.978
166.992
167.005
167.017
167.03
167.042
167.055
167.067
167.079
167.091
167.103
167.116
167.128
167.14
167.152
167.165
167.177
167.19
167.202
167.215
167.228
167.241
167.254
167.268
167.281
167.295
167.309
167.322
167.336
167.35
167.364
167.377
167.391
167.404
167.418
167.431
167.445
167.458
167.471
167.485
167.498
167.512
167.525
167.539
167.552
167.566
167.58
167.593
167.607
167.621
167.635
167.649
167.664
167.678
167.692
167.706
167.721
167.735
167.747
167.758
167.769
167.78
167.791
167.803
167.816
167.829
167.844
167.862
167.886
166.699
166.71
166.722
166.733
166.744
166.755
166.766
166.777
166.788
166.8
166.812
166.826
166.839
166.852
166.866
166.879
166.892
166.905
166.918
166.931
166.944
166.956
166.968
166.98
166.992
167.004
167.016
167.028
167.04
167.051
167.063
167.075
167.087
167.098
167.11
167.122
167.134
167.146
167.157
167.169
167.182
167.194
167.206
167.219
167.231
167.244
167.257
167.27
167.283
167.296
167.309
167.322
167.335
167.348
167.36
167.373
167.386
167.398
167.411
167.424
167.436
167.449
167.461
167.474
167.486
167.499
167.511
167.524
167.536
167.549
167.562
167.575
167.587
167.6
167.613
167.626
167.639
167.652
167.665
167.677
167.688
167.698
167.709
167.721
167.733
167.745
167.759
167.774
167.792
167.815
166.698
166.71
166.721
166.732
166.743
166.754
166.765
166.776
166.787
166.798
166.81
166.821
166.833
166.845
166.857
166.868
166.88
166.892
166.903
166.915
166.926
166.938
166.949
166.96
166.971
166.983
166.994
167.005
167.016
167.027
167.039
167.05
167.061
167.072
167.083
167.094
167.106
167.117
167.128
167.139
167.151
167.162
167.174
167.185
167.197
167.209
167.22
167.232
167.244
167.256
167.268
167.28
167.291
167.303
167.315
167.327
167.338
167.35
167.362
167.373
167.385
167.396
167.408
167.419
167.431
167.443
167.454
167.466
167.477
167.489
167.501
167.512
167.524
167.536
167.548
167.56
167.572
167.584
167.595
167.607
167.617
167.628
167.639
167.65
167.662
167.675
167.689
167.704
167.721
167.745
166.698
166.71
166.721
166.732
166.742
166.753
166.764
166.775
166.786
166.797
166.808
166.818
166.829
166.84
166.851
166.862
166.873
166.884
166.894
166.905
166.916
166.926
166.937
166.948
166.958
166.969
166.98
166.99
167.001
167.012
167.022
167.033
167.044
167.054
167.065
167.076
167.086
167.097
167.108
167.118
167.129
167.14
167.15
167.161
167.172
167.183
167.194
167.205
167.216
167.227
167.238
167.249
167.26
167.271
167.282
167.293
167.304
167.315
167.326
167.336
167.347
167.358
167.369
167.38
167.391
167.402
167.413
167.424
167.435
167.445
167.456
167.467
167.479
167.49
167.501
167.512
167.523
167.534
167.546
167.556
167.567
167.578
167.589
167.6
167.612
167.624
167.638
167.652
167.669
167.692
166.698
166.709
166.72
166.731
166.742
166.753
166.763
166.774
166.785
166.795
166.806
166.816
166.827
166.837
166.848
166.858
166.869
166.879
166.889
166.9
166.91
166.92
166.931
166.941
166.951
166.962
166.972
166.982
166.992
167.003
167.013
167.023
167.033
167.044
167.054
167.064
167.074
167.085
167.095
167.105
167.115
167.125
167.135
167.146
167.156
167.166
167.176
167.187
167.197
167.207
167.217
167.228
167.238
167.248
167.259
167.269
167.279
167.289
167.3
167.31
167.32
167.331
167.341
167.351
167.361
167.372
167.382
167.392
167.402
167.413
167.423
167.434
167.444
167.455
167.465
167.476
167.486
167.497
167.508
167.519
167.529
167.54
167.551
167.562
167.574
167.586
167.599
167.613
167.629
167.65
166.698
166.709
166.72
166.731
166.741
166.752
166.762
166.773
166.784
166.794
166.804
166.815
166.825
166.835
166.846
166.856
166.866
166.876
166.887
166.897
166.907
166.917
166.927
166.937
166.947
166.957
166.967
166.977
166.987
166.997
167.007
167.017
167.027
167.037
167.047
167.057
167.067
167.077
167.088
167.097
167.107
167.117
167.126
167.135
167.145
167.154
167.164
167.173
167.183
167.192
167.202
167.211
167.221
167.23
167.24
167.249
167.258
167.268
167.277
167.286
167.296
167.305
167.314
167.324
167.333
167.343
167.352
167.362
167.371
167.381
167.39
167.4
167.41
167.42
167.43
167.441
167.451
167.461
167.472
167.482
167.493
167.503
167.514
167.525
167.537
167.549
167.562
167.576
167.591
167.611
166.698
166.709
166.72
166.73
166.741
166.751
166.762
166.772
166.782
166.793
166.803
166.813
166.824
166.834
166.844
166.854
166.864
166.874
166.884
166.895
166.905
166.915
166.924
166.934
166.944
166.954
166.964
166.974
166.984
166.994
167.004
167.014
167.023
167.033
167.043
167.053
167.063
167.072
167.08
167.089
167.098
167.106
167.117
167.125
167.134
167.142
167.15
167.159
167.167
167.176
167.184
167.193
167.201
167.209
167.218
167.226
167.235
167.243
167.252
167.26
167.269
167.277
167.286
167.295
167.303
167.312
167.321
167.33
167.339
167.348
167.358
167.367
167.377
167.386
167.396
167.406
167.416
167.426
167.436
167.446
167.457
167.467
167.478
167.489
167.5
167.512
167.524
167.537
167.552
167.571
166.698
166.709
166.719
166.73
166.74
166.75
166.761
166.771
166.781
166.792
166.802
166.812
166.822
166.832
166.842
166.852
166.862
166.872
166.882
166.892
166.902
166.912
166.922
166.932
166.942
166.952
166.961
166.971
166.981
166.991
167.001
167.01
167.02
167.03
167.04
167.05
167.059
167.068
167.079
167.087
167.094
167.1
167.104
167.111
167.118
167.125
167.133
167.14
167.148
167.156
167.163
167.171
167.179
167.187
167.195
167.203
167.211
167.219
167.228
167.236
167.244
167.252
167.261
167.269
167.278
167.286
167.295
167.303
167.312
167.321
167.33
167.339
167.348
167.358
167.367
167.376
167.386
167.396
167.405
167.415
167.425
167.435
167.446
167.456
167.467
167.478
167.49
167.502
167.516
167.533
166.697
166.708
166.719
166.729
166.739
166.75
166.76
166.77
166.78
166.79
166.801
166.811
166.821
166.831
166.841
166.851
166.861
166.87
166.88
166.89
166.9
166.91
166.92
166.929
166.939
166.949
166.959
166.969
166.978
166.988
166.998
167.008
167.017
167.027
167.037
167.047
167.056
167.064
167.073
167.077
167.081
167.086
167.087
167.093
167.1
167.107
167.115
167.122
167.13
167.138
167.146
167.154
167.162
167.17
167.178
167.186
167.194
167.202
167.21
167.218
167.226
167.234
167.242
167.25
167.259
167.267
167.275
167.284
167.292
167.301
167.31
167.318
167.327
167.336
167.345
167.354
167.363
167.373
167.382
167.391
167.401
167.41
167.42
167.43
167.44
167.45
167.461
167.472
167.485
167.5
166.697
166.708
166.718
166.729
166.739
166.749
166.759
166.769
166.779
166.789
166.799
166.809
166.819
166.829
166.839
166.849
166.859
166.869
166.878
166.888
166.898
166.908
166.917
166.927
166.937
166.946
166.956
166.966
166.976
166.985
166.995
167.005
167.015
167.024
167.034
167.044
167.053
167.058
167.027
167.024
167.024
167.027
167.069
167.077
167.085
167.093
167.101
167.109
167.117
167.125
167.133
167.141
167.15
167.158
167.166
167.174
167.182
167.19
167.198
167.206
167.214
167.222
167.23
167.238
167.246
167.254
167.262
167.27
167.278
167.287
167.295
167.303
167.312
167.32
167.329
167.338
167.346
167.355
167.364
167.373
167.382
167.391
167.4
167.409
167.418
167.428
167.438
167.448
167.459
167.473
166.697
166.708
166.718
166.728
166.738
166.748
166.758
166.768
166.778
166.788
166.798
166.808
166.818
166.828
166.837
166.847
166.857
166.867
166.876
166.886
166.896
166.905
166.915
166.925
166.934
166.944
166.954
166.963
166.973
166.983
166.993
167.002
167.012
167.022
167.032
167.041
167.05
167.053
167.031
167.029
167.032
167.037
167.056
167.065
167.073
167.081
167.09
167.099
167.107
167.116
167.124
167.133
167.141
167.149
167.157
167.165
167.173
167.181
167.189
167.197
167.205
167.212
167.22
167.228
167.236
167.244
167.252
167.26
167.268
167.276
167.284
167.293
167.301
167.309
167.317
167.326
167.334
167.342
167.35
167.359
167.367
167.376
167.384
167.393
167.401
167.41
167.419
167.428
167.438
167.45
166.697
166.708
166.718
166.728
166.738
166.748
166.758
166.768
166.778
166.787
166.797
166.807
166.817
166.826
166.836
166.846
166.855
166.865
166.875
166.884
166.894
166.903
166.913
166.923
166.932
166.942
166.952
166.961
166.971
166.981
166.99
167
167.01
167.02
167.03
167.039
167.048
167.049
167.137
167.149
167.155
167.165
167.052
167.053
167.063
167.073
167.082
167.091
167.1
167.108
167.117
167.126
167.134
167.142
167.15
167.158
167.166
167.174
167.182
167.19
167.198
167.206
167.213
167.221
167.229
167.237
167.245
167.253
167.261
167.269
167.277
167.285
167.293
167.301
167.309
167.317
167.325
167.333
167.341
167.349
167.357
167.365
167.373
167.381
167.389
167.397
167.405
167.414
167.423
167.433
166.697
166.707
166.718
166.728
166.737
166.747
166.757
166.767
166.777
166.787
166.796
166.806
166.816
166.825
166.835
166.844
166.854
166.864
166.873
166.883
166.892
166.902
166.911
166.921
166.931
166.94
166.95
166.959
166.969
166.979
166.989
166.999
167.009
167.019
167.028
167.038
167.046
167.044
167.305
167.329
167.326
167.337
167.057
167.043
167.056
167.066
167.075
167.084
167.094
167.103
167.111
167.12
167.129
167.137
167.145
167.153
167.161
167.169
167.177
167.185
167.193
167.201
167.209
167.216
167.224
167.232
167.24
167.248
167.256
167.264
167.272
167.28
167.288
167.296
167.304
167.312
167.32
167.328
167.335
167.343
167.351
167.359
167.367
167.375
167.382
167.39
167.398
167.406
167.414
167.423
166.697
166.707
166.717
166.727
166.737
166.747
166.757
166.767
166.776
166.786
166.796
166.805
166.815
166.824
166.834
166.843
166.853
166.862
166.872
166.881
166.891
166.901
166.91
166.92
166.929
166.939
166.949
166.958
166.968
166.978
166.988
166.998
167.007
167.017
167.027
167.036
167.044
167.04
167.483
167.509
167.484
167.486
167.075
167.043
167.057
167.066
167.075
167.084
167.093
167.101
167.11
167.118
167.127
167.135
167.143
167.151
167.159
167.167
167.175
167.183
167.191
167.199
167.206
167.214
167.222
167.23
167.238
167.246
167.254
167.262
167.27
167.278
167.286
167.294
167.302
167.311
167.319
167.328
167.337
167.345
167.354
167.363
167.371
167.38
167.388
167.395
167.403
167.41
167.417
167.426
166.697
166.707
166.717
166.727
166.737
166.747
166.756
166.766
166.776
166.785
166.795
166.805
166.814
166.824
166.833
166.843
166.852
166.862
166.871
166.88
166.89
166.899
166.909
166.919
166.928
166.938
166.947
166.957
166.967
166.977
166.987
166.996
167.006
167.015
167.024
167.032
167.04
167.035
167.598
167.613
167.56
167.548
167.095
167.053
167.067
167.078
167.085
167.093
167.101
167.109
167.116
167.123
167.131
167.139
167.146
167.154
167.161
167.169
167.177
167.184
167.192
167.2
167.208
167.216
167.224
167.231
167.239
167.247
167.255
167.264
167.272
167.281
167.291
167.301
167.311
167.322
167.333
167.344
167.354
167.364
167.374
167.383
167.391
167.398
167.405
167.411
167.418
167.423
167.429
167.436
166.697
166.707
166.717
166.727
166.737
166.746
166.756
166.766
166.775
166.785
166.795
166.804
166.814
166.823
166.833
166.842
166.851
166.861
166.87
166.88
166.889
166.899
166.908
166.918
166.927
166.937
166.947
166.957
166.967
166.977
166.985
166.995
167.004
167.012
167.019
167.027
167.035
167.028
167.639
167.638
167.558
167.532
167.104
167.058
167.08
167.085
167.094
167.102
167.11
167.118
167.125
167.132
167.139
167.146
167.153
167.16
167.168
167.175
167.182
167.19
167.197
167.205
167.212
167.22
167.228
167.236
167.244
167.254
167.263
167.274
167.286
167.298
167.311
167.324
167.336
167.348
167.359
167.369
167.377
167.385
167.392
167.399
167.404
167.41
167.415
167.42
167.425
167.429
167.434
167.441
166.697
166.707
166.717
166.727
166.736
166.746
166.756
166.765
166.775
166.785
166.794
166.804
166.813
166.823
166.832
166.841
166.851
166.86
166.87
166.879
166.888
166.898
166.907
166.917
166.927
166.936
166.945
166.954
166.963
166.972
166.983
166.991
166.999
167.006
167.013
167.021
167.034
167.033
167.513
167.468
167.356
167.312
167.096
167.079
167.069
167.105
167.111
167.119
167.127
167.134
167.141
167.147
167.153
167.159
167.165
167.171
167.178
167.185
167.191
167.198
167.206
167.213
167.222
167.23
167.24
167.251
167.263
167.276
167.289
167.302
167.315
167.328
167.339
167.35
167.359
167.367
167.375
167.381
167.387
167.392
167.397
167.401
167.405
167.41
167.414
167.418
167.422
167.427
167.431
167.437
166.697
166.707
166.717
166.727
166.736
166.746
166.756
166.765
166.775
166.784
166.794
166.803
166.813
166.822
166.831
166.841
166.85
166.86
166.869
166.878
166.888
166.897
166.907
166.917
166.926
166.936
166.947
166.956
166.964
166.972
166.977
166.984
166.992
166.999
167.007
167.019
167.198
167.099
167.132
167.139
167.146
167.152
167.158
167.164
167.17
167.175
167.181
167.187
167.194
167.201
167.208
167.216
167.225
167.234
167.245
167.256
167.268
167.28
167.292
167.304
167.315
167.326
167.335
167.344
167.352
167.358
167.364
167.37
167.374
167.379
167.383
167.387
167.391
167.395
167.398
167.402
167.406
167.41
167.414
167.419
167.423
167.429
166.697
166.707
166.717
166.726
166.736
166.746
166.755
166.765
166.774
166.784
166.793
166.803
166.812
166.822
166.831
166.84
166.85
166.859
166.868
166.878
166.887
166.897
166.906
166.916
166.926
166.935
166.945
166.952
166.958
166.965
166.969
166.976
166.984
166.993
167.005
167.022
167.334
167.088
167.148
167.154
167.159
167.164
167.171
167.177
167.183
167.189
167.196
167.202
167.209
167.217
167.225
167.234
167.243
167.254
167.264
167.275
167.286
167.296
167.306
167.315
167.323
167.331
167.337
167.343
167.349
167.353
167.358
167.362
167.366
167.369
167.373
167.376
167.38
167.384
167.387
167.391
167.395
167.399
167.403
167.407
167.412
167.418
166.697
166.706
166.716
166.726
166.736
166.746
166.755
166.765
166.774
166.784
166.793
166.802
166.812
166.821
166.831
166.84
166.849
166.859
166.868
166.877
166.887
166.896
166.906
166.915
166.925
166.932
166.914
166.913
166.915
166.919
166.957
166.968
166.977
166.989
167.006
167.03
167.452
167.078
167.156
167.163
167.166
167.171
167.176
167.183
167.189
167.196
167.203
167.21
167.218
167.226
167.234
167.243
167.253
167.262
167.272
167.281
167.29
167.298
167.306
167.313
167.319
167.325
167.33
167.334
167.338
167.342
167.346
167.35
167.353
167.357
167.36
167.364
167.367
167.371
167.375
167.379
167.383
167.387
167.391
167.395
167.4
167.406
166.696
166.706
166.716
166.726
166.736
166.745
166.755
166.764
166.774
166.783
166.793
166.802
166.811
166.821
166.83
166.839
166.849
166.858
166.867
166.877
166.886
166.896
166.905
166.915
166.924
166.929
166.921
166.924
166.93
166.937
166.949
166.96
166.972
166.987
167.008
167.04
167.547
167.071
167.161
167.168
167.169
167.173
167.178
167.184
167.19
167.197
167.204
167.212
167.22
167.228
167.236
167.245
167.254
167.262
167.271
167.279
167.286
167.293
167.299
167.304
167.309
167.314
167.318
167.322
167.326
167.33
167.333
167.337
167.341
167.344
167.348
167.352
167.355
167.359
167.363
167.367
167.371
167.375
167.379
167.384
167.388
167.394
166.696
166.706
166.716
166.726
166.736
166.745
166.755
166.764
166.774
166.783
166.792
166.802
166.811
166.82
166.83
166.839
166.848
166.857
166.867
166.876
166.886
166.895
166.905
166.914
166.923
166.926
166.996
167.016
167.03
167.048
166.946
166.951
166.965
166.983
167.008
167.05
167.622
167.067
167.164
167.172
167.172
167.174
167.178
167.183
167.189
167.195
167.203
167.21
167.218
167.226
167.234
167.242
167.25
167.258
167.265
167.272
167.278
167.284
167.289
167.294
167.298
167.303
167.307
167.311
167.314
167.318
167.322
167.325
167.329
167.333
167.337
167.34
167.344
167.348
167.352
167.356
167.36
167.365
167.369
167.373
167.377
167.383
166.696
166.706
166.716
166.726
166.735
166.745
166.754
166.764
166.773
166.783
166.792
166.801
166.811
166.82
166.829
166.838
166.848
166.857
166.866
166.876
166.885
166.895
166.904
166.913
166.922
166.923
167.1
167.128
167.138
167.162
166.947
166.941
166.959
166.978
167.006
167.056
167.686
167.068
167.167