/*--------------------------------*- C++ -*----------------------------------*\
| =========                 |                                                 |
| \\      /  F ield         | OpenFOAM: The Open Source CFD Toolbox           |
|  \\    /   O peration     | Version:  v2012                                 |
|   \\  /    A nd           | Website:  www.openfoam.com                      |
|    \\/     M anipulation  |                                                 |
\*---------------------------------------------------------------------------*/
FoamFile
{
    version     2.0;
    format      ascii;
    class       volScalarField;
    location    "400/air";
    object      ILambda_43_0;
}
// * * * * * * * * * * * * * * * * * * * * * * * * * * * * * * * * * * * * * //

dimensions      [1 0 -3 0 0 0 0];


internalField   nonuniform List<scalar> 
287104
(
218.482
220.583
222.195
223.585
224.788
225.841
226.77
227.596
228.335
229.001
229.605
230.155
230.659
231.123
231.552
231.949
232.319
232.666
232.991
233.297
233.585
233.859
234.118
234.365
234.6
234.825
235.04
235.247
235.446
235.638
235.823
236.002
236.176
236.344
236.506
236.665
236.82
236.972
237.12
237.264
237.405
237.543
237.679
237.814
237.946
238.076
238.203
238.329
238.453
238.576
238.696
238.815
238.933
239.049
239.163
239.276
239.387
239.496
239.604
239.711
239.817
239.922
240.026
240.129
240.232
240.334
240.436
240.536
240.636
240.734
240.832
240.928
241.023
241.117
241.21
241.302
241.39
241.475
241.557
241.641
241.733
241.842
241.964
242.072
242.118
242.149
242.634
244.449
245.421
227.18
217.523
219.555
221.112
222.451
223.608
224.617
225.504
226.291
226.993
227.625
228.198
228.719
229.195
229.631
230.033
230.406
230.751
231.074
231.376
231.659
231.926
232.178
232.416
232.642
232.857
233.062
233.258
233.446
233.626
233.799
233.965
234.126
234.281
234.431
234.575
234.715
234.853
234.989
235.12
235.247
235.371
235.491
235.61
235.73
235.846
235.959
236.071
236.181
236.289
236.396
236.501
236.605
236.707
236.808
236.908
237.006
237.102
237.197
237.291
237.384
237.475
237.566
237.656
237.746
237.835
237.923
238.011
238.098
238.184
238.269
238.353
238.436
238.518
238.599
238.679
238.758
238.835
238.908
238.979
239.052
239.133
239.229
239.337
239.432
239.467
239.488
239.95
241.72
242.737
225.267
216.737
218.738
220.271
221.589
222.727
223.718
224.588
225.359
226.048
226.668
227.23
227.743
228.211
228.64
229.035
229.401
229.74
230.056
230.352
230.63
230.891
231.137
231.37
231.591
231.801
232.001
232.192
232.375
232.55
232.718
232.879
233.035
233.186
233.331
233.471
233.605
233.738
233.87
233.998
234.12
234.239
234.354
234.469
234.585
234.697
234.805
234.913
235.018
235.122
235.225
235.326
235.425
235.524
235.62
235.716
235.81
235.902
235.994
236.084
236.172
236.26
236.347
236.433
236.519
236.603
236.688
236.771
236.854
236.936
237.016
237.096
237.175
237.253
237.33
237.406
237.481
237.555
237.626
237.696
237.767
237.845
237.938
238.043
238.135
238.168
238.189
238.648
240.398
241.402
224.182
215.951
217.92
219.43
220.727
221.845
222.819
223.674
224.431
225.106
225.715
226.268
226.773
227.233
227.656
228.045
228.405
228.739
229.05
229.341
229.614
229.87
230.112
230.34
230.557
230.763
230.959
231.146
231.325
231.496
231.661
231.819
231.971
232.118
232.26
232.396
232.527
232.656
232.785
232.91
233.029
233.144
233.256
233.367
233.481
233.59
233.696
233.8
233.902
234.004
234.103
234.202
234.299
234.394
234.489
234.581
234.673
234.763
234.852
234.94
235.026
235.112
235.197
235.281
235.364
235.447
235.529
235.61
235.691
235.77
235.849
235.927
236.004
236.08
236.155
236.23
236.305
236.378
236.449
236.519
236.59
236.67
236.763
236.869
236.961
236.996
237.021
237.478
239.203
240.189
223.267
215.178
217.115
218.602
219.878
220.979
221.936
222.778
223.527
224.198
224.803
225.349
225.845
226.299
226.714
227.096
227.448
227.776
228.08
228.365
228.633
228.884
229.121
229.345
229.557
229.759
229.951
230.135
230.311
230.479
230.64
230.795
230.944
231.087
231.226
231.359
231.487
231.613
231.738
231.859
231.975
232.087
232.196
232.304
232.413
232.519
232.621
232.722
232.821
232.919
233.015
233.109
233.203
233.294
233.385
233.474
233.562
233.649
233.735
233.819
233.902
233.984
234.065
234.145
234.225
234.304
234.382
234.46
234.537
234.613
234.688
234.762
234.835
234.906
234.978
235.049
235.12
235.189
235.254
235.317
235.382
235.454
235.542
235.641
235.728
235.758
235.781
236.232
237.92
238.862
222.227
214.417
216.323
217.787
219.044
220.126
221.068
221.902
222.654
223.34
223.964
224.518
225.004
225.447
225.851
226.221
226.563
226.88
227.176
227.453
227.713
227.957
228.188
228.407
228.615
228.812
229.001
229.181
229.353
229.518
229.677
229.828
229.974
230.114
230.249
230.38
230.505
230.626
230.745
230.86
230.971
231.079
231.184
231.287
231.388
231.488
231.584
231.678
231.77
231.861
231.95
232.037
232.123
232.207
232.291
232.372
232.453
232.532
232.609
232.685
232.76
232.834
232.906
232.978
233.049
233.119
233.188
233.257
233.324
233.39
233.455
233.519
233.582
233.643
233.703
233.764
233.824
233.88
233.929
233.969
234.004
234.048
234.111
234.188
234.254
234.267
234.274
234.706
236.341
237.18
220.735
213.668
215.544
216.986
218.223
219.287
220.214
221.041
221.805
222.522
223.19
223.783
224.253
224.68
225.067
225.421
225.749
226.053
226.338
226.606
226.858
227.096
227.321
227.536
227.739
227.934
228.119
228.296
228.466
228.628
228.784
228.932
229.074
229.209
229.339
229.466
229.587
229.701
229.808
229.913
230.015
230.116
230.214
230.307
230.393
230.479
230.564
230.646
230.725
230.802
230.877
230.95
231.021
231.09
231.158
231.225
231.289
231.352
231.413
231.473
231.531
231.587
231.642
231.696
231.749
231.801
231.851
231.901
231.949
231.996
232.042
232.086
232.128
232.169
232.209
232.249
232.288
232.322
232.342
232.345
232.334
232.323
232.343
232.382
232.415
232.399
232.383
232.792
234.376
235.065
218.534
212.932
214.778
216.198
217.415
218.462
219.373
220.196
220.971
221.693
222.334
222.913
223.353
223.757
224.128
224.474
224.799
225.104
225.393
225.665
225.923
226.167
226.399
226.619
226.827
227.024
227.211
227.389
227.558
227.719
227.872
228.017
228.154
228.282
228.405
228.525
228.64
228.743
228.832
228.919
229.009
229.097
229.186
229.264
229.328
229.395
229.463
229.527
229.588
229.647
229.702
229.755
229.806
229.855
229.902
229.946
229.989
230.029
230.066
230.102
230.135
230.167
230.196
230.224
230.251
230.276
230.299
230.322
230.343
230.362
230.38
230.397
230.412
230.426
230.439
230.453
230.467
230.475
230.465
230.439
230.411
230.382
230.383
230.404
230.419
230.39
230.362
230.762
232.327
232.904
215.906
212.208
214.023
215.422
216.621
217.65
218.548
219.37
220.156
220.795
221.039
221.044
221.381
221.759
222.155
222.553
222.943
223.319
223.677
224.017
224.337
224.637
224.917
225.177
225.418
225.639
225.843
226.03
226.204
226.366
226.517
226.659
226.789
226.909
227.021
227.133
227.244
227.336
227.404
227.474
227.552
227.633
227.718
227.787
227.831
227.881
227.939
227.99
228.037
228.08
228.12
228.157
228.192
228.225
228.256
228.283
228.307
228.328
228.347
228.362
228.375
228.386
228.394
228.399
228.403
228.405
228.405
228.403
228.399
228.393
228.386
228.377
228.367
228.355
228.342
228.331
228.32
228.299
228.256
228.223
228.308
228.516
228.669
228.792
228.874
228.889
228.893
229.312
230.889
231.453
214.186
211.495
213.281
214.658
215.839
216.852
217.737
218.563
219.374
219.866
219.011
216.498
216.484
216.863
217.425
218.051
218.687
219.305
219.891
220.437
220.938
221.393
221.801
222.164
222.483
222.762
223.003
223.212
223.395
223.557
223.702
223.836
223.958
224.066
224.166
224.269
224.376
224.463
224.517
224.576
224.654
224.739
224.836
224.915
224.955
225.007
225.074
225.133
225.188
225.239
225.287
225.331
225.373
225.412
225.445
225.474
225.498
225.517
225.531
225.54
225.544
225.543
225.537
225.526
225.51
225.489
225.463
225.433
225.397
225.357
225.313
225.264
225.21
225.153
225.094
225.033
224.97
224.889
224.773
224.702
225.063
226.214
226.984
227.528
227.889
228.086
228.209
228.706
230.338
230.994
213.948
210.794
212.55
213.907
215.069
216.067
216.94
217.764
218.604
219.029
216.858
209.022
208.394
208.944
209.921
211.01
212.088
213.103
214.033
214.87
215.61
216.256
216.81
217.277
217.664
217.979
218.229
218.425
218.577
218.696
218.79
218.87
218.938
218.997
219.055
219.125
219.209
219.274
219.302
219.343
219.417
219.505
219.616
219.711
219.758
219.826
219.92
220.007
220.093
220.178
220.261
220.343
220.422
220.497
220.566
220.63
220.688
220.739
220.784
220.823
220.854
220.877
220.892
220.898
220.896
220.884
220.862
220.831
220.79
220.738
220.677
220.606
220.525
220.435
220.337
220.233
220.121
219.987
219.799
219.648
220.254
223.166
225.121
226.473
227.375
227.928
228.284
228.935
230.687
231.544
215.054
210.104
211.831
213.167
214.312
215.295
216.156
216.966
217.785
218.213
216.202
208.778
208.154
208.671
209.606
210.657
211.703
212.693
213.605
214.429
215.161
215.802
216.353
216.819
217.204
217.516
217.763
217.954
218.097
218.203
218.283
218.346
218.399
218.447
218.498
218.572
218.671
218.751
218.78
218.829
218.927
219.046
219.201
219.339
219.412
219.513
219.655
219.792
219.933
220.078
220.227
220.379
220.533
220.685
220.837
220.988
221.137
221.284
221.43
221.572
221.712
221.847
221.977
222.101
222.218
222.328
222.429
222.521
222.603
222.673
222.732
222.779
222.814
222.836
222.845
222.844
222.83
222.791
222.704
222.649
223.183
225.407
226.887
227.91
228.596
229.012
229.284
229.889
231.642
232.677
217.043
209.426
211.123
212.44
213.567
214.536
215.385
216.185
216.996
217.414
215.417
208.08
207.457
207.964
208.884
209.919
210.951
211.928
212.828
213.642
214.365
214.997
215.539
215.995
216.37
216.672
216.908
217.087
217.217
217.307
217.367
217.409
217.441
217.467
217.499
217.557
217.646
217.71
217.705
217.72
217.794
217.89
218.029
218.15
218.181
218.243
218.356
218.463
218.573
218.688
218.806
218.925
219.041
219.153
219.263
219.372
219.481
219.589
219.698
219.806
219.915
220.025
220.135
220.247
220.361
220.477
220.595
220.715
220.838
220.963
221.09
221.22
221.352
221.485
221.619
221.755
221.889
222.007
222.083
222.193
222.859
225.039
226.449
227.416
228.079
228.505
228.809
229.452
231.233
232.378
217.851
208.758
210.427
211.724
212.834
213.789
214.627
215.416
216.216
216.63
214.667
207.448
206.833
207.33
208.234
209.253
210.268
211.231
212.118
212.92
213.633
214.256
214.79
215.239
215.608
215.905
216.139
216.318
216.447
216.535
216.59
216.624
216.646
216.664
216.69
216.747
216.843
216.91
216.889
216.888
216.958
217.052
217.198
217.325
217.338
217.385
217.496
217.598
217.707
217.82
217.933
218.041
218.143
218.238
218.328
218.415
218.499
218.58
218.657
218.729
218.797
218.861
218.921
218.977
219.029
219.079
219.125
219.167
219.207
219.243
219.277
219.308
219.338
219.366
219.393
219.422
219.449
219.462
219.435
219.431
219.964
222.092
223.428
224.332
224.958
225.376
225.699
226.361
228.13
229.196
214.765
208.102
209.741
211.019
212.112
213.054
213.88
214.657
215.442
215.846
213.911
206.808
206.202
206.692
207.583
208.586
209.587
210.536
211.411
212.202
212.906
213.521
214.048
214.49
214.854
215.146
215.378
215.559
215.692
215.784
215.838
215.866
215.879
215.89
215.911
215.968
216.073
216.147
216.117
216.104
216.174
216.27
216.427
216.567
216.572
216.612
216.73
216.843
216.966
217.092
217.214
217.326
217.431
217.534
217.637
217.741
217.845
217.945
218.043
218.135
218.223
218.308
218.39
218.468
218.545
218.619
218.691
218.759
218.825
218.888
218.946
219.001
219.052
219.098
219.139
219.175
219.205
219.213
219.178
219.163
219.664
221.706
222.963
223.778
224.303
224.612
224.831
225.408
227.096
228.097
213.414
207.455
209.067
210.325
211.402
212.33
213.145
213.907
214.668
215.045
213.118
206.116
205.525
206.01
206.892
207.885
208.875
209.814
210.68
211.463
212.159
212.767
213.288
213.724
214.081
214.368
214.597
214.778
214.917
215.016
215.075
215.1
215.106
215.106
215.12
215.176
215.288
215.371
215.334
215.312
215.383
215.483
215.652
215.807
215.809
215.849
215.983
216.115
216.259
216.402
216.532
216.648
216.756
216.865
216.979
217.096
217.213
217.327
217.44
217.55
217.659
217.767
217.874
217.98
218.086
218.193
218.299
218.406
218.513
218.62
218.729
218.838
218.948
219.058
219.168
219.28
219.391
219.489
219.559
219.671
220.301
222.325
223.606
224.465
225.039
225.397
225.659
226.269
227.972
229.055
215.028
206.819
208.403
209.643
210.703
211.619
212.422
213.168
213.898
214.234
212.289
205.356
204.78
205.266
206.144
207.131
208.115
209.047
209.905
210.679
211.366
211.965
212.476
212.901
213.247
213.521
213.739
213.914
214.054
214.158
214.224
214.249
214.246
214.232
214.232
214.279
214.391
214.477
214.433
214.399
214.469
214.57
214.747
214.917
214.924
214.971
215.127
215.288
215.458
215.617
215.753
215.868
215.975
216.088
216.208
216.332
216.455
216.574
216.69
216.803
216.915
217.026
217.136
217.246
217.355
217.466
217.576
217.688
217.801
217.914
218.028
218.144
218.26
218.377
218.494
218.612
218.73
218.835
218.914
219.05
219.738
221.828
223.167
224.067
224.668
225.05
225.339
225.972
227.678
228.786
215.214
206.194
207.75
208.972
210.016
210.919
211.711
212.439
213.139
213.454
211.543
204.696
204.133
204.616
205.486
206.461
207.429
208.343
209.18
209.93
210.591
211.162
211.643
212.038
212.353
212.598
212.787
212.938
213.063
213.163
213.229
213.252
213.237
213.202
213.176
213.199
213.295
213.373
213.313
213.26
213.32
213.415
213.594
213.778
213.796
213.859
214.048
214.245
214.445
214.619
214.755
214.864
214.967
215.076
215.192
215.306
215.413
215.51
215.599
215.681
215.759
215.833
215.904
215.972
216.038
216.103
216.166
216.227
216.287
216.345
216.4
216.454
216.504
216.55
216.593
216.631
216.663
216.679
216.662
216.695
217.303
219.435
220.806
221.73
222.344
222.725
222.993
223.574
225.177
226.111
212.447
205.58
207.109
208.312
209.341
210.231
211.011
211.718
212.389
212.758
211.182
204.844
204.313
204.773
205.589
206.498
207.395
208.233
208.991
209.662
210.241
210.73
211.133
211.455
211.702
211.885
212.019
212.124
212.217
212.301
212.363
212.387
212.366
212.312
212.258
212.251
212.325
212.388
212.311
212.238
212.284
212.37
212.546
212.74
212.771
212.859
213.089
213.328
213.557
213.743
213.881
213.991
214.097
214.209
214.321
214.421
214.503
214.565
214.609
214.64
214.66
214.673
214.681
214.684
214.684
214.682
214.677
214.671
214.662
214.652
214.639
214.623
214.604
214.583
214.557
214.527
214.491
214.442
214.361
214.308
214.783
216.914
218.322
219.295
219.958
220.38
220.671
221.243
222.772
223.544
209.798
204.977
206.478
207.665
208.678
209.555
210.321
211.004
211.633
212.117
211.484
207.284
206.964
207.36
207.994
208.684
209.354
209.97
210.52
210.996
211.399
211.732
212.003
212.217
212.381
212.502
212.595
212.676
212.763
212.862
212.961
213.031
213.052
213.025
212.982
212.98
213.063
213.144
213.074
213
213.045
213.123
213.287
213.474
213.488
213.566
213.802
214.041
214.255
214.412
214.52
214.612
214.715
214.829
214.941
215.035
215.104
215.146
215.165
215.166
215.156
215.137
215.112
215.084
215.054
215.022
214.99
214.957
214.923
214.889
214.854
214.818
214.781
214.742
214.702
214.66
214.615
214.563
214.493
214.418
214.666
216.285
217.391
218.163
218.688
219.012
219.227
219.721
221.143
221.751
207.82
204.382
205.857
207.026
208.023
208.887
209.642
210.305
210.888
211.417
211.965
212.535
212.87
213.198
213.506
213.797
214.073
214.335
214.583
214.818
215.041
215.252
215.451
215.638
215.811
215.969
216.114
216.258
216.418
216.605
216.806
216.99
217.117
217.176
217.192
217.236
217.374
217.518
217.483
217.426
217.49
217.564
217.711
217.871
217.811
217.806
217.968
218.111
218.201
218.219
218.198
218.186
218.214
218.274
218.348
218.416
218.474
218.526
218.572
218.615
218.654
218.688
218.718
218.745
218.767
218.786
218.803
218.816
218.827
218.836
218.842
218.847
218.85
218.851
218.85
218.848
218.845
218.841
218.837
218.832
218.805
218.745
218.734
218.743
218.751
218.723
218.695
219.01
220.284
220.791
206.805
203.794
205.242
206.394
207.376
208.226
208.969
209.625
210.207
210.722
211.17
211.561
211.939
212.29
212.618
212.922
213.204
213.467
213.713
213.942
214.158
214.36
214.55
214.73
214.898
215.05
215.188
215.319
215.462
215.633
215.832
216.031
216.185
216.267
216.287
216.314
216.43
216.568
216.54
216.489
216.559
216.631
216.773
216.946
216.903
216.915
217.09
217.227
217.296
217.296
217.273
217.278
217.33
217.411
217.498
217.575
217.641
217.701
217.757
217.81
217.858
217.902
217.942
217.977
218.009
218.037
218.061
218.082
218.1
218.114
218.127
218.136
218.144
218.149
218.152
218.154
218.154
218.152
218.147
218.143
218.145
218.16
218.183
218.212
218.233
218.213
218.19
218.495
219.737
220.29
206.723
203.21
204.631
205.766
206.732
207.569
208.301
208.946
209.519
210.031
210.492
210.908
211.287
211.635
211.956
212.252
212.527
212.784
213.024
213.249
213.46
213.659
213.848
214.027
214.198
214.356
214.499
214.63
214.763
214.92
215.11
215.316
215.492
215.598
215.629
215.648
215.75
215.886
215.871
215.831
215.906
215.968
216.095
216.269
216.234
216.248
216.417
216.531
216.572
216.557
216.541
216.569
216.643
216.739
216.831
216.912
216.984
217.052
217.116
217.177
217.232
217.283
217.328
217.369
217.405
217.438
217.467
217.492
217.515
217.535
217.552
217.568
217.582
217.594
217.606
217.616
217.626
217.635
217.643
217.651
217.661
217.678
217.706
217.744
217.775
217.769
217.761
218.072
219.29
219.88
207.069
202.628
204.023
205.141
206.092
206.916
207.636
208.272
208.836
209.341
209.796
210.208
210.583
210.928
211.245
211.537
211.809
212.063
212.3
212.522
212.731
212.927
213.113
213.292
213.464
213.628
213.78
213.918
214.05
214.194
214.369
214.568
214.751
214.871
214.912
214.932
215.037
215.193
215.208
215.178
215.221
215.219
215.276
215.4
215.332
215.309
215.431
215.49
215.48
215.433
215.408
215.431
215.492
215.562
215.625
215.679
215.73
215.78
215.828
215.872
215.911
215.946
215.977
216.005
216.029
216.051
216.071
216.089
216.106
216.123
216.14
216.157
216.175
216.194
216.216
216.239
216.264
216.29
216.319
216.349
216.384
216.427
216.483
216.55
216.611
216.638
216.666
217.009
218.24
218.837
206.405
202.051
203.419
204.521
205.457
206.268
206.977
207.602
208.158
208.655
209.104
209.51
209.881
210.221
210.534
210.823
211.092
211.342
211.577
211.797
212.005
212.2
212.384
212.56
212.732
212.901
213.066
213.22
213.364
213.508
213.673
213.86
214.04
214.163
214.206
214.236
214.375
214.603
214.684
214.614
214.489
214.262
214.083
214.044
213.872
213.747
213.775
213.747
213.665
213.573
213.518
213.509
213.525
213.543
213.558
213.575
213.598
213.625
213.654
213.681
213.706
213.73
213.753
213.777
213.802
213.828
213.856
213.886
213.919
213.955
213.994
214.036
214.082
214.131
214.184
214.241
214.301
214.364
214.429
214.497
214.569
214.649
214.741
214.844
214.941
215.003
215.066
215.446
216.7
217.289
204.961
201.483
202.826
203.911
204.832
205.63
206.328
206.944
207.491
207.981
208.423
208.824
209.19
209.526
209.835
210.121
210.387
210.635
210.868
211.086
211.293
211.487
211.67
211.844
212.013
212.183
212.357
212.53
212.695
212.856
213.023
213.204
213.38
213.5
213.54
213.584
213.787
214.131
214.294
214.119
213.489
212.717
212.011
211.536
211.21
210.954
210.891
210.797
210.677
210.571
210.512
210.497
210.499
210.512
210.538
210.583
210.647
210.721
210.801
210.884
210.967
211.053
211.14
211.228
211.317
211.406
211.497
211.588
211.68
211.772
211.865
211.959
212.054
212.15
212.246
212.344
212.442
212.541
212.64
212.739
212.84
212.947
213.063
213.188
213.304
213.384
213.464
213.859
215.115
215.672
203.35
200.938
202.255
203.324
204.231
205.017
205.704
206.31
206.85
207.333
207.768
208.164
208.525
208.856
209.162
209.445
209.708
209.954
210.185
210.403
210.609
210.804
210.987
211.16
211.325
211.491
211.665
211.849
212.036
212.22
212.403
212.59
212.769
212.895
212.944
213.018
213.298
213.694
213.67
212.752
211.091
209.478
208.187
207.466
207.127
206.921
206.967
207.008
207.048
207.112
207.213
207.337
207.475
207.625
207.793
207.98
208.174
208.367
208.552
208.729
208.897
209.059
209.215
209.365
209.509
209.649
209.785
209.917
210.047
210.173
210.297
210.419
210.539
210.657
210.774
210.89
211.005
211.118
211.23
211.341
211.451
211.565
211.686
211.814
211.931
212.01
212.09
212.481
213.716
214.232
201.969
200.432
201.726
202.781
203.675
204.449
205.126
205.724
206.256
206.732
207.161
207.552
207.908
208.236
208.538
208.818
209.079
209.324
209.554
209.771
209.978
210.175
210.36
210.534
210.696
210.855
211.019
211.2
211.395
211.598
211.801
212.001
212.192
212.341
212.431
212.581
212.955
213.145
211.968
209.926
207.068
204.958
204.017
203.045
203.038
203.252
203.704
204.114
204.492
204.85
205.189
205.502
205.792
206.072
206.351
206.624
206.883
207.12
207.338
207.538
207.726
207.904
208.072
208.232
208.386
208.533
208.676
208.814
208.948
209.078
209.206
209.331
209.453
209.574
209.692
209.808
209.922
210.034
210.144
210.251
210.356
210.463
210.576
210.693
210.799
210.866
210.934
211.31
212.516
212.991
200.832
199.993
201.266
202.308
203.191
203.955
204.624
205.214
205.739
206.209
206.634
207.019
207.372
207.696
207.995
208.273
208.532
208.775
209.004
209.222
209.43
209.629
209.818
209.994
210.157
210.31
210.463
210.628
210.814
211.019
211.233
211.446
211.653
211.836
211.997
212.277
212.828
212.621
207.864
196.782
194.086
192.658
194.705
200.512
200.698
201.315
202.082
202.745
203.339
203.867
204.329
204.728
205.083
205.412
205.72
206.005
206.262
206.489
206.692
206.88
207.056
207.223
207.384
207.538
207.686
207.827
207.964
208.096
208.224
208.349
208.47
208.589
208.706
208.821
208.933
209.043
209.15
209.255
209.356
209.454
209.548
209.643
209.741
209.842
209.929
209.977
210.026
210.382
211.557
211.998
199.926
199.642
200.9
201.932
202.806
203.563
204.226
204.811
205.331
205.798
206.218
206.601
206.95
207.271
207.568
207.844
208.101
208.343
208.571
208.789
208.998
209.199
209.39
209.57
209.735
209.888
210.033
210.185
210.355
210.55
210.764
210.985
211.206
211.419
211.651
212.057
212.783
212.293
203.862
181.291
179.999
179.299
184.503
200.15
200.07
200.677
201.403
202.037
202.637
203.188
203.678
204.115
204.515
204.888
205.229
205.535
205.807
206.049
206.267
206.469
206.655
206.83
206.994
207.148
207.294
207.432
207.565
207.692
207.816
207.937
208.057
208.176
208.294
208.41
208.525
208.638
208.747
208.853
208.955
209.05
209.141
209.229
209.317
209.404
209.476
209.505
209.535
209.868
211.013
211.417
199.371
199.398
200.643
201.669
202.537
203.29
203.95
204.532
205.051
205.516
205.937
206.319
206.668
206.99
207.286
207.561
207.817
208.058
208.286
208.504
208.713
208.913
209.103
209.283
209.45
209.605
209.751
209.899
210.065
210.255
210.47
210.699
210.936
211.18
211.457
211.923
212.721
212.145
201.704
171.731
171.327
171.13
178.332
200.646
200.318
200.784
201.341
201.822
202.315
202.79
203.236
203.66
204.071
204.468
204.844
205.189
205.501
205.782
206.035
206.268
206.481
206.675
206.852
207.015
207.167
207.31
207.447
207.581
207.714
207.847
207.982
208.119
208.258
208.397
208.537
208.675
208.81
208.94
209.062
209.175
209.28
209.376
209.468
209.552
209.614
209.629
209.638
209.947
211.066
211.446
199.358
199.259
200.498
201.52
202.384
203.135
203.792
204.374
204.894
205.361
205.783
206.169
206.522
206.847
207.147
207.425
207.685
207.928
208.158
208.378
208.588
208.787
208.974
209.149
209.315
209.473
209.626
209.78
209.954
210.152
210.374
210.612
210.867
211.157
211.436
211.871
212.58
211.987
201.167
168.955
168.871
169.005
177.461
203.219
202.436
202.484
202.639
202.755
202.96
203.206
203.478
203.78
204.113
204.468
204.826
205.171
205.495
205.795
206.062
206.292
206.531
206.741
206.933
207.109
207.274
207.433
207.59
207.749
207.914
208.085
208.263
208.446
208.634
208.828
209.024
209.222
209.418
209.607
209.786
209.951
210.099
210.23
210.346
210.444
210.507
210.511
210.498
210.778
211.867
212.223
200.06
199.21
200.446
201.465
202.328
203.076
203.732
204.313
204.832
205.3
205.725
206.113
206.47
206.8
207.107
207.392
207.659
207.91
208.148
208.375
208.591
208.793
208.98
209.156
209.327
209.496
209.663
209.828
210.009
210.208
210.425
210.641
210.87
211.209
211.414
211.742
212.285
211.645
201.101
169.011
169.062
169.528
179.298
208.728
207.281
206.518
206.019
205.549
205.276
205.116
205.045
205.066
205.174
205.349
205.564
205.796
206.034
206.273
206.485
206.606
206.836
207.036
207.229
207.416
207.602
207.791
207.985
208.19
208.41
208.646
208.896
209.155
209.423
209.697
209.977
210.261
210.544
210.82
211.083
211.326
211.544
211.732
211.888
212.006
212.069
212.051
211.999
212.229
213.268
213.576
201.347
199.22
200.456
201.475
202.337
203.084
203.738
204.317
204.834
205.299
205.722
206.109
206.466
206.798
207.107
207.397
207.67
207.929
208.177
208.415
208.641
208.851
209.046
209.237
209.438
209.651
209.858
210.04
210.204
210.351
210.492
210.603
210.676
210.815
210.797
210.885
211.392
210.922
200.554
169.233
169.326
170.033
180.609
211.825
210.709
209.627
209.071
208.465
208.021
207.643
207.325
207.087
206.937
206.862
206.844
206.87
206.933
207.032
207.141
207.197
207.38
207.555
207.738
207.936
208.153
208.39
208.645
208.917
209.208
209.518
209.846
210.189
210.541
210.902
211.268
211.638
212.004
212.353
212.667
212.931
213.13
213.262
213.334
213.353
213.313
213.202
213.074
213.255
214.278
214.566
202.135
199.257
200.495
201.515
202.377
203.125
203.778
204.356
204.87
205.332
205.751
206.134
206.487
206.815
207.121
207.41
207.683
207.944
208.196
208.44
208.672
208.888
209.092
209.309
209.573
209.888
210.195
210.384
210.446
210.413
210.321
210.2
210.012
209.856
209.492
208.999
209.244
210
200.212
169.298
169.304
169.909
180.543
212.649
211.975
210.571
209.963
209.277
208.797
208.425
208.152
207.963
207.839
207.756
207.699
207.671
207.683
207.743
207.827
207.867
208.056
208.254
208.475
208.716
208.978
209.269
209.592
209.942
210.307
210.678
211.058
211.449
211.849
212.243
212.607
212.91
213.131
213.263
213.313
213.297
213.235
213.151
213.062
212.976
212.883
212.76
212.651
212.878
213.975
214.319
201.675
199.292
200.532
201.554
202.418
203.167
203.822
204.4
204.916
205.378
205.796
206.178
206.528
206.853
207.156
207.441
207.711
207.97
208.221
208.465
208.696
208.909
209.114
209.361
209.712
210.172
210.633
210.863
210.603
210.158
209.586
208.999
208.571
208.267
207.918
206.604
203.562
207.37
201.195
170.511
170.223
170.122
177.232
210.857
211.646
212.42
211.764
210.511
209.517
208.779
208.332
208.097
208.027
208.051
208.109
208.176
208.256
208.38
208.543
208.673
208.932
209.186
209.473
209.804
210.153
210.491
210.817
211.154
211.514
211.889
212.238
212.518
212.702
212.789
212.792
212.737
212.645
212.536
212.422
212.314
212.217
212.137
212.078
212.038
212
211.936
211.888
212.176
213.328
213.708
201.033
199.311
200.552
201.575
202.44
203.19
203.847
204.427
204.945
205.409
205.83
206.214
206.566
206.892
207.196
207.482
207.752
208.012
208.264
208.51
208.741
208.951
209.158
209.443
209.887
210.431
210.85
210.676
209.716
208.631
207.548
206.713
206.305
206.274
206.826
206.095
192.75
211.974
212.137
210.668
209.638
208.904
208.436
208.218
208.19
208.335
208.581
208.856
209.105
209.333
209.543
209.71
210.032
210.34
210.626
210.906
211.206
211.501
211.737
211.886
211.953
211.956
211.915
211.846
211.762
211.671
211.578
211.488
211.405
211.332
211.271
211.223
211.189
211.171
211.171
211.187
211.201
211.185
211.182
211.509
212.689
213.084
200.453
199.31
200.551
201.573
202.438
203.189
203.846
204.427
204.945
205.411
205.833
206.218
206.573
206.901
207.207
207.495
207.769
208.032
208.288
208.538
208.774
208.986
209.204
209.547
210.088
210.447
209.895
209.104
207.215
205.685
204.975
203.901
203.906
204.536
205.982
206.426
193.834
211.334
212.236
211.078
210.175
209.473
208.992
208.753
208.69
208.809
209.072
209.445
209.761
210.014
210.21
210.279
210.435
210.532
210.597
210.637
210.66
210.667
210.658
210.637
210.605
210.569
210.53
210.494
210.46
210.43
210.401
210.376
210.355
210.341
210.335
210.337
210.35
210.376
210.416
210.469
210.518
210.534
210.559
210.908
212.101
212.507
199.946
199.297
200.536
201.558
202.422
203.172
203.828
204.408
204.926
205.392
205.813
206.198
206.553
206.882
207.188
207.477
207.752
208.016
208.275
208.528
208.768
208.983
209.214
209.626
210.31
210.241
206.16
196.558
194.467
193.373
195.791
201.991
202.313
203.58
205.66
206.709
194.314
211.124
212.074
210.995
210.102
209.39
208.887
208.593
208.477
208.49
208.601
208.791
209.006
209.159
209.246
209.217
209.289
209.323
209.347
209.368
209.39
209.411
209.428
209.44
209.45
209.457
209.464
209.472
209.483
209.496
209.514
209.537
209.566
209.599
209.638
209.683
209.733
209.792
209.862
209.942
210.014
210.052
210.095
210.457
211.654
212.064
199.573
199.278
200.517
201.538
202.402
203.151
203.806
204.386
204.903
205.367
205.788
206.173
206.527
206.855
207.162
207.451
207.726
207.99
208.249
208.504
208.745
208.963
209.201
209.66
210.46
210.02
202.054
180.389
179.351
178.912
184.74
201.657
201.811
203.225
205.444
206.702
194.503
211.175
212.176
211.057
210.073
209.25
208.644
208.24
208.018
207.941
207.962
208.07
208.189
208.292
208.353
208.311
208.38
208.422
208.459
208.495
208.532
208.57
208.609
208.651
208.694
208.737
208.782
208.827
208.873
208.922
208.973
209.027
209.084
209.144
209.208
209.275
209.345
209.422
209.509
209.604
209.691
209.742
209.798
210.168
211.37
211.792
199.366
199.263
200.501
201.522
202.385
203.134
203.789
204.369
204.885
205.349
205.769
206.152
206.505
206.833
207.139
207.427
207.7
207.964
208.221
208.474
208.715
208.933
209.175
209.65
210.499
209.868
199.625
169.979
169.604
169.602
177.517
201.652
201.652
202.993
205.049
206.163
194.101
211.635
212.837
211.648
210.634
209.706
209.002
208.495
208.169
208.006
207.939
207.947
207.986
208.041
208.078
208.026
208.094
208.137
208.177
208.214
208.252
208.291
208.331
208.374
208.42
208.467
208.517
208.569
208.623
208.68
208.74
208.802
208.869
208.938
209.01
209.085
209.163
209.248
209.342
209.444
209.538
209.597
209.66
210.035
211.244
211.685
199.319
199.254
200.493
201.514
202.377
203.126
203.782
204.361
204.877
205.341
205.761
206.144
206.496
206.822
207.127
207.413
207.684
207.944
208.197
208.445
208.682
208.9
209.139
209.604
210.436
209.734
198.807
166.418
166.24
166.494
175.465
202.733
202.384
203.318
204.843
205.435
193.33
212.449
214.05