/*--------------------------------*- C++ -*----------------------------------*\
| =========                 |                                                 |
| \\      /  F ield         | OpenFOAM: The Open Source CFD Toolbox           |
|  \\    /   O peration     | Version:  v2012                                 |
|   \\  /    A nd           | Website:  www.openfoam.com                      |
|    \\/     M anipulation  |                                                 |
\*---------------------------------------------------------------------------*/
FoamFile
{
    version     2.0;
    format      ascii;
    class       volScalarField;
    location    "400/air";
    object      ILambda_69_0;
}
// * * * * * * * * * * * * * * * * * * * * * * * * * * * * * * * * * * * * * //

dimensions      [1 0 -3 0 0 0 0];


internalField   nonuniform List<scalar> 
287104
(
166.758
166.769
166.776
166.784
166.791
166.799
166.806
166.814
166.821
166.829
166.836
166.843
166.851
166.858
166.865
166.872
166.88
166.887
166.894
166.901
166.908
166.915
166.922
166.929
166.936
166.943
166.95
166.957
166.964
166.971
166.978
166.985
166.992
166.999
167.006
167.013
167.02
167.027
167.034
167.041
167.048
167.055
167.062
167.07
167.077
167.084
167.091
167.098
167.105
167.112
167.119
167.126
167.134
167.141
167.148
167.155
167.162
167.169
167.177
167.184
167.191
167.198
167.205
167.211
167.219
167.228
167.238
167.247
167.255
167.259
167.262
167.264
167.27
167.279
167.29
167.3
167.307
167.31
167.309
167.307
167.305
167.308
167.317
167.331
167.345
167.351
167.327
167.225
167.564
173.235
166.758
166.769
166.775
166.783
166.791
166.798
166.805
166.813
166.82
166.827
166.835
166.842
166.849
166.856
166.864
166.871
166.878
166.885
166.892
166.899
166.906
166.913
166.92
166.927
166.934
166.941
166.948
166.954
166.961
166.968
166.975
166.982
166.989
166.996
167.003
167.01
167.016
167.023
167.03
167.037
167.044
167.051
167.058
167.065
167.072
167.079
167.086
167.093
167.1
167.107
167.114
167.121
167.128
167.135
167.142
167.149
167.156
167.164
167.171
167.178
167.185
167.192
167.198
167.205
167.212
167.221
167.231
167.241
167.248
167.253
167.255
167.257
167.263
167.272
167.283
167.293
167.3
167.303
167.303
167.3
167.298
167.299
167.308
167.321
167.335
167.343
167.323
167.228
167.566
173.096
166.757
166.768
166.775
166.783
166.79
166.797
166.805
166.812
166.819
166.827
166.834
166.841
166.848
166.855
166.862
166.87
166.877
166.884
166.891
166.897
166.904
166.911
166.918
166.925
166.932
166.939
166.946
166.953
166.959
166.966
166.973
166.98
166.987
166.993
167
167.007
167.014
167.021
167.028
167.034
167.041
167.048
167.055
167.062
167.069
167.076
167.083
167.09
167.097
167.104
167.11
167.117
167.124
167.131
167.138
167.145
167.152
167.159
167.167
167.174
167.181
167.187
167.194
167.2
167.208
167.216
167.226
167.236
167.243
167.247
167.25
167.252
167.258
167.267
167.277
167.287
167.294
167.298
167.298
167.295
167.292
167.293
167.3
167.313
167.327
167.336
167.316
167.225
167.558
172.936
166.757
166.768
166.775
166.782
166.789
166.797
166.804
166.811
166.819
166.826
166.833
166.84
166.847
166.854
166.861
166.868
166.875
166.882
166.889
166.896
166.903
166.909
166.916
166.923
166.93
166.937
166.943
166.95
166.957
166.964
166.97
166.977
166.984
166.991
166.997
167.004
167.011
167.018
167.024
167.031
167.038
167.045
167.052
167.058
167.065
167.072
167.079
167.086
167.093
167.099
167.106
167.113
167.12
167.127
167.134
167.141
167.148
167.155
167.162
167.169
167.176
167.182
167.189
167.195
167.203
167.211
167.221
167.23
167.238
167.242
167.244
167.247
167.252
167.261
167.272
167.281
167.289
167.292
167.293
167.29
167.286
167.286
167.293
167.305
167.32
167.329
167.309
167.211
167.532
172.869
166.757
166.767
166.774
166.782
166.789
166.796
166.803
166.81
166.818
166.825
166.832
166.839
166.846
166.853
166.86
166.867
166.874
166.88
166.887
166.894
166.901
166.908
166.914
166.921
166.928
166.934
166.941
166.948
166.954
166.961
166.968
166.974
166.981
166.988
166.994
167.001
167.008
167.014
167.021
167.028
167.035
167.041
167.048
167.055
167.061
167.068
167.075
167.082
167.088
167.095
167.102
167.109
167.116
167.122
167.129
167.136
167.143
167.15
167.157
167.164
167.17
167.177
167.183
167.19
167.197
167.205
167.215
167.224
167.232
167.236
167.238
167.24
167.245
167.254
167.265
167.274
167.282
167.286
167.286
167.283
167.279
167.279
167.284
167.295
167.31
167.322
167.303
167.194
167.478
172.732
166.756
166.767
166.774
166.781
166.788
166.795
166.803
166.81
166.817
166.824
166.831
166.838
166.845
166.852
166.858
166.865
166.872
166.879
166.886
166.892
166.899
166.906
166.912
166.919
166.926
166.932
166.939
166.945
166.952
166.959
166.965
166.972
166.978
166.985
166.991
166.998
167.004
167.011
167.018
167.024
167.031
167.037
167.044
167.051
167.057
167.064
167.071
167.077
167.084
167.09
167.097
167.104
167.11
167.117
167.124
167.13
167.137
167.144
167.151
167.158
167.164
167.171
167.177
167.183
167.19
167.198
167.208
167.217
167.224
167.228
167.229
167.232
167.237
167.245
167.256
167.265
167.272
167.276
167.276
167.273
167.269
167.267
167.271
167.28
167.294
167.309
167.301
167.195
167.401
172.33
166.756
166.767
166.773
166.781
166.788
166.795
166.802
166.809
166.816
166.823
166.83
166.837
166.843
166.85
166.857
166.864
166.871
166.877
166.884
166.891
166.897
166.904
166.91
166.917
166.923
166.93
166.936
166.943
166.949
166.956
166.962
166.969
166.975
166.982
166.988
166.995
167.001
167.007
167.014
167.02
167.027
167.033
167.04
167.046
167.053
167.059
167.066
167.072
167.079
167.085
167.091
167.098
167.104
167.111
167.117
167.124
167.13
167.137
167.143
167.15
167.156
167.162
167.168
167.174
167.181
167.189
167.198
167.206
167.213
167.217
167.218
167.22
167.225
167.233
167.242
167.251
167.258
167.261
167.261
167.257
167.253
167.25
167.252
167.259
167.271
167.288
167.3
167.236
167.363
171.544
166.756
166.766
166.773
166.78
166.787
166.794
166.801
166.808
166.815
166.822
166.829
166.836
166.842
166.849
166.856
166.862
166.869
166.876
166.882
166.889
166.895
166.902
166.908
166.915
166.921
166.928
166.934
166.94
166.947
166.953
166.96
166.966
166.972
166.979
166.985
166.991
166.998
167.004
167.01
167.016
167.023
167.029
167.035
167.042
167.048
167.054
167.06
167.067
167.073
167.079
167.085
167.092
167.098
167.104
167.11
167.116
167.123
167.129
167.135
167.141
167.147
167.153
167.158
167.164
167.17
167.177
167.186
167.195
167.201
167.204
167.205
167.206
167.21
167.218
167.227
167.236
167.242
167.244
167.244
167.24
167.235
167.232
167.233
167.237
167.244
167.259
167.299
167.331
167.482
170.601
166.756
166.766
166.772
166.779
166.786
166.793
166.8
166.807
166.814
166.821
166.828
166.835
166.841
166.848
166.855
166.861
166.868
166.874
166.881
166.888
166.894
166.901
166.907
166.913
166.92
166.926
166.933
166.939
166.945
166.952
166.958
166.965
166.971
166.977
166.984
166.99
166.996
167.003
167.009
167.015
167.022
167.028
167.034
167.041
167.047
167.053
167.059
167.066
167.072
167.078
167.084
167.09
167.097
167.103
167.109
167.115
167.121
167.127
167.133
167.14
167.146
167.151
167.157
167.162
167.168
167.176
167.184
167.193
167.199
167.202
167.203
167.204
167.209
167.217
167.226
167.234
167.24
167.243
167.242
167.239
167.235
167.232
167.232
167.235
167.233
167.234
167.294
167.481
167.843
170.277
166.755
166.765
166.772
166.779
166.786
166.793
166.8
166.806
166.813
166.82
166.827
166.834
166.841
166.848
166.855
166.862
166.869
166.876
166.883
166.89
166.897
166.903
166.91
166.917
166.924
166.93
166.937
166.944
166.951
166.957
166.964
166.971
166.978
166.985
166.992
166.998
167.005
167.012
167.019
167.026
167.033
167.04
167.047
167.054
167.061
167.068
167.075
167.082
167.089
167.096
167.103
167.109
167.116
167.123
167.13
167.137
167.143
167.15
167.157
167.164
167.17
167.177
167.183
167.189
167.195
167.204
167.213
167.222
167.228
167.232
167.233
167.235
167.24
167.248
167.258
167.267
167.273
167.276
167.275
167.272
167.268
167.265
167.267
167.27
167.259
167.223
167.262
167.644
168.54
171.035
166.755
166.765
166.771
166.778
166.785
166.792
166.799
166.806
166.813
166.82
166.828
166.836
166.844
166.852
166.86
166.868
166.876
166.884
166.892
166.9
166.907
166.915
166.922
166.93
166.937
166.944
166.951
166.959
166.966
166.973
166.98
166.988
166.995
167.002
167.009
167.017
167.024
167.032
167.039
167.047
167.054
167.062
167.07
167.077
167.085
167.093
167.101
167.109
167.116
167.124
167.132
167.14
167.148
167.156
167.164
167.172
167.18
167.188
167.196
167.204
167.212
167.219
167.227
167.234
167.242
167.252
167.262
167.273
167.281
167.286
167.289
167.292
167.298
167.307
167.318
167.328
167.335
167.339
167.339
167.337
167.332
167.329
167.331
167.336
167.322
167.248
167.193
167.662
169.372
172.983
166.755
166.765
166.771
166.778
166.785
166.792
166.798
166.805
166.812
166.819
166.827
166.835
166.843
166.851
166.859
166.867
166.875
166.882
166.89
166.898
166.906
166.913
166.92
166.928
166.935
166.942
166.949
166.957
166.964
166.971
166.978
166.985
166.992
166.999
167.006
167.013
167.021
167.028
167.035
167.043
167.05
167.058
167.065
167.073
167.081
167.088
167.096
167.104
167.112
167.12
167.129
167.137
167.145
167.154
167.162
167.171
167.18
167.189
167.198
167.207
167.216
167.225
167.233
167.242
167.252
167.263
167.275
167.288
167.298
167.305
167.309
167.314
167.323
167.334
167.347
167.359
167.368
167.373
167.376
167.376
167.374
167.372
167.376
167.384
167.38
167.303
167.146
167.414
169.567
175.312
166.754
166.764
166.771
166.778
166.784
166.791
166.798
166.804
166.811
166.818
166.826
166.834
166.842
166.85
166.858
166.865
166.873
166.881
166.889
166.896
166.904
166.911
166.918
166.926
166.933
166.94
166.947
166.954
166.961
166.967
166.974
166.981
166.988
166.995
167.002
167.009
167.016
167.023
167.03
167.037
167.044
167.051
167.058
167.065
167.072
167.079
167.087
167.094
167.101
167.109
167.116
167.123
167.131
167.138
167.146
167.153
167.161
167.168
167.176
167.184
167.192
167.199
167.207
167.214
167.222
167.232
167.243
167.254
167.263
167.269
167.273
167.277
167.285
167.296
167.309
167.321
167.33
167.336
167.34
167.341
167.341
167.342
167.346
167.354
167.36
167.322
167.179
167.145
168.708
175.797
166.754
166.764
166.77
166.777
166.784
166.79
166.797
166.804
166.81
166.817
166.825
166.833
166.841
166.849
166.856
166.864
166.872
166.88
166.887
166.895
166.902
166.909
166.917
166.924
166.931
166.938
166.945
166.951
166.958
166.965
166.972
166.978
166.985
166.992
166.999
167.006
167.013
167.019
167.026
167.033
167.04
167.047
167.054
167.061
167.068
167.076
167.083
167.09
167.097
167.104
167.111
167.118
167.126
167.133
167.14
167.147
167.154
167.162
167.169
167.176
167.183
167.19
167.197
167.203
167.21
167.219
167.229
167.238
167.246
167.25
167.252
167.254
167.26
167.268
167.279
167.287
167.293
167.296
167.296
167.294
167.291
167.288
167.289
167.291
167.291
167.274
167.217
167.196
168.048
173.466
166.754
166.764
166.77
166.777
166.783
166.79
166.797
166.803
166.81
166.816
166.824
166.832
166.84
166.847
166.855
166.863
166.871
166.878
166.886
166.893
166.901
166.908
166.915
166.922
166.929
166.936
166.943
166.949
166.956
166.963
166.969
166.976
166.983
166.99
166.996
167.003
167.01
167.017
167.024
167.031
167.038
167.045
167.052
167.059
167.066
167.073
167.08
167.087
167.095
167.102
167.109
167.116
167.124
167.131
167.138
167.146
167.153
167.16
167.168
167.175
167.183
167.19
167.197
167.204
167.211
167.22
167.23
167.24
167.248
167.253
167.255
167.258
167.264
167.273
167.284
167.293
167.3
167.303
167.303
167.301
167.297
167.295
167.296
167.298
167.293
167.263
167.202
167.28
168.349
173.187
166.754
166.763
166.769
166.776
166.783
166.789
166.796
166.802
166.809
166.816
166.823
166.831
166.839
166.846
166.854
166.862
166.869
166.877
166.884
166.892
166.899
166.906
166.913
166.92
166.927
166.934
166.941
166.947
166.954
166.961
166.967
166.974
166.981
166.987
166.994
167.001
167.008
167.015
167.021
167.028
167.035
167.042
167.049
167.057
167.064
167.071
167.078
167.085
167.093
167.1
167.107
167.115
167.122
167.129
167.137
167.144
167.152
167.16
167.168
167.175
167.183
167.19
167.198
167.205
167.213
167.223
167.234
167.244
167.253
167.258
167.262
167.266
167.273
167.284
167.296
167.306
167.314
167.319
167.321
167.321
167.32
167.32
167.324
167.329
167.327
167.283
167.172
167.228
168.67
174.821
166.753
166.763
166.769
166.776
166.782
166.789
166.795
166.802
166.808
166.815
166.823
166.83
166.838
166.846
166.853
166.861
166.868
166.876
166.883
166.89
166.898
166.905
166.912
166.919
166.925
166.932
166.939
166.946
166.952
166.959
166.965
166.972
166.979
166.985
166.992
166.999
167.005
167.012
167.019
167.026
167.033
167.04
167.047
167.054
167.061
167.068
167.075
167.082
167.089
167.097
167.104
167.111
167.119
167.126
167.134
167.141
167.149
167.157
167.165
167.173
167.18
167.188
167.195
167.203
167.211
167.221
167.232
167.243
167.252
167.258
167.262
167.266
167.273
167.285
167.297
167.308
167.316
167.322
167.324
167.325
167.325
167.326
167.33
167.338
167.339
167.294
167.147
167.12
168.636
175.501
166.753
166.763
166.769
166.776
166.782
166.789
166.795
166.801
166.808
166.815
166.822
166.83
166.837
166.845
166.852
166.86
166.867
166.875
166.882
166.889
166.896
166.903
166.91
166.917
166.924
166.93
166.937
166.944
166.95
166.957
166.963
166.969
166.976
166.982
166.989
166.995
167.002
167.008
167.015
167.021
167.027
167.034
167.041
167.048
167.054
167.061
167.068
167.075
167.082
167.089
167.096
167.103
167.11
167.118
167.125
167.132
167.14
167.147
167.155
167.162
167.17
167.177
167.184
167.191
167.199
167.208
167.218
167.228
167.236
167.241
167.244
167.247
167.254
167.263
167.274
167.284
167.291
167.294
167.295
167.293
167.291
167.29
167.292
167.295
167.296
167.266
167.153
167.085
168.131
173.7
166.753
166.763
166.769
166.775
166.782
166.788
166.795
166.801
166.807
166.814
166.821
166.829
166.836
166.844
166.851
166.859
166.866
166.873
166.881
166.888
166.895
166.901
166.908
166.915
166.921
166.927
166.934
166.94
166.946
166.952
166.958
166.964
166.97
166.976
166.982
166.988
166.994
167
167.006
167.012
167.018
167.024
167.031
167.037
167.044
167.05
167.057
167.063
167.07
167.077
167.084
167.09
167.097
167.104
167.111
167.117
167.124
167.131
167.138
167.145
167.151
167.158
167.164
167.17
167.177
167.185
167.194
167.203
167.21
167.213
167.215
167.216
167.221
167.23
167.239
167.247
167.252
167.254
167.253
167.249
167.245
167.242
167.241
167.242
167.241
167.229
167.182
167.123
167.607
171.668
166.753
166.763
166.768
166.775
166.782
166.788
166.794
166.801
166.807
166.813
166.821
166.828
166.835
166.842
166.85
166.857
166.864
166.87
166.877
166.884
166.89
166.896
166.902
166.908
166.914
166.92
166.926
166.932
166.937
166.943
166.948
166.954
166.96
166.966
166.971
166.977
166.982
166.988
166.993
166.999
167.006
167.012
167.018
167.024
167.03
167.037
167.043
167.05
167.056
167.063
167.069
167.075
167.082
167.088
167.094
167.101
167.107
167.113
167.119
167.125
167.131
167.137
167.142
167.147
167.153
167.161
167.169
167.177
167.183
167.186
167.187
167.188
167.192
167.2
167.208
167.216
167.22
167.221
167.22
167.216
167.211
167.208
167.207
167.206
167.204
167.201
167.196
167.18
167.413
170.414
166.753
166.762
166.768
166.775
166.781
166.788
166.794
166.8
166.807
166.813
166.819
166.825
166.831
166.837
166.843
166.849
166.855
166.861
166.867
166.873
166.879
166.885
166.891
166.896
166.902
166.908
166.913
166.919
166.925
166.93
166.936
166.942
166.948
166.954
166.959
166.964
166.969
166.975
166.981
166.987
166.994
167
167.006
167.012
167.018
167.024
167.03
167.036
167.042
167.048
167.054
167.06
167.066
167.072
167.078
167.083
167.089
167.095
167.101
167.107
167.113
167.119
167.124
167.129
167.135
167.142
167.151
167.159
167.165
167.168
167.169
167.17
167.174
167.182
167.191
167.198
167.203
167.204
167.203
167.199
167.196
167.194
167.193
167.192
167.189
167.188
167.201
167.222
167.421
169.938
166.753
166.762
166.768
166.775
166.781
166.787
166.794
166.8
166.806
166.812
166.819
166.825
166.831
166.837
166.843
166.849
166.855
166.861
166.866
166.872
166.878
166.884
166.89
166.895
166.901
166.907
166.912
166.918
166.923
166.929
166.935
166.941
166.947
166.952
166.957
166.962
166.968
166.974
166.98
166.986
166.993
166.999
167.005
167.011
167.017
167.023
167.029
167.035
167.041
167.048
167.054
167.06
167.066
167.072
167.078
167.084
167.09
167.096
167.102
167.109
167.114
167.12
167.126
167.131
167.137
167.145
167.153
167.162
167.168
167.171
167.172
167.173
167.178
167.186
167.195
167.202
167.207
167.209
167.208
167.205
167.201
167.199
167.198
167.197
167.192
167.19
167.206
167.244
167.489
170.138
166.753
166.762
166.768
166.775
166.781
166.787
166.793
166.8
166.806
166.812
166.818
166.824
166.83
166.836
166.842
166.848
166.854
166.86
166.866
166.872
166.877
166.883
166.889
166.895
166.9
166.906
166.912
166.917
166.923
166.929
166.935
166.94
166.945
166.95
166.955
166.962
166.971
166.978
166.984
166.988
166.992
166.998
167.005
167.012
167.018
167.024
167.031
167.037
167.043
167.05
167.056
167.062
167.069
167.075
167.082
167.088
167.094
167.101
167.107
167.114
167.12
167.126
167.132
167.138
167.145
167.152
167.161
167.17
167.177
167.18
167.182
167.183
167.188
167.196
167.206
167.214
167.219
167.221
167.22
167.218
167.214
167.212
167.212
167.21
167.204
167.199
167.211
167.249
167.551
170.759
166.753
166.762
166.768
166.774
166.781
166.787
166.793
166.8
166.806
166.812
166.818
166.824
166.83
166.836
166.842
166.848
166.854
166.86
166.865
166.871
166.877
166.883
166.888
166.894
166.9
166.905
166.911
166.917
166.922
166.928
166.934
166.939
166.943
166.947
166.953
166.965
166.978
166.987
166.99
166.99
166.988
166.993
167.004
167.013
167.018
167.025
167.031
167.038
167.044
167.051
167.057
167.064
167.07
167.077
167.084
167.09
167.097
167.103
167.11
167.116
167.123
167.129
167.135
167.141
167.147
167.155
167.165
167.173
167.18
167.184
167.185
167.187
167.192
167.2
167.21
167.218
167.224
167.226
167.225
167.223
167.22
167.218
167.217
167.215
167.208
167.199
167.206
167.255
167.637
171.033
166.753
166.762
166.768
166.774
166.781
166.787
166.793
166.799
166.805
166.812
166.818
166.824
166.83
166.836
166.842
166.847
166.853
166.859
166.865
166.871
166.877
166.882
166.888
166.894
166.899
166.905
166.911
166.916
166.922
166.927
166.933
166.939
166.946
166.955
166.966
166.981
166.994
166.997
166.994
166.994
166.989
166.991
167.004
167.012
167.018
167.025
167.031
167.038
167.044
167.051
167.057
167.063
167.07
167.076
167.083
167.089
167.095
167.102
167.108
167.114
167.121
167.127
167.132
167.138
167.145
167.152
167.161
167.17
167.177
167.18
167.181
167.183
167.188
167.197
167.206
167.214
167.22
167.222
167.222
167.219
167.216
167.214
167.213
167.211
167.203
167.191
167.196
167.263
167.703
170.887
166.753
166.762
166.768
166.774
166.781
166.787
166.793
166.799
166.805
166.811
166.817
166.824
166.829
166.835
166.841
166.847
166.853
166.859
166.865
166.87
166.876
166.882
166.888
166.893
166.899
166.905
166.91
166.916
166.921
166.926
166.93
166.938
166.955
166.983
167.009
167.022
167.027
167.03
167.032
167.04
167.038
167.021
167.007
167.005
167.015
167.022
167.027
167.034
167.04
167.046
167.052
167.058
167.064
167.071
167.077
167.083
167.089
167.095
167.102
167.108
167.114
167.12
167.126
167.131
167.138
167.146
167.155
167.163
167.17
167.173
167.175
167.177
167.182
167.19
167.199
167.207
167.213
167.215
167.214
167.212
167.208
167.206
167.205
167.202
167.194
167.182
167.187
167.269
167.727
170.54
166.753
166.762
166.768
166.774
166.78
166.787
166.793
166.799
166.805
166.811
166.817
166.823
166.829
166.835
166.841
166.847
166.853
166.859
166.864
166.87
166.876
166.882
166.887
166.893
166.899
166.904
166.91
166.916
166.921
166.926
166.929
166.936
166.957
166.999
167.036
167.045
167.056
167.125
167.2
167.215
167.217
167.131
167.011
166.993
167.005
167.015
167.019
167.026
167.032
167.038
167.044
167.051
167.057
167.063
167.069
167.076
167.082
167.089
167.095
167.101
167.108
167.114
167.119
167.125
167.132
167.14
167.149
167.158
167.164
167.168
167.169
167.171
167.176
167.184
167.194
167.202
167.207
167.209
167.208
167.205
167.201
167.199
167.197
167.195
167.187
167.177
167.184
167.273
167.716
170.206
166.753
166.762
166.768
166.774
166.78
166.787
166.793
166.799
166.805
166.811
166.817
166.823
166.829
166.835
166.841
166.847
166.853
166.858
166.864
166.87
166.876
166.881
166.887
166.893
166.899
166.904
166.91
166.915
166.921
166.931
166.94
166.938
166.914
166.877
166.843
166.835
166.923
167.199
167.474
167.464
167.459
167.267
166.982
166.998
166.993
167.004
167.011
167.017
167.024
167.031
167.038
167.044
167.051
167.057
167.064
167.07
167.077
167.084
167.09
167.097
167.103
167.109
167.115
167.121
167.128
167.136
167.145
167.154
167.161
167.164
167.166
167.168
167.173
167.181
167.19
167.198
167.203
167.205
167.204
167.201
167.197
167.193
167.191
167.189
167.183
167.175
167.189
167.284
167.7
169.933
166.753
166.762
166.768
166.774
166.78
166.786
166.793
166.799
166.805
166.811
166.817
166.823
166.829
166.835
166.841
166.847
166.852
166.858
166.864
166.87
166.875
166.881
166.887
166.893
166.899
166.904
166.909
166.913
166.921
166.94
166.969
166.961
166.827
166.535
166.22
166.113
166.359
166.932
167.413
167.308
167.282
167.081
166.833
167.042
166.995
166.986
167.006
167.01
167.018
167.025
167.032
167.04
167.047
167.053
167.06
167.067
167.074
167.081
167.088
167.095
167.101
167.108
167.114
167.12
167.127
167.135
167.144
167.153
167.16
167.164
167.165
167.167
167.172
167.181
167.19
167.198
167.203
167.204
167.203
167.199
167.195
167.191
167.188
167.186
167.181
167.179
167.203
167.31
167.71
169.731
166.753
166.762
166.768
166.774
166.78
166.786
166.793
166.799
166.805
166.811
166.817
166.823
166.829
166.835
166.841
166.847
166.852
166.858
166.864
166.87
166.875
166.881
166.887
166.893
166.898
166.903
166.908
166.913
166.919
166.939
166.983
167.005
166.84
166.328
165.628
165.271
165.614
166.378
166.855
166.624
166.52
166.377
166.46
167.073
167.035
166.966
167.005
167.007
167.015
167.023
167.031
167.038
167.045
167.053
167.06
167.067
167.074
167.081
167.089
167.096
167.103
167.11
167.116
167.123
167.13
167.138
167.148
167.157
167.164
167.168
167.17
167.172
167.177
167.185
167.195
167.203
167.207
167.209
167.207
167.203
167.199
167.194
167.191
167.188
167.185
167.189
167.227
167.357
167.768
169.653
166.753
166.762
166.768
166.774
166.78
166.786
166.792
166.799
166.805
166.811
166.817
166.823
166.829
166.835
166.841
166.846
166.852
166.858
166.864
166.87
166.876
166.882
166.887
166.892
166.896
166.901
166.909
166.917
166.917
166.904
166.904
166.994
167.174
167.195
166.79
166.286
166.441
167.175
167.564
167.331
166.926
166.233
166.014
166.898
167.101
166.973
167.007
167.013
167.02
167.028
167.035
167.043
167.05
167.057
167.065
167.072
167.08
167.087
167.095
167.102
167.11
167.117
167.124
167.131
167.138
167.147
167.157
167.167
167.174
167.178
167.18
167.183
167.188
167.197
167.206
167.214
167.219
167.22
167.219
167.215
167.21
167.205
167.2
167.196
167.194
167.203
167.257
167.423
167.89
169.765
166.753
166.762
166.768
166.774
166.78
166.786
166.792
166.799
166.805
166.811
166.817
166.823
166.829
166.835
166.84
166.846
166.852
166.858
166.864
166.87
166.876
166.882
166.887
166.891
166.896
166.902
166.912
166.928
166.924
166.844
166.695
166.788
167.727
169.642
171.408
171.779
171.518
172.03
172.599
172.569
171.487
168.867
166.412
166.32
167.062
167.062
167.007
167.033
167.035
167.042
167.049
167.056
167.062
167.069
167.077
167.084
167.091
167.099
167.107
167.115
167.123
167.13
167.137
167.145
167.153
167.162
167.172
167.182
167.19
167.195
167.197
167.2
167.205
167.214
167.224
167.232
167.237
167.239
167.237
167.234
167.229
167.223
167.218
167.212
167.209
167.221
167.286
167.489
168.063
170.149
166.753
166.762
166.768
166.774
166.78
166.786
166.792
166.799
166.805
166.811
166.817
166.823
166.829
166.835
166.84
166.846
166.852
166.858
166.864
166.87
166.876
166.881
166.887
166.895
166.903
166.911
166.922
166.941
166.943
166.824
166.5
166.39
167.851
172.158
177.951
181.248
180.958
181.215
182.846
183.338
181.947
176.668
169.284
165.714
166.677
167.258
167.008
167.067
167.062
167.068
167.072
167.077
167.083
167.089
167.096
167.102
167.11
167.117
167.125
167.133
167.141
167.148
167.156
167.163
167.172
167.181
167.192
167.202
167.21
167.214
167.217
167.22
167.226
167.235
167.245
167.254
167.259
167.26
167.259
167.255
167.25
167.245
167.239
167.232
167.227
167.237
167.304
167.525
168.206
170.751
166.753
166.762
166.768
166.774
166.78
166.786
166.792
166.799
166.805
166.811
166.817
166.823
166.829
166.835
166.84
166.846
166.852
166.858
166.864
166.87
166.875
166.88
166.89
166.904
166.919
166.929
166.934
166.946
166.958
166.888
166.552
166.124
167.058
171.891
180.992
189.094
190.027
188.351
190.256
191.53
191.669
187.441
176.433
166.752
165.804
167.477
167.033
167.108
167.098
167.101
167.102
167.105
167.109
167.114
167.119
167.126
167.132
167.139
167.147
167.154
167.161
167.169
167.176
167.183
167.19
167.2
167.21
167.219
167.227
167.231
167.233
167.235
167.241
167.249
167.259
167.267
167.272
167.273
167.27
167.266
167.26
167.254
167.247
167.238
167.23
167.237
167.3
167.521
168.234
170.956
166.753
166.762
166.768
166.774
166.78
166.786
166.792
166.798
166.805
166.811
166.817
166.823
166.829
166.835
166.84
166.846
166.852
166.858
166.864
166.87
166.874
166.88
166.891
166.91
166.932
166.942
166.938
166.938
166.954
166.979
166.845
166.327
166.029
168.439
176.686
189.149
194.965
188.755
186.278
187.849
189.996
192.879
188.186
173.043
164.813
167.541
167.092
167.144
167.135
167.134
167.133
167.134
167.137
167.14
167.144
167.149
167.155
167.161
167.167
167.174
167.18
167.186
167.192
167.198
167.204
167.212
167.22
167.229
167.235
167.237
167.237
167.238
167.241
167.248
167.255
167.261
167.262
167.261
167.256
167.25
167.243
167.236
167.229
167.219
167.209
167.213
167.274
167.489
168.134
170.466
166.753
166.762
166.767
166.774
166.78
166.786
166.792
166.798
166.805
166.811
166.817
166.823
166.829
166.834
166.84
166.846
166.852
166.858
166.864
166.87
166.876
166.881
166.886
166.897
166.92
166.943
166.946
166.946
166.964
167.022
167.064
166.774
165.904
165.453
168.726
180.4
199.517
191.761
173.277
173.813
174.999
182.711
201.463
190.445
164.934
167.362
167.161
167.166
167.161
167.158
167.157
167.157
167.158
167.16
167.163
167.167
167.171
167.176
167.181
167.185
167.19
167.194
167.198
167.202
167.206
167.212
167.218
167.224
167.227
167.227
167.225
167.222
167.223
167.226
167.232
167.236
167.237
167.235
167.231
167.225
167.219
167.213
167.207
167.199
167.188
167.189
167.244
167.433
167.961
169.973
166.752
166.762
166.767
166.774
166.78
166.786
166.792
166.798
166.804
166.81
166.816
166.822
166.828
166.834
166.84
166.846
166.852
166.858
166.864
166.871
166.88
166.885
166.876
166.856
166.87
166.951
167.025
167.036
167.069
167.073
167.057
166.93
166.366
165.586
165.393
166.827
167.51
167.111
167.168
167.154
167.153
167.153
167.154
167.157
167.16
167.163
167.166
167.169
167.172
167.175
167.178
167.181
167.184
167.186
167.188
167.189
167.191
167.194
167.197
167.2
167.202
167.2
167.197
167.194
167.195
167.2
167.206
167.212
167.214
167.214
167.211
167.206
167.2
167.195
167.191
167.184
167.173
167.172
167.214
167.365
167.796
169.626
166.752
166.762
166.767
166.774
166.78
166.786
166.792
166.798
166.804
166.81
166.816
166.822
166.828
166.834
166.84
166.846
166.852
166.858
166.863
166.871
166.884
166.892
166.869
166.806
166.797
166.967
167.174
167.176
167.227
167.187
167.03
166.847
166.316
165.923
166.615
168.271
167.111
167.147
167.126
167.126
167.125
167.127
167.13
167.133
167.137
167.141
167.144
167.147
167.149
167.15
167.151
167.153
167.153
167.154
167.155
167.156
167.158
167.162
167.167
167.172
167.175
167.175
167.174
167.173
167.175
167.181
167.189
167.195
167.198
167.199
167.196
167.192
167.187
167.183
167.179
167.174
167.164
167.159
167.188
167.305
167.672
169.397
166.752
166.762
166.767
166.774
166.78
166.786
166.792
166.798
166.804
166.81
166.816
166.822
166.828
166.834
166.84
166.846
166.852
166.858
166.863
166.871
166.884
166.897
166.876
166.795
166.743
166.903
167.134
167.055
167.101
167.157
167.077
166.862
166.25
165.597
166.073
168.005
167.139
167.11
167.105
167.1
167.098
167.098
167.099
167.101
167.104
167.106
167.109
167.112
167.114
167.116
167.119
167.121
167.124
167.126
167.129
167.132
167.135
167.14
167.147
167.153
167.157
167.159
167.158
167.158
167.162
167.168
167.177
167.183
167.187
167.189
167.187
167.183
167.178
167.175
167.172
167.167
167.158
167.15
167.168
167.262
167.591
169.261
166.752
166.762
166.767
166.774
166.78
166.786
166.792
166.798
166.804
166.81
166.816
166.822
166.828
166.834
166.84
166.846
166.852
166.858
166.863
166.87
166.88
166.894
166.89
166.837
166.767
166.793
166.837
166.646
166.653
166.893
167.099
166.878
166.345
165.705
166.039
167.893
167.116
167.094
167.085
167.079
167.076
167.075
167.075
167.077
167.079
167.082
167.084
167.087
167.09
167.093
167.097
167.101
167.105
167.108
167.112
167.115
167.12
167.126
167.133
167.141
167.146
167.148
167.148
167.149
167.153
167.16
167.169
167.176
167.181
167.182
167.181
167.178
167.173
167.17
167.168
167.164
167.154
167.144
167.156
167.237
167.55
169.205
166.752
166.762
166.767
166.773
166.78
166.786
166.792
166.798
166.804
166.81
166.816
166.822
166.828
166.834
166.84
166.846
166.852
166.858
166.864
166.87
166.877
166.885
166.892
166.882
166.861
166.872
166.863
166.692
166.657
166.831
167.04
166.914
166.53
166.005
166.173
167.749
167.102
167.078
167.068
167.062
167.058
167.057
167.057
167.059
167.062
167.065
167.068
167.071
167.074
167.078
167.082
167.087
167.092
167.097
167.101
167.106
167.111
167.118
167.126
167.133
167.139
167.142
167.142
167.144
167.148
167.156
167.165
167.173
167.177
167.179
167.178
167.175
167.172
167.169
167.167
167.163
167.152
167.14
167.148
167.228
167.544
169.218
166.752
166.762
166.767
166.774
166.78
166.786
166.792
166.798
166.804
166.81
166.816
166.822
166.828
166.834
166.84
166.846
166.852
166.858
166.864
166.87
166.876
166.881
166.888
166.898
166.915
166.944
166.957
166.897
166.86
166.885
166.955
166.939
166.762
166.461
166.519
167.681
167.088
167.065
167.055
167.048
167.045
167.044