/*--------------------------------*- C++ -*----------------------------------*\
| =========                 |                                                 |
| \\      /  F ield         | OpenFOAM: The Open Source CFD Toolbox           |
|  \\    /   O peration     | Version:  v2012                                 |
|   \\  /    A nd           | Website:  www.openfoam.com                      |
|    \\/     M anipulation  |                                                 |
\*---------------------------------------------------------------------------*/
FoamFile
{
    version     2.0;
    format      ascii;
    class       volScalarField;
    location    "400/air";
    object      ILambda_6_0;
}
// * * * * * * * * * * * * * * * * * * * * * * * * * * * * * * * * * * * * * //

dimensions      [1 0 -3 0 0 0 0];


internalField   nonuniform List<scalar> 
287104
(
217.011
219.224
220.827
222.263
223.508
224.598
225.56
226.412
227.172
227.855
228.475
229.041
229.56
230.039
230.481
230.891
231.274
231.632
231.969
232.286
232.585
232.868
233.137
233.393
233.638
233.872
234.096
234.312
234.519
234.719
234.913
235.1
235.281
235.457
235.628
235.794
235.956
236.115
236.271
236.422
236.57
236.715
236.858
237
237.138
237.274
237.409
237.541
237.672
237.8
237.927
238.052
238.176
238.298
238.418
238.536
238.653
238.768
238.882
238.994
239.106
239.216
239.327
239.436
239.545
239.653
239.76
239.866
239.972
240.076
240.178
240.28
240.381
240.48
240.577
240.67
240.755
240.833
240.906
240.984
241.079
241.195
241.326
241.46
241.587
241.713
241.849
242.017
242.373
243.74
218.027
220.224
221.805
223.218
224.439
225.504
226.44
227.267
228.001
228.659
229.254
229.795
230.289
230.743
231.161
231.547
231.906
232.24
232.553
232.846
233.122
233.383
233.629
233.863
234.085
234.297
234.5
234.694
234.879
235.058
235.23
235.396
235.556
235.711
235.861
236.005
236.146
236.286
236.422
236.554
236.682
236.806
236.928
237.051
237.171
237.288
237.403
237.517
237.629
237.739
237.847
237.955
238.06
238.165
238.267
238.368
238.468
238.566
238.663
238.759
238.854
238.948
239.042
239.135
239.228
239.32
239.412
239.502
239.592
239.681
239.769
239.856
239.941
240.026
240.109
240.188
240.26
240.325
240.385
240.451
240.532
240.633
240.748
240.867
240.981
241.094
241.216
241.38
241.784
243.36
216.794
218.94
220.484
221.864
223.055
224.095
225.008
225.815
226.531
227.172
227.75
228.277
228.758
229.199
229.605
229.98
230.328
230.652
230.955
231.24
231.507
231.759
231.997
232.223
232.437
232.641
232.836
233.023
233.201
233.373
233.538
233.697
233.85
233.998
234.141
234.278
234.413
234.547
234.677
234.801
234.923
235.04
235.155
235.273
235.387
235.497
235.606
235.713
235.818
235.922
236.025
236.126
236.225
236.323
236.42
236.515
236.609
236.701
236.792
236.881
236.97
237.059
237.146
237.233
237.32
237.406
237.491
237.575
237.658
237.741
237.822
237.902
237.982
238.06
238.136
238.208
238.274
238.332
238.387
238.447
238.521
238.615
238.723
238.834
238.941
239.048
239.165
239.329
239.745
241.302
215.999
218.11
219.63
220.988
222.161
223.184
224.082
224.876
225.58
226.211
226.78
227.298
227.771
228.205
228.603
228.972
229.314
229.632
229.93
230.208
230.471
230.718
230.951
231.172
231.383
231.583
231.774
231.956
232.131
232.298
232.459
232.614
232.764
232.908
233.047
233.18
233.31
233.441
233.567
233.688
233.806
233.919
234.03
234.145
234.256
234.362
234.468
234.571
234.673
234.774
234.873
234.97
235.067
235.162
235.255
235.348
235.438
235.528
235.616
235.703
235.789
235.874
235.959
236.044
236.127
236.21
236.293
236.374
236.455
236.535
236.613
236.691
236.768
236.844
236.918
236.988
237.053
237.11
237.164
237.223
237.296
237.389
237.497
237.607
237.715
237.823
237.942
238.11
238.53
240.07
215.226
217.303
218.8
220.137
221.291
222.298
223.182
223.963
224.657
225.277
225.838
226.347
226.813
227.239
227.631
227.994
228.33
228.643
228.935
229.21
229.467
229.71
229.939
230.157
230.363
230.56
230.747
230.926
231.098
231.262
231.419
231.571
231.717
231.858
231.994
232.123
232.25
232.377
232.5
232.618
232.732
232.842
232.95
233.06
233.168
233.272
233.373
233.474
233.572
233.67
233.765
233.86
233.953
234.045
234.135
234.224
234.312
234.399
234.484
234.568
234.651
234.734
234.815
234.897
234.978
235.058
235.137
235.216
235.294
235.37
235.446
235.522
235.596
235.669
235.741
235.809
235.872
235.928
235.981
236.039
236.112
236.204
236.311
236.421
236.528
236.637
236.757
236.924
237.337
238.853
214.464
216.508
217.982
219.298
220.435
221.426
222.297
223.066
223.748
224.359
224.911
225.412
225.87
226.29
226.676
227.033
227.363
227.671
227.959
228.229
228.483
228.722
228.947
229.161
229.364
229.557
229.742
229.918
230.086
230.247
230.401
230.55
230.693
230.83
230.963
231.09
231.213
231.335
231.454
231.568
231.679
231.786
231.89
231.996
232.099
232.199
232.296
232.392
232.487
232.579
232.671
232.76
232.849
232.936
233.022
233.106
233.189
233.271
233.351
233.43
233.509
233.586
233.662
233.738
233.813
233.888
233.961
234.034
234.105
234.176
234.245
234.314
234.381
234.448
234.513
234.574
234.629
234.678
234.724
234.775
234.84
234.923
235.019
235.118
235.214
235.312
235.421
235.57
235.943
237.37
213.715
215.726
217.177
218.474
219.593
220.569
221.427
222.184
222.857
223.458
224
224.493
224.943
225.356
225.736
226.088
226.414
226.717
227.001
227.267
227.517
227.753
227.975
228.185
228.385
228.575
228.756
228.929
229.094
229.252
229.403
229.548
229.687
229.82
229.95
230.074
230.193
230.308
230.42
230.528
230.634
230.737
230.837
230.933
231.027
231.119
231.208
231.296
231.381
231.464
231.545
231.625
231.703
231.78
231.855
231.929
232.001
232.072
232.141
232.208
232.275
232.34
232.404
232.467
232.53
232.591
232.651
232.71
232.767
232.823
232.877
232.93
232.982
233.031
233.078
233.121
233.158
233.188
233.214
233.244
233.287
233.346
233.417
233.491
233.562
233.636
233.721
233.839
234.137
235.362
212.978
214.956
216.386
217.662
218.764
219.726
220.571
221.317
221.978
222.568
223.095
223.576
224.017
224.423
224.797
225.144
225.467
225.767
226.049
226.313
226.561
226.794
227.015
227.223
227.42
227.608
227.786
227.955
228.118
228.272
228.42
228.56
228.693
228.819
228.942
229.062
229.174
229.273
229.37
229.467
229.561
229.655
229.744
229.821
229.898
229.976
230.051
230.123
230.193
230.26
230.325
230.388
230.448
230.507
230.563
230.618
230.67
230.719
230.767
230.812
230.855
230.896
230.935
230.973
231.01
231.044
231.077
231.108
231.137
231.164
231.19
231.213
231.235
231.255
231.273
231.287
231.294
231.296
231.294
231.298
231.314
231.348
231.393
231.442
231.49
231.545
231.613
231.705
231.924
232.853
212.253
214.199
215.607
216.864
217.949
218.896
219.729
220.463
221.112
221.68
222.162
222.609
223.029
223.423
223.793
224.139
224.465
224.772
225.061
225.334
225.591
225.833
226.061
226.276
226.478
226.666
226.842
227.008
227.165
227.313
227.451
227.581
227.702
227.815
227.926
228.037
228.136
228.213
228.286
228.366
228.445
228.529
228.606
228.657
228.71
228.77
228.826
228.878
228.927
228.973
229.017
229.059
229.099
229.138
229.174
229.209
229.241
229.271
229.299
229.324
229.349
229.371
229.392
229.412
229.43
229.448
229.464
229.478
229.492
229.504
229.514
229.524
229.532
229.539
229.545
229.547
229.544
229.536
229.526
229.525
229.547
229.585
229.632
229.68
229.728
229.785
229.858
229.951
230.127
230.832
211.54
213.453
214.84
216.078
217.147
218.08
218.9
219.621
220.248
220.748
220.786
220.919
221.163
221.485
221.855
222.252
222.657
223.059
223.451
223.825
224.18
224.512
224.822
225.107
225.369
225.607
225.823
226.022
226.205
226.375
226.534
226.683
226.816
226.937
227.054
227.176
227.284
227.356
227.423
227.506
227.589
227.685
227.773
227.817
227.863
227.925
227.98
228.03
228.076
228.118
228.157
228.195
228.23
228.262
228.29
228.315
228.337
228.355
228.37
228.383
228.393
228.4
228.405
228.407
228.408
228.406
228.402
228.397
228.389
228.379
228.368
228.354
228.34
228.324
228.306
228.285
228.26
228.23
228.2
228.194
228.306
228.428
228.532
228.616
228.687
228.761
228.853
228.97
229.167
229.845
210.839
212.72
214.085
215.304
216.358
217.277
218.084
218.792
219.386
219.602
211.061
209.734
210.084
210.955
211.979
213.013
213.997
214.904
215.725
216.455
217.096
217.65
218.122
218.516
218.842
219.105
219.316
219.483
219.618
219.728
219.822
219.904
219.976
220.039
220.104
220.183
220.254
220.281
220.309
220.366
220.428
220.513
220.597
220.625
220.661
220.725
220.781
220.834
220.882
220.926
220.966
221.001
221.03
221.052
221.066
221.073
221.072
221.063
221.047
221.023
220.99
220.949
220.901
220.844
220.78
220.708
220.629
220.543
220.45
220.351
220.247
220.137
220.023
219.905
219.783
219.657
219.527
219.391
219.238
219.109
222.088
224.264
225.771
226.8
227.495
227.977
228.339
228.655
229.039
229.938
210.148
211.998
213.343
214.543
215.581
216.486
217.281
217.976
218.55
218.705
209.901
208.503
208.845
209.732
210.783
211.848
212.865
213.805
214.658
215.418
216.086
216.663
217.153
217.562
217.896
218.163
218.372
218.533
218.655
218.75
218.827
218.893
218.952
219.009
219.08
219.18
219.279
219.323
219.372
219.471
219.583
219.734
219.894
219.979
220.078
220.224
220.366
220.511
220.658
220.809
220.964
221.12
221.276
221.431
221.584
221.734
221.88
222.023
222.16
222.291
222.414
222.529
222.634
222.727
222.807
222.873
222.924
222.958
222.974
222.973
222.952
222.912
222.854
222.777
222.682
222.569
222.439
222.291
222.125
222.029
224.4
226.127
227.325
228.143
228.694
229.073
229.368
229.68
230.185
231.393
209.47
211.288
212.613
213.795
214.816
215.708
216.492
217.176
217.738
217.881
209.236
207.854
208.183
209.052
210.084
211.132
212.134
213.062
213.903
214.654
215.314
215.882
216.362
216.761
217.083
217.337
217.532
217.675
217.777
217.849
217.9
217.94
217.974
218.007
218.056
218.143
218.228
218.239
218.25
218.324
218.411
218.545
218.693
218.74
218.798
218.918
219.032
219.149
219.271
219.396
219.525
219.655
219.784
219.912
220.04
220.169
220.299
220.431
220.564
220.698
220.835
220.975
221.116
221.261
221.408
221.559
221.712
221.869
222.028
222.189
222.352
222.516
222.68
222.843
223.004
223.158
223.304
223.439
223.562
223.762
226.006
227.596
228.684
229.432
229.952
230.33
230.647
231.027
231.718
233.36
208.802
210.589
211.894
213.058
214.064
214.943
215.714
216.388
216.941
217.08
208.572
207.208
207.53
208.384
209.4
210.433
211.42
212.334
213.164
213.905
214.554
215.114
215.587
215.977
216.293
216.543
216.734
216.874
216.971
217.034
217.074
217.103
217.126
217.15
217.192
217.28
217.369
217.362
217.349
217.414
217.491
217.624
217.779
217.804
217.838
217.947
218.048
218.153
218.263
218.374
218.483
218.589
218.685
218.776
218.861
218.944
219.023
219.1
219.173
219.243
219.309
219.372
219.433
219.49
219.544
219.596
219.646
219.694
219.74
219.786
219.83
219.876
219.922
219.969
220.019
220.071
220.123
220.173
220.216
220.279
222.502
224.038
225.085
225.838
226.408
226.882
227.292
227.759
228.483
230.004
208.145
209.901
211.187
212.333
213.324
214.189
214.949
215.613
216.158
216.294
207.923
206.58
206.897
207.737
208.736
209.753
210.724
211.625
212.443
213.172
213.812
214.363
214.828
215.212
215.522
215.768
215.959
216.101
216.199
216.26
216.293
216.312
216.327
216.344
216.384
216.478
216.576
216.559
216.53
216.593
216.669
216.808
216.98
216.996
217.017
217.13
217.236
217.35
217.468
217.587
217.699
217.805
217.904
218.002
218.099
218.195
218.288
218.377
218.461
218.538
218.611
218.679
218.744
218.805
218.863
218.918
218.968
219.014
219.055
219.091
219.122
219.147
219.165
219.177
219.181
219.176
219.16
219.13
219.078
219.034
221.167
222.591
223.505
224.102
224.506
224.807
225.083
225.433
226.013
227.268
207.498
209.224
210.49
211.619
212.595
213.447
214.196
214.85
215.386
215.521
207.283
205.963
206.274
207.101
208.086
209.086
210.043
210.931
211.736
212.454
213.085
213.627
214.084
214.46
214.764
215.006
215.196
215.343
215.447
215.511
215.543
215.554
215.559
215.568
215.606
215.706
215.817
215.794
215.753
215.817
215.894
216.043
216.234
216.249
216.264
216.386
216.506
216.638
216.775
216.905
217.024
217.133
217.238
217.345
217.455
217.565
217.673
217.778
217.879
217.979
218.076
218.172
218.267
218.36
218.453
218.545
218.636
218.727
218.817
218.907
218.997
219.085
219.173
219.26
219.344
219.426
219.504
219.579
219.648
219.773
221.838
223.247
224.182
224.818
225.252
225.568
225.855
226.216
226.833
228.275
206.862
208.557
209.805
210.916
211.877
212.716
213.454
214.098
214.627
214.76
206.653
205.354
205.662
206.477
207.447
208.433
209.376
210.25
211.043
211.751
212.371
212.904
213.353
213.721
214.016
214.252
214.441
214.592
214.706
214.78
214.815
214.821
214.817
214.817
214.85
214.955
215.077
215.054
215.003
215.068
215.148
215.305
215.515
215.532
215.545
215.683
215.825
215.982
216.139
216.28
216.402
216.513
216.624
216.743
216.868
216.993
217.116
217.237
217.355
217.472
217.59
217.706
217.824
217.942
218.061
218.181
218.303
218.426
218.552
218.68
218.81
218.943
219.078
219.215
219.353
219.493
219.633
219.773
219.916
220.144
222.257
223.725
224.711
225.384
225.863
226.241
226.598
227.034
227.776
229.527
206.236
207.901
209.131
210.225
211.171
211.998
212.724
213.358
213.88
214.014
206.04
204.765
205.071
205.874
206.829
207.8
208.727
209.586
210.365
211.059
211.667
212.188
212.625
212.982
213.265
213.49
213.67
213.82
213.94
214.024
214.066
214.07
214.053
214.036
214.054
214.151
214.276
214.246
214.18
214.238
214.315
214.471
214.693
214.712
214.727
214.883
215.05
215.231
215.399
215.538
215.65
215.75
215.857
215.973
216.094
216.214
216.329
216.439
216.545
216.649
216.751
216.852
216.95
217.048
217.144
217.239
217.333
217.426
217.517
217.607
217.695
217.781
217.864
217.943
218.019
218.089
218.151
218.206
218.255
218.373
220.461
221.908
222.868
223.511
223.954
224.285
224.578
224.928
225.55
226.996
205.622
207.257
208.468
209.546
210.477
211.291
212.006
212.632
213.148
213.289
205.453
204.209
204.517
205.311
206.252
207.205
208.114
208.951
209.705
210.37
210.946
211.431
211.83
212.145
212.386
212.568
212.708
212.824
212.923
212.996
213.029
213.016
212.971
212.918
212.896
212.961
213.065
213.014
212.922
212.964
213.03
213.182
213.418
213.453
213.488
213.682
213.894
214.112
214.299
214.441
214.546
214.641
214.742
214.849
214.954
215.049
215.13
215.2
215.26
215.313
215.359
215.399
215.435
215.466
215.494
215.518
215.54
215.558
215.573
215.585
215.594
215.598
215.599
215.595
215.585
215.569
215.545
215.511
215.465
215.435
217.568
219.083
220.121
220.84
221.349
221.727
222.038
222.361
222.872
224.002
205.018
206.624
207.818
208.878
209.796
210.597
211.301
211.919
212.438
212.623
205.06
203.888
204.199
204.97
205.868
206.76
207.587
208.323
208.957
209.487
209.918
210.257
210.514
210.698
210.823
210.903
210.959
211.009
211.064
211.116
211.142
211.124
211.066
210.99
210.938
210.975
211.064
211.002
210.895
210.925
210.983
211.128
211.375
211.437
211.511
211.764
212.043
212.322
212.558
212.739
212.885
213.023
213.163
213.297
213.411
213.495
213.544
213.562
213.554
213.53
213.495
213.452
213.405
213.357
213.307
213.257
213.208
213.158
213.108
213.057
213.006
212.954
212.9
212.844
212.785
212.722
212.653
212.574
212.477
212.394
214.881
216.674
217.913
218.77
219.369
219.797
220.123
220.412
220.782
221.644
204.424
206.001
207.177
208.222
209.125
209.913
210.607
211.218
211.75
212.171
212.146
212.365
212.691
213.042
213.39
213.726
214.044
214.342
214.619
214.876
215.112
215.328
215.526
215.705
215.864
216.007
216.145
216.295
216.467
216.654
216.825
216.943
216.998
217.009
217.029
217.148
217.334
217.326
217.235
217.286
217.338
217.458
217.679
217.641
217.591
217.744
217.906
218.038
218.101
218.107
218.099
218.119
218.174
218.247
218.318
218.378
218.426
218.466
218.501
218.529
218.553
218.573
218.588
218.6
218.61
218.617
218.622
218.624
218.626
218.625
218.623
218.62
218.616
218.61
218.602
218.591
218.576
218.557
218.539
218.539
218.693
218.837
218.957
219.055
219.136
219.207
219.283
219.38
219.562
220.208
203.837
205.386
206.544
207.573
208.462
209.239
209.922
210.526
211.06
211.53
211.959
212.339
212.695
213.028
213.337
213.626
213.895
214.147
214.382
214.603
214.811
215.006
215.189
215.36
215.516
215.658
215.792
215.935
216.105
216.303
216.501
216.658
216.747
216.776
216.795
216.907
217.101
217.103
217.008
217.055
217.094
217.194
217.419
217.384
217.333
217.49
217.64
217.737
217.756
217.727
217.705
217.728
217.789
217.866
217.938
217.999
218.053
218.102
218.147
218.189
218.228
218.262
218.293
218.32
218.344
218.365
218.383
218.399
218.412
218.423
218.432
218.438
218.443
218.446
218.446
218.443
218.436
218.424
218.411
218.405
218.407
218.426
218.455
218.487
218.52
218.556
218.603
218.67
218.825
219.49
203.256
204.775
205.917
206.929
207.804
208.569
209.242
209.837
210.366
210.839
211.265
211.653
212.01
212.339
212.643
212.926
213.189
213.435
213.665
213.882
214.085
214.278
214.46
214.632
214.792
214.937
215.069
215.203
215.358
215.547
215.753
215.934
216.055
216.103
216.121
216.219
216.406
216.41
216.304
216.341
216.364
216.441
216.673
216.653
216.617
216.784
216.929
217.006
217.007
216.982
216.988
217.046
217.14
217.239
217.329
217.407
217.479
217.547
217.613
217.674
217.73
217.782
217.829
217.873
217.912
217.948
217.981
218.01
218.036
218.059
218.08
218.097
218.113
218.126
218.136
218.143
218.145
218.143
218.139
218.138
218.147
218.169
218.2
218.235
218.271
218.311
218.36
218.428
218.617
219.445
202.677
204.168
205.292
206.289
207.15
207.903
208.566
209.152
209.674
210.143
210.566
210.952
211.305
211.631
211.931
212.21
212.469
212.712
212.94
213.153
213.354
213.544
213.725
213.898
214.062
214.214
214.351
214.48
214.622
214.793
214.992
215.185
215.328
215.396
215.418
215.501
215.674
215.673
215.575
215.598
215.597
215.636
215.832
215.814
215.775
215.929
216.045
216.087
216.067
216.045
216.069
216.143
216.241
216.336
216.419
216.494
216.566
216.636
216.701
216.761
216.816
216.865
216.908
216.947
216.981
217.01
217.036
217.058
217.078
217.095
217.11
217.124
217.137
217.15
217.162
217.173
217.182
217.19
217.198
217.211
217.235
217.274
217.325
217.382
217.441
217.506
217.58
217.677
217.913
218.824
202.102
203.564
204.672
205.653
206.501
207.242
207.894
208.472
208.986
209.448
209.866
210.247
210.596
210.917
211.214
211.489
211.746
211.986
212.211
212.423
212.622
212.81
212.989
213.162
213.33
213.492
213.642
213.78
213.917
214.075
214.26
214.452
214.607
214.69
214.714
214.783
214.939
214.93
214.745
214.731
214.672
214.63
214.819
214.758
214.673
214.774
214.832
214.819
214.764
214.73
214.743
214.792
214.846
214.889
214.922
214.952
214.98
215.006
215.028
215.044
215.056
215.065
215.071
215.077
215.082
215.089
215.097
215.107
215.119
215.135
215.155
215.178
215.205
215.236
215.27
215.307
215.345
215.384
215.426
215.474
215.534
215.609
215.695
215.789
215.887
215.99
216.102
216.246
216.534
217.43
201.535
202.968
204.059
205.025
205.859
206.589
207.231
207.799
208.306
208.761
209.173
209.549
209.894
210.212
210.505
210.777
211.031
211.269
211.493
211.703
211.901
212.087
212.263
212.434
212.604
212.775
212.943
213.101
213.251
213.406
213.581
213.766
213.926
214.014
214.033
214.086
214.229
214.211
214.282
214.132
213.86
213.567
213.209
212.964
212.725
212.688
212.617
212.493
212.352
212.248
212.194
212.162
212.133
212.107
212.094
212.098
212.118
212.148
212.183
212.223
212.267
212.316
212.368
212.424
212.483
212.545
212.609
212.676
212.745
212.817
212.891
212.966
213.044
213.124
213.206
213.288
213.369
213.45
213.532
213.618
213.713
213.82
213.936
214.058
214.182
214.309
214.445
214.617
214.921
215.73
200.983
202.388
203.463
204.414
205.235
205.953
206.586
207.146
207.645
208.094
208.5
208.871
209.211
209.525
209.815
210.084
210.336
210.572
210.794
211.003
211.201
211.386
211.561
211.728
211.895
212.068
212.25
212.432
212.607
212.778
212.954
213.139
213.303
213.399
213.414
213.45
213.583
213.503
212.139
211.416
210.464
209.592
209.904
209.399
208.996
208.875
208.776
208.672
208.596
208.577
208.605
208.661
208.735
208.831
208.955
209.099
209.254
209.409
209.561
209.708
209.852
209.993
210.129
210.263
210.392
210.519
210.642
210.764
210.883
211
211.116
211.231
211.344
211.456
211.567
211.676
211.783
211.887
211.989
212.094
212.205
212.325
212.452
212.582
212.713
212.845
212.987
213.164
213.455
214.167
200.462
201.841
202.901
203.837
204.646
205.354
205.977
206.529
207.021
207.463
207.864
208.231
208.567
208.877
209.164
209.431
209.681
209.915
210.136
210.345
210.543
210.729
210.904
211.068
211.229
211.396
211.58
211.776
211.976
212.171
212.361
212.555
212.737
212.859
212.892
212.921
213.046
212.874
214.123
211.802
209.594
208.107
205.063
204.689
204.59
204.819
205.067
205.305
205.549
205.809
206.068
206.318
206.566
206.82
207.082
207.34
207.585
207.812
208.023
208.219
208.404
208.577
208.741
208.898
209.049
209.194
209.335
209.473
209.607
209.738
209.866
209.992
210.116
210.237
210.356
210.472
210.584
210.693
210.799
210.906
211.016
211.133
211.256
211.38
211.503
211.627
211.763
211.93
212.192
212.82
199.995
201.35
202.396
203.32
204.118
204.816
205.43
205.975
206.46
206.897
207.293
207.655
207.988
208.295
208.579
208.844
209.092
209.326
209.546
209.755
209.954
210.143
210.32
210.485
210.641
210.798
210.971
211.162
211.37
211.583
211.791
212
212.21
212.385
212.482
212.541
212.65
211.964
205.395
201.75
199.684
198.889
200.92
201.351
201.828
202.546
203.183
203.743
204.243
204.687
205.071
205.408
205.721
206.023
206.311
206.577
206.814
207.025
207.218
207.399
207.572
207.738
207.897
208.051
208.2
208.345
208.485
208.621
208.754
208.883
209.008
209.131
209.251
209.368
209.482
209.592
209.697
209.798
209.895
209.991
210.09
210.193
210.299
210.405
210.508
210.614
210.733
210.882
211.121
211.69
199.606
200.941
201.976
202.889
203.679
204.369
204.977
205.515
205.995
206.427
206.819
207.177
207.507
207.811
208.093
208.356
208.603
208.836
209.057
209.266
209.467
209.659
209.841
210.01
210.167
210.318
210.474
210.647
210.843
211.056
211.273
211.494
211.728
211.964
212.155
212.271
212.372
211.108
189.305
186.403
185.073
184.887
199.523
200.415
200.942
201.694
202.356
202.968
203.528
204.023
204.454
204.84
205.199
205.526
205.822
206.085
206.317
206.526
206.719
206.9
207.073
207.239
207.397
207.549
207.695
207.836
207.972
208.103
208.231
208.355
208.477
208.595
208.711
208.825
208.934
209.04
209.14
209.234
209.323
209.409
209.495
209.584
209.673
209.76
209.844
209.93
210.029
210.154
210.36
210.87
199.316
200.637
201.664
202.569
203.353
204.038
204.642
205.177
205.655
206.084
206.474
206.83
207.158
207.46
207.74
208.002
208.247
208.479
208.699
208.909
209.111
209.305
209.492
209.668
209.832
209.984
210.13
210.286
210.462
210.665
210.886
211.113
211.361
211.642
211.917
212.084
212.204
210.54
176.651
174.53
173.832
174.079
198.963
200.178
200.643
201.314
201.89
202.455
202.987
203.471
203.913
204.326
204.714
205.076
205.408
205.704
205.968
206.209
206.431
206.636
206.827
207.006
207.174
207.33
207.479
207.62
207.756
207.888
208.017
208.145
208.271
208.397
208.52
208.641
208.758
208.87
208.975
209.074
209.165
209.251
209.335
209.417
209.497
209.571
209.64
209.708
209.788
209.89
210.072
210.549
199.134
200.445
201.467
202.368
203.148
203.831
204.434
204.969
205.447
205.878
206.27
206.628
206.957
207.261
207.542
207.804
208.05
208.281
208.5
208.71
208.912
209.107
209.295
209.477
209.649
209.807
209.949
210.097
210.265
210.463
210.692
210.925
211.169
211.465
211.77
211.906
212.016
210.273
171.738
169.966
169.571
170.047
199.341
200.665
201.004
201.513
201.912
202.335
202.757
203.164
203.562
203.961
204.36
204.751
205.121
205.462
205.775
206.064
206.34
206.583
206.804
207.004
207.187
207.356
207.514
207.665
207.812
207.958
208.104
208.252
208.401
208.551
208.703
208.855
209.004
209.149
209.285
209.407
209.517
209.615
209.708
209.8
209.89
209.974
210.051
210.125
210.204
210.298
210.468
210.953
199.05
200.356
201.375
202.274
203.052
203.733
204.336
204.872
205.352
205.785
206.181
206.544
206.879
207.189
207.477
207.745
207.996
208.232
208.455
208.668
208.872
209.07
209.261
209.448
209.627
209.789
209.923
210.066
210.228
210.425
210.665
210.89
211.285
211.542
211.802
211.774
211.806
210.366
171.24
169.647
169.468
170.283
204.985
205.638
204.972
204.569
204.187
204.018
203.995
204.074
204.238
204.48
204.778
205.107
205.441
205.765
206.074
206.377
206.525
206.786
207.015
207.224
207.419
207.601
207.774
207.941
208.109
208.285
208.473
208.67
208.871
209.07
209.263
209.45
209.63
209.803
209.973
210.149
210.336
210.542
210.764
210.99
211.203
211.384
211.522
211.615
211.673
211.721
211.845
212.344
199.04
200.345
201.363
202.26
203.036
203.716
204.316
204.85
205.329
205.763
206.159
206.525
206.864
207.18
207.474
207.751
208.011
208.257
208.491
208.715
208.931
209.139
209.342
209.54
209.734
209.906
210.053
210.185
210.328
210.496
210.687
210.858
211.153
211.249
211.299
210.998
211.134
209.818
171.604
170.059
169.994
171.136
208.814
210.111
209.388
208.819
208.143
207.638
207.224
206.887
206.645
206.513
206.478
206.515
206.601
206.719
206.863
207.041
207.097
207.293
207.475
207.655
207.837
208.023
208.217
208.417
208.625
208.846
209.08
209.319
209.552
209.774
210.002
210.258
210.57
210.951
211.39
211.857
212.317
212.726
213.06
213.304
213.457
213.527
213.527
213.481
213.417
213.37
213.44
213.943
199.07
200.377
201.395
202.292
203.068
203.746
204.344
204.875
205.35
205.78
206.172
206.534
206.87
207.184
207.48
207.759
208.024
208.277
208.52
208.756
208.985
209.21
209.429
209.647
209.863
210.057
210.138
210.256
210.356
210.441
210.584
210.588
210.624
210.33
209.911
209.484
210.461
209.387
170.344
168.647
168.619
170.031
209.715
211.32
209.944
209.401
208.903
208.621
208.393
208.182
207.999
207.856
207.754
207.683
207.64
207.632
207.668
207.755
207.736
207.887
208.049
208.216
208.384
208.564
208.777
209.026
209.294
209.555
209.806
210.078
210.417
210.855
211.387
211.976
212.552
213.052
213.432
213.679
213.803
213.832
213.799
213.731
213.645
213.55
213.452
213.363
213.297
213.28
213.394
213.897
199.109
200.418
201.438
202.337
203.114
203.793
204.391
204.922
205.396
205.823
206.212
206.57
206.901
207.21
207.5
207.775
208.037
208.289
208.532
208.77
209.005
209.238
209.467
209.697
209.928
210.143
210.52
210.585
210.557
210.439
210.021
209.725
209.406
208.653
207.708
207.434
209.551
208.676
174.466
172.716
172.681
174.308
211.843
214.55
212.481
211.762
210.719
209.781
209.043
208.543
208.256
208.129
208.094
208.082
208.066
208.046
208.073
208.204
208.27
208.455
208.61
208.799
209.064
209.37
209.664
209.953
210.291
210.726
211.272
211.876
212.448
212.912
213.236
213.419
213.482
213.455
213.369
213.249
213.114
212.981
212.863
212.766
212.69
212.63
212.583
212.553
212.553
212.601
212.76
213.251
199.136
200.447
201.468
202.368
203.147
203.828
204.429
204.962
205.438
205.867
206.258
206.616
206.948
207.257
207.546
207.82
208.081
208.331
208.574
208.812
209.049
209.285
209.52
209.754
209.99
210.173
209.263
209.019
208.574
208.031
208.361
207.8
207.325
206.559
205.598
204.13
212.153
212.508
210.886
209.732
208.93
208.346
208.082
207.979
208.048
208.22
208.431
208.638
208.809
208.98
209.099
209.471
209.888
210.267
210.611
211.008
211.474
211.919
212.268
212.51
212.653
212.711
212.703
212.648
212.561
212.454
212.338
212.22
212.106
212
211.908
211.834
211.782
211.753
211.741
211.743
211.755
211.782
211.832
211.924
212.104
212.581
199.144
200.455
201.476
202.376
203.156
203.838
204.44
204.974
205.452
205.883
206.276
206.638
206.972
207.283
207.575
207.852
208.116
208.371
208.618
208.861
209.104
209.349
209.596
209.84
210.077
210.229
212.425
211.241
209.827
208.698
205.496
205.08
205.073
205.101
205.355
204.43
211.285
212.721
211.497
210.482
209.69
209.135
208.847
208.734
208.808
209.037
209.489
209.849
210.127
210.414
210.547
210.801
210.994
211.14
211.255
211.354
211.428
211.471
211.479
211.456
211.411
211.354
211.295
211.238
211.183
211.128
211.073
211.018
210.966
210.922
210.888
210.869
210.868
210.886
210.919
210.963
211.014
211.077
211.162
211.278
211.474
211.946
199.134
200.444
201.465
202.365
203.144
203.825
204.427
204.961
205.439
205.87
206.264
206.625
206.96
207.272
207.566
207.844
208.11
208.367
208.619
208.867
209.117
209.371
209.631
209.886
210.082
209.77
204.967
202.271
200.646
200.105
202.238
202.757
203.546
204.395
205.505
205.189
210.973
212.557
211.509
210.585
209.843
209.305
208.995
208.871
208.891
209.019
209.233
209.506
209.707
209.879
209.872
209.976
210.034
210.065
210.086
210.106
210.126
210.138
210.139
210.131
210.117
210.101
210.085
210.071
210.059
210.051
210.048
210.051
210.058
210.071
210.09
210.119
210.161
210.218
210.286
210.36
210.438
210.526
210.63
210.758
210.954
211.418
199.117
200.426
201.446
202.345
203.123
203.804
204.404
204.938
205.415
205.846
206.238
206.6
206.935
207.247
207.541
207.819
208.086
208.345
208.599
208.85
209.102
209.359
209.621
209.87
209.983
209.059
188.586
186.171
185.108
185.174
200.928
202.055
203.079
204.196
205.651
205.723
210.862
212.466
211.425
210.389
209.55
208.936
208.529
208.308
208.238
208.267
208.411
208.579
208.718
208.84
208.791
208.864
208.909
208.944
208.975
209.005
209.034
209.063
209.094
209.125
209.156
209.187
209.219
209.252
209.287
209.324
209.365
209.408
209.454
209.501
209.553
209.611
209.679
209.759
209.848
209.941
210.037
210.14
210.258
210.393
210.592
211.062
199.099
200.408
201.428
202.326
203.103
203.783
204.383
204.916
205.392
205.822
206.214
206.574
206.908
207.22
207.514
207.792
208.059
208.318
208.571
208.823
209.075
209.331
209.589
209.823
209.856
208.403
175.162
173.172
172.631
173.144
200.101
201.673
202.757
203.886
205.34
205.491
210.985
212.685
211.608
210.638
209.758
209.066
208.562
208.24
208.079
208.027
208.071
208.143
208.221
208.306
208.231
208.291
208.331
208.367
208.404
208.443
208.482
208.524
208.568
208.615
208.663
208.713
208.765
208.818
208.874
208.932
208.992
209.055
209.118
209.183
209.251
209.323
209.404
209.496
209.596
209.7
209.807
209.92
210.046
210.188
210.395
210.885
199.087
200.396
201.415
202.314
203.091
203.772
204.372
204.904
205.38
205.809
206.2
206.559
206.892
207.202
207.494
207.771
208.035
208.291
208.541
208.79
209.039
209.29
209.541
209.756
209.738
208.041
169.524
167.716
167.431
168.195
200.051
201.774
202.741
203.642
204.762
204.625
211.514
213.582
212.46
211.554
210.538
209.735
209.135
208.705