/*--------------------------------*- C++ -*----------------------------------*\
| =========                 |                                                 |
| \\      /  F ield         | OpenFOAM: The Open Source CFD Toolbox           |
|  \\    /   O peration     | Version:  v2012                                 |
|   \\  /    A nd           | Website:  www.openfoam.com                      |
|    \\/     M anipulation  |                                                 |
\*---------------------------------------------------------------------------*/
FoamFile
{
    version     2.0;
    format      ascii;
    class       volScalarField;
    location    "400/air";
    object      ILambda_65_0;
}
// * * * * * * * * * * * * * * * * * * * * * * * * * * * * * * * * * * * * * //

dimensions      [1 0 -3 0 0 0 0];


internalField   nonuniform List<scalar> 
287104
(
166.693
166.697
166.7
166.703
166.706
166.713
166.727
166.743
166.753
166.753
166.75
166.751
166.759
166.77
166.78
166.788
166.794
166.801
166.808
166.815
166.822
166.829
166.836
166.843
166.85
166.857
166.863
166.87
166.877
166.884
166.891
166.897
166.904
166.911
166.917
166.924
166.93
166.937
166.944
166.95
166.957
166.963
166.97
166.976
166.983
166.989
166.996
167.002
167.009
167.015
167.022
167.028
167.035
167.042
167.048
167.055
167.061
167.068
167.075
167.081
167.088
167.095
167.101
167.108
167.115
167.121
167.128
167.135
167.141
167.148
167.155
167.161
167.168
167.174
167.181
167.188
167.194
167.201
167.208
167.214
167.221
167.228
167.234
167.241
167.247
167.254
167.261
167.268
167.275
167.287
166.693
166.697
166.7
166.703
166.705
166.712
166.726
166.743
166.752
166.753
166.749
166.75
166.758
166.769
166.779
166.787
166.793
166.8
166.807
166.814
166.821
166.828
166.835
166.841
166.848
166.855
166.862
166.869
166.875
166.882
166.889
166.895
166.902
166.908
166.915
166.921
166.928
166.934
166.941
166.947
166.954
166.96
166.967
166.973
166.979
166.986
166.992
166.999
167.005
167.011
167.018
167.024
167.031
167.037
167.044
167.05
167.057
167.063
167.07
167.076
167.083
167.09
167.096
167.103
167.109
167.116
167.122
167.129
167.136
167.142
167.149
167.155
167.162
167.168
167.175
167.181
167.188
167.195
167.201
167.208
167.214
167.221
167.227
167.234
167.24
167.247
167.254
167.26
167.268
167.279
166.693
166.696
166.7
166.703
166.705
166.712
166.726
166.742
166.752
166.752
166.749
166.75
166.757
166.768
166.778
166.786
166.793
166.799
166.806
166.813
166.82
166.827
166.834
166.84
166.847
166.854
166.861
166.867
166.874
166.881
166.887
166.894
166.9
166.907
166.913
166.92
166.926
166.932
166.939
166.945
166.952
166.958
166.964
166.971
166.977
166.983
166.99
166.996
167.002
167.009
167.015
167.021
167.028
167.034
167.041
167.047
167.053
167.06
167.066
167.073
167.079
167.086
167.092
167.099
167.105
167.112
167.118
167.125
167.131
167.138
167.144
167.151
167.157
167.164
167.17
167.177
167.183
167.189
167.196
167.202
167.209
167.215
167.222
167.228
167.234
167.241
167.248
167.254
167.261
167.272
166.693
166.696
166.7
166.703
166.705
166.712
166.726
166.742
166.752
166.752
166.748
166.749
166.757
166.768
166.778
166.785
166.792
166.798
166.805
166.812
166.819
166.826
166.832
166.839
166.846
166.853
166.859
166.866
166.873
166.879
166.886
166.892
166.899
166.905
166.911
166.918
166.924
166.93
166.937
166.943
166.949
166.956
166.962
166.968
166.974
166.981
166.987
166.993
167
167.006
167.012
167.018
167.025
167.031
167.037
167.044
167.05
167.057
167.063
167.069
167.076
167.082
167.088
167.095
167.101
167.108
167.114
167.121
167.127
167.133
167.14
167.146
167.153
167.159
167.165
167.172
167.178
167.185
167.191
167.197
167.204
167.21
167.216
167.223
167.229
167.236
167.242
167.249
167.256
167.267
166.693
166.696
166.7
166.702
166.705
166.712
166.726
166.742
166.751
166.751
166.748
166.749
166.756
166.767
166.777
166.785
166.791
166.797
166.804
166.811
166.818
166.825
166.831
166.838
166.845
166.851
166.858
166.865
166.871
166.878
166.884
166.891
166.897
166.903
166.91
166.916
166.922
166.928
166.935
166.941
166.947
166.954
166.96
166.966
166.972
166.978
166.984
166.99
166.997
167.003
167.009
167.015
167.021
167.028
167.034
167.04
167.046
167.053
167.059
167.065
167.072
167.078
167.084
167.09
167.097
167.103
167.109
167.116
167.122
167.128
167.134
167.141
167.147
167.153
167.159
167.166
167.172
167.178
167.184
167.191
167.197
167.203
167.209
167.216
167.222
167.228
167.235
167.241
167.248
167.258
166.693
166.696
166.7
166.702
166.705
166.711
166.725
166.741
166.751
166.751
166.747
166.748
166.756
166.767
166.776
166.784
166.79
166.797
166.803
166.81
166.817
166.824
166.83
166.837
166.844
166.85
166.857
166.863
166.87
166.876
166.883
166.889
166.895
166.902
166.908
166.914
166.92
166.926
166.933
166.939
166.945
166.951
166.957
166.963
166.969
166.975
166.981
166.987
166.993
166.999
167.005
167.012
167.018
167.024
167.03
167.036
167.042
167.048
167.054
167.06
167.067
167.073
167.079
167.085
167.091
167.097
167.103
167.109
167.115
167.121
167.127
167.133
167.139
167.145
167.151
167.157
167.163
167.169
167.175
167.181
167.187
167.193
167.199
167.204
167.21
167.216
167.222
167.228
167.234
167.244
166.693
166.696
166.7
166.702
166.704
166.711
166.725
166.741
166.751
166.75
166.747
166.748
166.755
166.766
166.776
166.783
166.79
166.796
166.802
166.809
166.816
166.823
166.829
166.836
166.842
166.849
166.855
166.862
166.868
166.875
166.881
166.887
166.893
166.9
166.906
166.912
166.918
166.924
166.93
166.936
166.942
166.948
166.954
166.96
166.966
166.972
166.978
166.984
166.99
166.996
167.002
167.008
167.013
167.019
167.025
167.031
167.037
167.043
167.049
167.055
167.061
167.066
167.072
167.078
167.084
167.09
167.096
167.101
167.107
167.113
167.119
167.124
167.13
167.136
167.141
167.147
167.152
167.158
167.163
167.169
167.174
167.18
167.185
167.191
167.196
167.202
167.207
167.213
167.219
167.228
166.693
166.696
166.699
166.702
166.704
166.711
166.725
166.741
166.75
166.75
166.746
166.747
166.755
166.765
166.775
166.783
166.789
166.795
166.802
166.808
166.815
166.822
166.828
166.835
166.841
166.848
166.854
166.861
166.867
166.873
166.88
166.886
166.892
166.898
166.905
166.911
166.917
166.923
166.929
166.935
166.941
166.946
166.952
166.958
166.965
166.97
166.976
166.982
166.988
166.994
166.999
167.005
167.011
167.017
167.023
167.028
167.034
167.04
167.045
167.051
167.057
167.062
167.068
167.074
167.079
167.085
167.09
167.096
167.102
167.107
167.113
167.118
167.124
167.129
167.134
167.14
167.145
167.151
167.156
167.161
167.167
167.172
167.178
167.183
167.188
167.194
167.2
167.206
167.212
167.222
166.693
166.696
166.699
166.702
166.704
166.711
166.724
166.74
166.75
166.75
166.746
166.747
166.754
166.765
166.775
166.782
166.789
166.795
166.802
166.809
166.815
166.822
166.829
166.835
166.842
166.849
166.855
166.862
166.868
166.875
166.882
166.888
166.894
166.901
166.907
166.914
166.92
166.926
166.932
166.938
166.944
166.95
166.957
166.963
166.969
166.976
166.982
166.988
166.994
167
167.006
167.012
167.018
167.024
167.03
167.036
167.042
167.048
167.054
167.06
167.066
167.072
167.077
167.083
167.089
167.095
167.101
167.107
167.113
167.119
167.124
167.13
167.136
167.142
167.148
167.154
167.159
167.165
167.171
167.177
167.182
167.188
167.194
167.2
167.206
167.212
167.218
167.225
167.232
167.244
166.693
166.696
166.699
166.702
166.704
166.71
166.724
166.74
166.749
166.749
166.746
166.747
166.755
166.767
166.777
166.785
166.792
166.799
166.806
166.813
166.821
166.828
166.835
166.842
166.85
166.857
166.864
166.871
166.878
166.885
166.892
166.899
166.906
166.913
166.92
166.927
166.934
166.941
166.948
166.955
166.962
166.969
166.976
166.983
166.99
166.997
167.004
167.011
167.018
167.025
167.031
167.038
167.045
167.052
167.059
167.066
167.072
167.079
167.086
167.093
167.099
167.106
167.113
167.12
167.126
167.133
167.14
167.146
167.153
167.159
167.166
167.172
167.179
167.185
167.192
167.198
167.204
167.21
167.217
167.223
167.228
167.234
167.239
167.245
167.251
167.257
167.264
167.271
167.278
167.291
166.693
166.696
166.699
166.701
166.704
166.71
166.724
166.74
166.749
166.749
166.747
166.749
166.759
166.771
166.783
166.792
166.8
166.808
166.816
166.825
166.833
166.841
166.849
166.857
166.864
166.872
166.88
166.887
166.895
166.902
166.909
166.917
166.924
166.932
166.939
166.946
166.954
166.961
166.968
166.976
166.984
166.992
166.999
167.006
167.013
167.021
167.028
167.036
167.044
167.051
167.059
167.067
167.074
167.082
167.09
167.098
167.106
167.113
167.121
167.129
167.137
167.145
167.153
167.16
167.168
167.176
167.184
167.192
167.199
167.207
167.215
167.222
167.23
167.237
167.245
167.252
167.259
167.266
167.273
167.279
167.284
167.288
167.293
167.299
167.304
167.31
167.316
167.322
167.33
167.343
166.693
166.696
166.699
166.701
166.703
166.71
166.724
166.739
166.749
166.749
166.746
166.749
166.758
166.77
166.782
166.791
166.799
166.807
166.815
166.823
166.832
166.84
166.847
166.855
166.863
166.87
166.878
166.885
166.892
166.9
166.907
166.914
166.921
166.929
166.936
166.943
166.95
166.957
166.964
166.973
166.981
166.989
166.997
167.002
167.008
167.015
167.023
167.03
167.038
167.046
167.053
167.061
167.069
167.077
167.085
167.093
167.101
167.109
167.118
167.126
167.134
167.143
167.152
167.16
167.169
167.178
167.186
167.195
167.204
167.213
167.222
167.23
167.239
167.248
167.256
167.265
167.273
167.281
167.289
167.297
167.303
167.31
167.316
167.322
167.328
167.334
167.34
167.347
167.354
167.367
166.693
166.696
166.699
166.701
166.703
166.71
166.723
166.739
166.748
166.748
166.746
166.748
166.757
166.77
166.781
166.79
166.798
166.806
166.814
166.822
166.83
166.838
166.846
166.854
166.861
166.869
166.876
166.883
166.89
166.897
166.904
166.911
166.918
166.925
166.932
166.939
166.946
166.953
166.96
166.968
166.976
166.984
166.991
166.997
167.002
167.008
167.015
167.022
167.029
167.036
167.043
167.05
167.057
167.064
167.071
167.078
167.085
167.092
167.1
167.107
167.114
167.121
167.129
167.136
167.144
167.151
167.159
167.166
167.174
167.182
167.19
167.198
167.206
167.214
167.222
167.23
167.239
167.247
167.256
167.264
167.271
167.278
167.286
167.293
167.3
167.308
167.315
167.323
167.331
167.344
166.693
166.696
166.699
166.701
166.703
166.709
166.723
166.739
166.748
166.748
166.746
166.748
166.757
166.769
166.781
166.79
166.797
166.805
166.813
166.821
166.829
166.837
166.845
166.853
166.86
166.867
166.875
166.882
166.889
166.896
166.903
166.91
166.917
166.924
166.93
166.937
166.944
166.951
166.958
166.964
166.971
166.978
166.985
166.993
167
167.007
167.013
167.02
167.027
167.034
167.04
167.047
167.054
167.061
167.068
167.075
167.082
167.089
167.096
167.103
167.109
167.116
167.123
167.13
167.137
167.144
167.15
167.157
167.164
167.17
167.177
167.183
167.19
167.196
167.203
167.209
167.216
167.222
167.228
167.234
167.239
167.244
167.249
167.254
167.26
167.266
167.273
167.28
167.288
167.301
166.693
166.696
166.699
166.701
166.703
166.709
166.723
166.739
166.748
166.748
166.745
166.747
166.756
166.769
166.78
166.789
166.797
166.804
166.812
166.82
166.828
166.836
166.844
166.851
166.859
166.866
166.873
166.88
166.888
166.895
166.902
166.908
166.915
166.922
166.929
166.936
166.942
166.95
166.956
166.96
166.964
166.969
166.977
166.988
166.998
167.006
167.012
167.018
167.025
167.032
167.039
167.046
167.053
167.06
167.067
167.074
167.082
167.089
167.096
167.103
167.11
167.117
167.125
167.132
167.139
167.147
167.154
167.161
167.169
167.176
167.183
167.191
167.198
167.205
167.213
167.22
167.227
167.234
167.241
167.248
167.253
167.259
167.265
167.271
167.277
167.283
167.29
167.297
167.305
167.319
166.693
166.696
166.699
166.701
166.703
166.709
166.723
166.738
166.747
166.747
166.745
166.747
166.756
166.768
166.779
166.788
166.796
166.804
166.811
166.819
166.827
166.835
166.843
166.85
166.858
166.865
166.872
166.879
166.886
166.893
166.9
166.907
166.914
166.921
166.927
166.934
166.941
166.949
166.954
166.956
166.958
166.962
166.97
166.982
166.994
167.003
167.01
167.016
167.023
167.03
167.037
167.044
167.052
167.059
167.066
167.073
167.08
167.088
167.095
167.102
167.11
167.117
167.125
167.133
167.14
167.148
167.156
167.164
167.172
167.18
167.188
167.196
167.204
167.212
167.221
167.229
167.238
167.246
167.255
167.263
167.27
167.278
167.286
167.294
167.302
167.31
167.319
167.328
167.338
167.354
166.693
166.695
166.698
166.701
166.703
166.709
166.722
166.738
166.747
166.747
166.744
166.746
166.755
166.767
166.779
166.787
166.795
166.803
166.811
166.818
166.826
166.834
166.842
166.849
166.856
166.864
166.871
166.878
166.885
166.892
166.898
166.905
166.912
166.919
166.925
166.932
166.939
166.946
166.951
166.954
166.957
166.961
166.968
166.977
166.988
166.998
167.005
167.012
167.019
167.026
167.033
167.04
167.047
167.054
167.061
167.068
167.075
167.082
167.09
167.097
167.104
167.112
167.119
167.127
167.134
167.142
167.15
167.157
167.165
167.173
167.181
167.189
167.197
167.205
167.213
167.221
167.23
167.238
167.246
167.254
167.261
167.268
167.276
167.283
167.29
167.298
167.305
167.314
167.322
167.336
166.693
166.695
166.698
166.7
166.702
166.709
166.722
166.738
166.747
166.747
166.744
166.746
166.755
166.767
166.778
166.787
166.794
166.802
166.81
166.817
166.825
166.833
166.84
166.848
166.855
166.862
166.869
166.876
166.882
166.889
166.895
166.902
166.909
166.915
166.921
166.928
166.934
166.938
166.944
166.952
166.959
166.966
166.97
166.972
166.978
166.987
166.996
167.004
167.01
167.017
167.023
167.03
167.037
167.043
167.05
167.057
167.063
167.07
167.077
167.084
167.091
167.098
167.104
167.111
167.118
167.125
167.132
167.138
167.145
167.152
167.158
167.165
167.172
167.178
167.185
167.191
167.197
167.203
167.209
167.215
167.22
167.224
167.229
167.233
167.237
167.242
167.246
167.251
167.256
167.265
166.693
166.695
166.698
166.7
166.702
166.708
166.722
166.737
166.746
166.746
166.743
166.745
166.754
166.766
166.777
166.786
166.793
166.8
166.808
166.816
166.823
166.831
166.838
166.845
166.851
166.858
166.865
166.871
166.877
166.883
166.889
166.895
166.902
166.908
166.914
166.92
166.925
166.925
166.932
166.947
166.961
166.971
166.972
166.966
166.965
166.974
166.984
166.991
166.997
167.004
167.01
167.016
167.022
167.029
167.035
167.041
167.047
167.053
167.06
167.066
167.072
167.078
167.084
167.09
167.095
167.101
167.107
167.112
167.118
167.123
167.129
167.134
167.139
167.144
167.15
167.154
167.159
167.164
167.169
167.172
167.176
167.179
167.182
167.185
167.188
167.191
167.195
167.198
167.202
167.209
166.693
166.695
166.698
166.7
166.702
166.708
166.722
166.737
166.746
166.746
166.742
166.744
166.752
166.764
166.774
166.782
166.789
166.796
166.803
166.81
166.817
166.824
166.83
166.837
166.843
166.849
166.855
166.861
166.867
166.872
166.878
166.884
166.89
166.895
166.901
166.907
166.912
166.913
166.923
166.943
166.961
166.974
166.975
166.965
166.96
166.964
166.971
166.977
166.983
166.989
166.995
167.001
167.007
167.013
167.019
167.025
167.03
167.036
167.041
167.047
167.052
167.058
167.063
167.068
167.073
167.079
167.084
167.089
167.094
167.099
167.104
167.108
167.113
167.118
167.122
167.127
167.132
167.136
167.14
167.144
167.147
167.151
167.154
167.158
167.161
167.165
167.169
167.173
167.177
167.184
166.692
166.695
166.698
166.7
166.702
166.708
166.721
166.737
166.746
166.745
166.741
166.741
166.748
166.758
166.768
166.775
166.78
166.786
166.792
166.799
166.805
166.811
166.818
166.824
166.83
166.836
166.842
166.848
166.855
166.861
166.867
166.872
166.877
166.883
166.889
166.893
166.903
166.92
166.931
166.947
166.964
166.978
166.989
166.991
166.98
166.966
166.96
166.962
166.969
166.975
166.981
166.986
166.992
166.998
167.003
167.009
167.015
167.02
167.026
167.031
167.037
167.042
167.048
167.053
167.058
167.064
167.069
167.074
167.079
167.084
167.09
167.095
167.1
167.105
167.109
167.114
167.119
167.124
167.128
167.133
167.138
167.142
167.147
167.151
167.155
167.16
167.164
167.169
167.173
167.18
166.692
166.695
166.698
166.7
166.702
166.708
166.721
166.736
166.745
166.744
166.74
166.741
166.748
166.758
166.767
166.774
166.78
166.786
166.792
166.798
166.804
166.811
166.817
166.823
166.829
166.835
166.841
166.849
166.856
166.863
166.868
166.873
166.877
166.882
166.889
166.887
166.913
166.965
166.969
166.969
166.981
166.99
167.026
167.058
167.038
166.989
166.961
166.96
166.968
166.976
166.982
166.988
166.994
166.999
167.005
167.011
167.017
167.023
167.029
167.035
167.041
167.046
167.052
167.058
167.064
167.069
167.075
167.08
167.086
167.091
167.097
167.102
167.107
167.113
167.118
167.123
167.128
167.133
167.138
167.143
167.148
167.152
167.157
167.162
167.166
167.171
167.176
167.18
167.185
167.192
166.692
166.695
166.698
166.7
166.702
166.708
166.721
166.736
166.745
166.744
166.74
166.74
166.747
166.757
166.766
166.773
166.779
166.785
166.791
166.797
166.804
166.81
166.816
166.822
166.828
166.834
166.841
166.848
166.855
166.862
166.868
166.873
166.877
166.882
166.889
166.884
166.925
166.992
166.987
166.986
166.992
166.998
167.044
167.083
167.048
166.984
166.957
166.961
166.971
166.978
166.984
166.99
166.997
167.003
167.009
167.016
167.022
167.028
167.035
167.041
167.047
167.053
167.059
167.066
167.072
167.078
167.084
167.09
167.096
167.101
167.107
167.113
167.119
167.124
167.13
167.136
167.141
167.146
167.152
167.157
167.162
167.167
167.172
167.177
167.182
167.188
167.193
167.198
167.203
167.211
166.692
166.695
166.698
166.7
166.701
166.707
166.72
166.736
166.744
166.744
166.74
166.74
166.747
166.757
166.766
166.773
166.779
166.785
166.791
166.797
166.803
166.809
166.816
166.822
166.828
166.834
166.84
166.846
166.852
166.858
166.864
166.871
166.877
166.882
166.886
166.897
166.912
166.863
166.909
166.984
166.997
167.011
166.947
166.861
166.837
166.885
166.944
166.97
166.975
166.978
166.984
166.991
166.997
167.004
167.01
167.017
167.023
167.03
167.036
167.042
167.049
167.055
167.061
167.067
167.074
167.08
167.086
167.092
167.098
167.104
167.11
167.116
167.121
167.127
167.133
167.138
167.144
167.15
167.155
167.161
167.166
167.171
167.177
167.182
167.187
167.193
167.198
167.203
167.209
167.217
166.692
166.695
166.698
166.7
166.701
166.707
166.72
166.735
166.745
166.744
166.74
166.74
166.747
166.757
166.766
166.773
166.779
166.785
166.791
166.797
166.803
166.81
166.816
166.822
166.828
166.835
166.84
166.843
166.846
166.85
166.857
166.867
166.876
166.884
166.879
166.943
166.826
166.422
166.698
166.984
167.021
167.068
166.628
166.188
166.267
166.663
166.933
166.993
166.981
166.975
166.981
166.988
166.995
167.001
167.008
167.014
167.02
167.027
167.033
167.039
167.045
167.051
167.057
167.064
167.07
167.076
167.082
167.088
167.094
167.099
167.105
167.111
167.117
167.123
167.128
167.134
167.139
167.145
167.15
167.156
167.161
167.167
167.172
167.177
167.183
167.188
167.193
167.199
167.204
167.212
166.692
166.695
166.698
166.699
166.701
166.707
166.72
166.736
166.745
166.745
166.741
166.742
166.748
166.758
166.768
166.774
166.78
166.786
166.792
166.798
166.804
166.81
166.817
166.823
166.829
166.836
166.841
166.842
166.843
166.845
166.852
166.864
166.875
166.886
166.871
167.01
166.652
165.779
166.48
167.023
167.078
167.17
166.137
165.271
165.595
166.461
166.946
167.015
166.98
166.968
166.974
166.982
166.989
166.995
167.001
167.008
167.014
167.02
167.026
167.033
167.039
167.045
167.052
167.058
167.064
167.07
167.077
167.083
167.089
167.095
167.101
167.107
167.112
167.118
167.124
167.129
167.135
167.14
167.145
167.151
167.156
167.161
167.166
167.171
167.176
167.182
167.187
167.192
167.197
167.204
166.692
166.695
166.698
166.699
166.701
166.707
166.72
166.737
166.747
166.747
166.743
166.743
166.75
166.76
166.769
166.776
166.782
166.788
166.794
166.8
166.806
166.812
166.818
166.824
166.83
166.837
166.842
166.844
166.845
166.848
166.855
166.865
166.876
166.886
166.876
167.022
166.505
165.64
166.518
167.029
167.057
167.14
165.96
165.211
165.778
166.66
166.997
166.99
166.96
166.961
166.97
166.977
166.984
166.991
166.997
167.004
167.01
167.017
167.023
167.03
167.037
167.043
167.05
167.057
167.063
167.07
167.076
167.082
167.089
167.095
167.101
167.107
167.112
167.118
167.123
167.129
167.134
167.139
167.145
167.15
167.155
167.159
167.164
167.169
167.174
167.178
167.183
167.188
167.192
167.199
166.692
166.695
166.697
166.699
166.7
166.707
166.721
166.738
166.749
166.749
166.745
166.746
166.753
166.763
166.772
166.779
166.784
166.79
166.796
166.802
166.808
166.814
166.821
166.827
166.833
166.839
166.843
166.849
166.855
166.86
166.866
166.871
166.878
166.884
166.912
166.85
166.698
167.219
167.071
166.874
166.82
166.762
167.174
167.84
168.15
167.662
167.053
166.866
166.916
166.963
166.975
166.979
166.985
166.992
166.999
167.005
167.012
167.019
167.026
167.032
167.039
167.046
167.053
167.06
167.067
167.074
167.08
167.087
167.093
167.099
167.105
167.111
167.117
167.122
167.128
167.133
167.138
167.143
167.148
167.153
167.157
167.162
167.166
167.171
167.175
167.18
167.184
167.188
167.192
167.199
166.692
166.695
166.697
166.699
166.7
166.707
166.722
166.74
166.751
166.751
166.747
166.748
166.755
166.765
166.774
166.781
166.786
166.792
166.798
166.804
166.81
166.816
166.822
166.828
166.835
166.84
166.845
166.857
166.869
166.879
166.884
166.883
166.883
166.878
166.985
166.403
167.634
171.363
168.723
167.292
167.161
166.857
171.125
174.402
173.242
169.431
167.018
166.635
166.862
166.977
166.988
166.987
166.991
166.998
167.005
167.011
167.018
167.025
167.032
167.039
167.046
167.053
167.06
167.067
167.074
167.081
167.088
167.095
167.101
167.108
167.114
167.119
167.125
167.131
167.136
167.141
167.146
167.151
167.155
167.16
167.164
167.169
167.173
167.177
167.18
167.184
167.188
167.192
167.196
167.202
166.692
166.695
166.697
166.699
166.7
166.708
166.723
166.741
166.751
166.751
166.747
166.747
166.755
166.765
166.774
166.781
166.786
166.792
166.798
166.804
166.81
166.817
166.823
166.829
166.836
166.839
166.846
166.866
166.886
166.901
166.905
166.895
166.888
166.871
167.072
165.742
169.509
177.474
173.217
171.045
170.922
170.516
178.377
183.827
179.687
171.226
166.808
166.386
166.835
167.004
167.006
166.999
167.002
167.008
167.014
167.02
167.027
167.034
167.041
167.048
167.055
167.062
167.07
167.077
167.084
167.091
167.098
167.105
167.112
167.118
167.124
167.13
167.136
167.141
167.147
167.152
167.157
167.161
167.166
167.17
167.174
167.178
167.182
167.186
167.189
167.193
167.196
167.2
167.203
167.208
166.692
166.695
166.697
166.699
166.701
166.709
166.724
166.741
166.749
166.748
166.743
166.744
166.751
166.762
166.771
166.778
166.783
166.789
166.795
166.801
166.807
166.814
166.82
166.826
166.833
166.834
166.848
166.877
166.903
166.924
166.925
166.903
166.888
166.866
167.132
165.097
172.131
183.631
182.001
180.524
180.477
180.367
187.205
192.712
184.668
171.994
166.454
166.269
166.868
167.035
167.024
167.013
167.016
167.021
167.026
167.031
167.038
167.044
167.051
167.059
167.067
167.074
167.081
167.088
167.094
167.101
167.108
167.115
167.122
167.128
167.134
167.14
167.146
167.152
167.157
167.162
167.167
167.172
167.177
167.181
167.185
167.189
167.193
167.196
167.2
167.203
167.206
167.209
167.212
167.217
166.692
166.695
166.697
166.699
166.702
166.71
166.723
166.737
166.743
166.739
166.735
166.735
166.743
166.754
166.763
166.77
166.776
166.781
166.787
166.793
166.8
166.806
166.812
166.818
166.825
166.825
166.847
166.887
166.915
166.935
166.93
166.898
166.88
166.861
167.13
164.715
175.119
188.27
191.642
191.251
191.225
191.568
193.511
197.941
186.06
171.228
166.121
166.37
166.954
167.059
167.038
167.029
167.03
167.033
167.037
167.042
167.048
167.053
167.06
167.068
167.076
167.084
167.091
167.096
167.102
167.108
167.115
167.121
167.128
167.134
167.14
167.146
167.152
167.158
167.164
167.169
167.174
167.179
167.184
167.189
167.193
167.197
167.201
167.204
167.208
167.211
167.214
167.217
167.22
167.225
166.692
166.695
166.697
166.699
166.702
166.709
166.72
166.73
166.731
166.726
166.721
166.722
166.73
166.741
166.75
166.757
166.763
166.768
166.774
166.781
166.787
166.793
166.799
166.806
166.813
166.811
166.843
166.889
166.908
166.92
166.904
166.872
166.862
166.855
167.069
164.677
178.392
191.454
194.263
192.922
192.859
193.186
194.425
199.485
184.058
169.423
165.995
166.632
167.048
167.072
167.047
167.042
167.042
167.043
167.046
167.05
167.054
167.06
167.065
167.072
167.079
167.086
167.092
167.098
167.103
167.109
167.114
167.12
167.127
167.133
167.138
167.144
167.15
167.155
167.161
167.166
167.171
167.176
167.181
167.186
167.19
167.194
167.198
167.202
167.206
167.209
167.212
167.215
167.218
167.224
166.692
166.695
166.697
166.7
166.703
166.708
166.714
166.719
166.717
166.71
166.705
166.706
166.714
166.725
166.734
166.741
166.747
166.753
166.759
166.765
166.771
166.777
166.784
166.79
166.797
166.795
166.84
166.885
166.884
166.883
166.841
166.82
166.837
166.847
166.982
164.911
182.419
194.079
189.029
185.05
185.033
184.928
192.605
199.881
180.396
167.599
166.141
166.901
167.104
167.073
167.054
167.051
167.05
167.05
167.051
167.053
167.057
167.061
167.066
167.069
167.072
167.077
167.083
167.09
167.097
167.102
167.106
167.111
167.116
167.121
167.126
167.131
167.136
167.14
167.145
167.149
167.154
167.158
167.162
167.165
167.169
167.172
167.175
167.178
167.181
167.184
167.188
167.191
167.194
167.201
166.692
166.694
166.697
166.7
166.703
166.705
166.707
166.707
166.704
166.696
166.69
166.691
166.699
166.71
166.719
166.726
166.732
166.738
166.744
166.75
166.756
166.763
166.769
166.775
166.781
166.78
166.857
166.903
166.884
166.881
166.763
166.754
166.813
166.838
166.901
165.365
188.146
196.842
182.564
177.421
177.559
177.403
193.62
201.435
176.374
166.488
166.46
167.058
167.108
167.068
167.055
167.053
167.051
167.05
167.051
167.053
167.055
167.059
167.061
167.06
167.059
167.061
167.066
167.075
167.083
167.089
167.092
167.095
167.098
167.102
167.105
167.108
167.111
167.114
167.117
167.119
167.121
167.123
167.125
167.126
167.129
167.131
167.133
167.136
167.14
167.143
167.147
167.151
167.155
167.162
166.692
166.694
166.698
166.701
166.702
166.701
166.7
166.7
166.697
166.69
166.684
166.684
166.691
166.702
166.711
166.718
166.724
166.73
166.736
166.742
166.749
166.755
166.761
166.768
166.773
166.772
166.922
166.989
166.966
166.985
166.707
166.697
166.798
166.831
166.847
166.093
197.015
200.726
173.416
169.721
169.878
170.079
199.681
204.941
172.21
166.286
166.779
167.093
167.086
167.056
167.049
167.048
167.047
167.047
167.047
167.048
167.049
167.052
167.053
167.051
167.048
167.048
167.051
167.058
167.066
167.071
167.073
167.075
167.076
167.078
167.08
167.081
167.082
167.082
167.084
167.085
167.086
167.088
167.091
167.093
167.096
167.099
167.103
167.106
167.11
167.114
167.118
167.123
167.127
167.134
166.692
166.695
166.698
166.701
166.7
166.697
166.697
166.701
166.704
166.699
166.692
166.69
166.696
166.706
166.716
166.724
166.73
166.735
166.741
166.748
166.754
166.76
166.767
166.773
166.778
166.776
167.033
167.128
167.109
167.15
166.684
166.676
166.802
166.833
166.831
167.021
168.226
166.809
166.926
167.057
167.054
167.034
167.031
167.033
167.035
167.036
167.038
167.039
167.041
167.042
167.043
167.046
167.046
167.047
167.047
167.047
167.049
167.052
167.054
167.054
167.055
167.056
167.057
167.059
167.06
167.063
167.065
167.068
167.071
167.074
167.078
167.081
167.085
167.089
167.093
167.097
167.102
167.106
167.111
167.115
167.12
167.127
166.692
166.695
166.698
166.7
166.697
166.695
166.702
166.717
166.727
166.726
166.718
166.713
166.718
166.728
166.738
166.746
166.751
166.757
166.763
166.769
166.776
166.782
166.789
166.795
166.8
166.799
167.11
167.178
167.131
167.149
166.666
166.708
166.827
166.847
166.857
166.863
168.834
166.856
166.876
167.033
167.037
167.019
167.016
167.019
167.021
167.024
167.026
167.029
167.031
167.03
167.034
167.045
167.053
167.057
167.054
167.045
167.039
167.041
167.046
167.049
167.052
167.054
167.058
167.061
167.064
167.068
167.072
167.076
167.08
167.084
167.088
167.092
167.097
167.101
167.106
167.11
167.115
167.12
167.125
167.129
167.134
167.141
166.692
166.695
166.698
166.699
166.695
166.697
166.716
166.745
166.766
166.768
166.758
166.751
166.754
166.764
166.774
166.782
166.788
166.794
166.8
166.806
166.813
166.819
166.825
166.832
166.836
166.84
167.06
167.028
166.91
166.852
166.659
166.786
166.866
166.874
166.886
166.934
168.643
166.887
166.919
167.037
167.036
167.022
167.02
167.021
167.023
167.025
167.027
167.03
167.034
167.032
167.041
167.061
167.077
167.087
167.084
167.069
167.058
167.058
167.064
167.069
167.074
167.077
167.082
167.086
167.09
167.095
167.099
167.104
167.108
167.113
167.118
167.123
167.128
167.133
167.138
167.142
167.147
167.152
167.157
167.162
167.167
167.174
166.692
166.695
166.698
166.697
166.694
166.704
166.736
166.78
166.811
166.815
166.805
166.796
166.798
166.807
166.817
166.825
166.831
166.837
166.843
166.849
166.856
166.862
166.869
166.875
166.88
166.885
166.983
166.887
166.739
166.638
166.738
166.874
166.905
166.909
166.926
166.963
168.687
166.977
166.952
167.045
167.05
167.043
167.041
167.042
167.044
167.046
167.049
167.053
167.057
167.058
167.067
167.086
167.103
167.115
167.115
167.104
167.094
167.092
167.097
167.103
167.108
167.113
167.118
167.123
167.128
167.133
167.138
167.143
167.148
167.153
167.158
167.163
167.169
167.174
167.179
167.184
167.189
167.194
167.2
167.205
167.209
167.217
166.692
166.695
166.697
166.695
166.694
166.712
166.757
166.812
166.848
166.854
166.843
166.834
166.836
166.844
166.854
166.862
166.868
166.874
166.88
166.886
166.893
166.899
166.906
166.912
166.918
166.918
166.996
166.953
166.876
166.826
166.893
166.932
166.936
166.945
166.961
166.992
168.708
167.006
166.975
167.061
167.07
167.066
167.065
167.066
167.068
167.071
167.075
167.079
167.083
167.088
167.093
167.1
167.111
167.122
167.129
167.13
167.128
167.127
167.13
167.136
167.141
167.147
167.152
167.157
167.163
167.168
167.174
167.179
167.184
167.19
167.195
167.201
167.206
167.211
167.217
167.222
167.227
167.233
167.238
167.243
167.248
167.256
166.692
166.695
166.697
166.694
166.696
166.72
166.77
166.827
166.863
166.87
166.861
166.853
166.855
166.863
166.872
166.88
166.886
166.892
166.898
166.905
166.911
166.917
166.924
166.93
166.936
166.938
166.972
166.98
166.979
166.983
166.966
166.954
166.958
166.967
166.98
167.001
168.651
166.97
166.988
167.071
167.079
167.076
167.076