/*--------------------------------*- C++ -*----------------------------------*\
| =========                 |                                                 |
| \\      /  F ield         | OpenFOAM: The Open Source CFD Toolbox           |
|  \\    /   O peration     | Version:  v2012                                 |
|   \\  /    A nd           | Website:  www.openfoam.com                      |
|    \\/     M anipulation  |                                                 |
\*---------------------------------------------------------------------------*/
FoamFile
{
    version     2.0;
    format      ascii;
    class       volScalarField;
    location    "400/air";
    object      k;
}
// * * * * * * * * * * * * * * * * * * * * * * * * * * * * * * * * * * * * * //

dimensions      [0 2 -2 0 0 0 0];


internalField   nonuniform List<scalar> 
287104
(
0.0834012
0.071704
0.0633094
0.0569919
0.0520816
0.0481707
0.044994
0.0423711
0.0401754
0.0383152
0.0367229
0.0353476
0.0341501
0.0331
0.0321733
0.0313507
0.0306166
0.0299584
0.0293654
0.0288291
0.0283422
0.0278986
0.0274929
0.0271209
0.0267787
0.0264631
0.0261711
0.0259004
0.0256487
0.0254142
0.0251951
0.0249899
0.0247973
0.0246161
0.0244452
0.0242836
0.0241304
0.0239848
0.0238461
0.0237134
0.0235863
0.0234642
0.0233466
0.0232329
0.0231228
0.0230159
0.0229119
0.0228105
0.0227115
0.0226146
0.0225197
0.0224266
0.0223353
0.0222455
0.0221572
0.0220705
0.0219851
0.0219012
0.0218186
0.0217373
0.0216574
0.0215788
0.0215015
0.0214254
0.0213506
0.021277
0.0212046
0.0211333
0.0210631
0.0209938
0.0209255
0.0208579
0.0207911
0.0207249
0.0206591
0.0205936
0.0205281
0.0204625
0.0203964
0.0203296
0.0202617
0.0201922
0.0201203
0.020045
0.0199649
0.0198773
0.019779
0.0196584
0.0195189
0.0192078
0.0833979
0.0716975
0.0633004
0.056981
0.0520693
0.0481572
0.0449796
0.042356
0.0401597
0.038299
0.0367064
0.0353309
0.0341334
0.0330834
0.0321569
0.0313345
0.0306007
0.0299428
0.0293502
0.0288143
0.0283278
0.0278845
0.0274793
0.0271078
0.026766
0.0264509
0.0261595
0.0258893
0.0256383
0.0254045
0.0251862
0.024982
0.0247904
0.0246103
0.0244405
0.0242802
0.0241283
0.0239841
0.0238468
0.0237157
0.0235902
0.0234697
0.0233536
0.0232415
0.023133
0.0230276
0.0229251
0.0228251
0.0227274
0.0226317
0.0225379
0.0224459
0.0223554
0.0222664
0.0221789
0.0220927
0.0220078
0.0219242
0.0218419
0.0217608
0.021681
0.0216024
0.021525
0.0214489
0.0213739
0.0213001
0.0212273
0.0211557
0.0210851
0.0210154
0.0209466
0.0208786
0.0208113
0.0207445
0.020678
0.0206118
0.0205456
0.0204792
0.0204122
0.0203444
0.0202754
0.0202047
0.0201316
0.020055
0.0199736
0.0198847
0.0197853
0.0196637
0.0195237
0.0192152
0.0833965
0.0716948
0.0632966
0.0569763
0.0520637
0.048151
0.0449727
0.0423485
0.0401517
0.0382906
0.0366977
0.035322
0.0341245
0.0330745
0.0321481
0.0313259
0.0305923
0.0299345
0.0293422
0.0288066
0.0283203
0.0278773
0.0274724
0.0271012
0.0267598
0.0264451
0.0261541
0.0258845
0.0256341
0.0254009
0.0251833
0.0249799
0.0247892
0.02461
0.0244414
0.0242822
0.0241315
0.0239886
0.0238527
0.023723
0.023599
0.0234799
0.0233654
0.0232549
0.0231479
0.0230442
0.0229432
0.0228448
0.0227486
0.0226545
0.0225622
0.0224716
0.0223826
0.0222951
0.022209
0.0221243
0.0220409
0.0219588
0.021878
0.0217985
0.0217202
0.0216432
0.0215674
0.0214929
0.0214196
0.0213475
0.0212766
0.0212068
0.021138
0.0210703
0.0210035
0.0209375
0.0208723
0.0208076
0.0207433
0.0206794
0.0206154
0.0205513
0.0204866
0.0204211
0.0203544
0.020286
0.0202152
0.020141
0.0200622
0.0199761
0.0198798
0.0197622
0.0196268
0.0193286
0.0833952
0.0716918
0.0632921
0.0569704
0.0520566
0.0481425
0.0449631
0.0423379
0.0401401
0.0382783
0.0366848
0.0353088
0.034111
0.033061
0.0321346
0.0313125
0.0305791
0.0299215
0.0293292
0.0287937
0.0283075
0.0278647
0.0274598
0.0270887
0.0267475
0.026433
0.0261422
0.0258729
0.0256229
0.0253902
0.0251733
0.0249705
0.0247806
0.0246024
0.0244348
0.0242768
0.0241274
0.0239858
0.0238513
0.0237232
0.0236006
0.0234832
0.0233702
0.0232613
0.0231558
0.0230536
0.022954
0.0228569
0.022762
0.0226691
0.0225779
0.0224883
0.0224002
0.0223135
0.0222281
0.022144
0.0220611
0.0219794
0.021899
0.0218198
0.0217418
0.021665
0.0215894
0.021515
0.0214418
0.0213697
0.0212988
0.0212289
0.02116
0.0210921
0.021025
0.0209587
0.020893
0.0208278
0.0207629
0.0206981
0.0206332
0.0205679
0.0205018
0.0204347
0.020366
0.0202952
0.0202218
0.0201448
0.0200628
0.0199736
0.0198742
0.0197535
0.0196153
0.0193158
0.0833939
0.0716891
0.0632883
0.0569654
0.0520505
0.0481354
0.0449548
0.0423285
0.0401298
0.0382671
0.0366729
0.0352965
0.0340986
0.0330486
0.0321223
0.0313004
0.0305671
0.0299097
0.0293177
0.0287824
0.0282964
0.0278537
0.027449
0.0270781
0.026737
0.0264227
0.0261324
0.0258634
0.0256139
0.0253818
0.0251656
0.0249637
0.0247748
0.0245977
0.0244313
0.0242747
0.0241268
0.0239869
0.0238541
0.0237277
0.0236071
0.0234915
0.0233805
0.0232734
0.0231699
0.0230694
0.0229717
0.0228763
0.022783
0.0226917
0.022602
0.0225138
0.0224271
0.0223416
0.0222574
0.0221745
0.0220927
0.0220121
0.0219327
0.0218545
0.0217774
0.0217015
0.0216268
0.0215533
0.0214809
0.0214096
0.0213393
0.0212701
0.0212019
0.0211345
0.0210679
0.0210019
0.0209365
0.0208714
0.0208064
0.0207414
0.020676
0.0206099
0.0205428
0.0204742
0.0204036
0.0203305
0.0202543
0.0201742
0.0200889
0.0199963
0.0198936
0.0197701
0.0196295
0.0193299
0.0833927
0.0716864
0.0632841
0.0569599
0.0520436
0.048127
0.0449451
0.0423174
0.0401174
0.0382536
0.0366589
0.0352823
0.0340845
0.0330349
0.032109
0.0312874
0.0305544
0.0298972
0.0293053
0.02877
0.028284
0.0278412
0.0274365
0.0270656
0.0267246
0.0264105
0.0261204
0.0258519
0.0256029
0.0253715
0.0251562
0.0249554
0.0247679
0.0245924
0.0244278
0.0242731
0.0241274
0.0239899
0.0238596
0.023736
0.0236181
0.0235055
0.0233975
0.0232934
0.023193
0.0230956
0.0230009
0.0229086
0.0228183
0.0227299
0.0226431
0.0225578
0.0224739
0.0223913
0.0223099
0.0222297
0.0221507
0.0220729
0.0219963
0.021921
0.0218468
0.0217739
0.0217023
0.0216318
0.0215626
0.0214946
0.0214278
0.0213621
0.0212974
0.0212336
0.0211707
0.0211086
0.021047
0.0209858
0.0209249
0.020864
0.0208028
0.0207409
0.020678
0.0206136
0.0205473
0.0204785
0.0204068
0.0203317
0.0202523
0.0201666
0.0200726
0.0199606
0.0198338
0.0195591
0.0833915
0.0716838
0.0632801
0.0569545
0.0520366
0.0481185
0.0449347
0.042305
0.0401029
0.0382371
0.0366408
0.0352634
0.0340655
0.033016
0.0320905
0.0312693
0.0305368
0.02988
0.0292884
0.0287533
0.0282674
0.0278248
0.0274203
0.0270496
0.0267089
0.0263952
0.0261057
0.025838
0.02559
0.0253601
0.0251464
0.0249476
0.0247624
0.0245896
0.0244281
0.0242768
0.0241349
0.0240014
0.0238755
0.0237564
0.0236434
0.0235358
0.0234329
0.0233338
0.0232381
0.0231454
0.0230554
0.0229677
0.0228822
0.0227986
0.0227166
0.0226361
0.022557
0.0224791
0.0224026
0.0223273
0.0222532
0.0221804
0.0221089
0.0220387
0.0219699
0.0219024
0.0218363
0.0217717
0.0217085
0.0216467
0.0215864
0.0215275
0.0214699
0.0214137
0.0213588
0.0213051
0.0212525
0.021201
0.0211503
0.0211004
0.021051
0.0210017
0.0209521
0.0209018
0.0208501
0.0207966
0.0207412
0.0206837
0.0206236
0.0205599
0.0204917
0.0204125
0.0203213
0.0201078
0.0833903
0.0716811
0.063276
0.0569488
0.0520293
0.0481092
0.0449234
0.0422915
0.0400869
0.0382192
0.0366222
0.0352454
0.0340487
0.0330004
0.0320758
0.0312551
0.0305227
0.0298655
0.0292731
0.0287369
0.0282498
0.0278059
0.0274
0.0270281
0.0266865
0.0263721
0.0260823
0.0258149
0.0255678
0.0253391
0.0251274
0.0249312
0.0247488
0.024579
0.0244209
0.0242734
0.0241356
0.0240064
0.023885
0.0237705
0.023662
0.0235588
0.0234601
0.0233652
0.0232737
0.023185
0.0230987
0.0230146
0.0229322
0.0228515
0.0227722
0.0226943
0.0226178
0.0225425
0.0224686
0.0223961
0.0223249
0.0222551
0.0221868
0.0221199
0.0220545
0.0219906
0.0219282
0.0218674
0.021808
0.0217502
0.0216938
0.0216388
0.0215852
0.0215329
0.0214818
0.0214318
0.0213829
0.0213349
0.0212875
0.0212406
0.021194
0.0211471
0.0210996
0.0210508
0.0209996
0.0209461
0.0208903
0.0208323
0.0207718
0.0207083
0.020642
0.0205707
0.0205106
0.0203938
0.0833891
0.0716785
0.0632718
0.0569429
0.0520212
0.0480986
0.0449093
0.0422729
0.040062
0.0381867
0.0365938
0.0352337
0.0340587
0.0330306
0.0321206
0.0313074
0.030575
0.0299115
0.0293079
0.028757
0.0282531
0.0277916
0.0273686
0.0269807
0.0266248
0.0262983
0.0259985
0.0257232
0.0254704
0.025238
0.0250241
0.0248272
0.0246458
0.0244784
0.0243237
0.0241805
0.0240474
0.0239233
0.0238066
0.0236962
0.0235911
0.0234904
0.0233934
0.0232995
0.0232081
0.023119
0.0230319
0.0229467
0.0228634
0.0227817
0.0227017
0.0226232
0.0225461
0.0224703
0.022396
0.0223231
0.0222516
0.0221817
0.0221133
0.0220464
0.0219811
0.0219175
0.0218554
0.0217949
0.0217361
0.0216788
0.0216232
0.0215691
0.0215165
0.0214653
0.0214156
0.0213672
0.02132
0.021274
0.0212289
0.0211847
0.0211412
0.0210979
0.0210544
0.021009
0.02096
0.0209086
0.0208557
0.0208016
0.020746
0.0206882
0.0206283
0.0205647
0.0205109
0.0204247
0.0833879
0.0716758
0.0632676
0.0569369
0.0520132
0.0480881
0.0448956
0.042255
0.0400383
0.0381591
0.0376047
0.0373338
0.0369194
0.0362871
0.0354783
0.0345616
0.0335982
0.0326341
0.0317006
0.0308174
0.0299955
0.0292405
0.0285536
0.0279334
0.0273769
0.0268798
0.0264369
0.0260418
0.025688
0.0253686
0.0250763
0.0248033
0.024572
0.0243788
0.0242144
0.0240718
0.0239453
0.0238306
0.0237247
0.0236253
0.0235304
0.0234386
0.023349
0.0232614
0.0231781
0.0231002
0.0230274
0.0229591
0.0228947
0.0228335
0.0227749
0.0227185
0.0226639
0.022611
0.0225596
0.0225097
0.0224611
0.022414
0.0223683
0.0223239
0.0222808
0.022239
0.0221984
0.0221592
0.0221211
0.0220843
0.0220487
0.0220143
0.0219811
0.0219492
0.0219184
0.0218889
0.0218605
0.0218333
0.0218071
0.0217818
0.0217572
0.0217329
0.0217085
0.0216816
0.0215596
0.0214174
0.0212796
0.0211531
0.0210385
0.0209337
0.0208365
0.0207423
0.020661
0.02055
0.0833868
0.0716732
0.0632633
0.0569306
0.0520042
0.0480751
0.044876
0.0422238
0.0399754
0.0382115
0.118867
0.142467
0.142292
0.133925
0.123692
0.113894
0.105247
0.0978792
0.0917132
0.0866155
0.0824477
0.0790828
0.0764079
0.0743223
0.0727349
0.0715622
0.0707273
0.0701591
0.0697932
0.0695724
0.0694489
0.0693817
0.0693577
0.069376
0.0694262
0.0694943
0.069568
0.0696392
0.0697038
0.069761
0.0698125
0.0698625
0.069906
0.0699447
0.0699781
0.0700114
0.0700524
0.0701091
0.0701893
0.0702985
0.07044
0.0706164
0.0708299
0.0710814
0.0713701
0.0716961
0.0720606
0.0724645
0.0729083
0.0733918
0.0739146
0.0744761
0.0750755
0.0757113
0.0763822
0.0770864
0.0778221
0.078587
0.0793782
0.0801926
0.0810271
0.0818789
0.0827462
0.0836269
0.0845199
0.0854266
0.0863572
0.087332
0.0884856
0.0896041
0.0572652
0.0415598
0.0331021
0.0282104
0.0252411
0.0233767
0.0221768
0.0213824
0.0208538
0.0204286
0.0833856
0.0716706
0.0632592
0.0569248
0.0519964
0.0480649
0.0448626
0.0422065
0.0399527
0.0381834
0.11886
0.142512
0.142275
0.133767
0.123359
0.113373
0.104541
0.0969965
0.0906677
0.0854231
0.0811261
0.0776514
0.0748877
0.0727356
0.0711051
0.0699128
0.0690807
0.0685361
0.0682113
0.0680453
0.0679843
0.0679823
0.0680019
0.0680145
0.0679993
0.0679412
0.0678302
0.0676595
0.0674259
0.0671282
0.0667673
0.0663459
0.0658778
0.0653671
0.0648192
0.0642412
0.0636406
0.0630244
0.0623974
0.0617641
0.0611296
0.0604988
0.0598763
0.0592665
0.0586741
0.0581056
0.0575654
0.0570575
0.0565868
0.0561591
0.0557804
0.0554571
0.0551953
0.0550007
0.0548792
0.0548362
0.0548768
0.0550053
0.0552249
0.0555381
0.0559462
0.0564493
0.0570455
0.0577325
0.0585086
0.0593731
0.0603322
0.0613906
0.0626567
0.0639018
0.0444373
0.0342217
0.0283655
0.0247988
0.0225402
0.0210747
0.0201084
0.0194486
0.0189827
0.0185065
0.0833845
0.0716681
0.0632552
0.0569191
0.0519887
0.0480547
0.0448491
0.0421884
0.0399283
0.0381509
0.118632
0.142276
0.142093
0.133641
0.123272
0.113308
0.104482
0.0969352
0.0905989
0.0853466
0.0810462
0.077576
0.074828
0.0727053
0.0711198
0.069989
0.0692351
0.068784
0.0685666
0.0685196
0.0685868
0.0687203
0.0688806
0.0690368
0.0691663
0.0692537
0.0692887
0.0692647
0.0691789
0.0690308
0.0688215
0.0685535
0.0682306
0.0678573
0.067439
0.0669818
0.0664921
0.0659762
0.0654398
0.0648886
0.0643276
0.0637604
0.0631901
0.0626185
0.0620466
0.0614724
0.0608952
0.0603151
0.0597312
0.059142
0.0585461
0.0579422
0.0573293
0.0567067
0.056074
0.0554307
0.0547775
0.0541151
0.0534451
0.0527697
0.0520923
0.0514172
0.0507499
0.0500976
0.0494699
0.0488782
0.0483409
0.0478728
0.0475591
0.0471896
0.0332538
0.0261202
0.022106
0.019675
0.0181184
0.0170786
0.0163621
0.0158332
0.0154217
0.0148914
0.0833834
0.0716657
0.0632515
0.056914
0.0519821
0.0480464
0.0448389
0.0421761
0.0399138
0.0381343
0.118553
0.142195
0.142022
0.133577
0.123208
0.11324
0.104406
0.0968505
0.0905057
0.0852466
0.0809415
0.0774696
0.0747232
0.0726061
0.0710306
0.0699144
0.0691799
0.0687531
0.0685646
0.0685506
0.0686546
0.0688281
0.0690315
0.0692339
0.0694124
0.0695509
0.0696384
0.0696675
0.069634
0.0695365
0.0693751
0.0691518
0.0688703
0.0685352
0.0681534
0.0677337
0.067285
0.0668166
0.066337
0.0658541
0.0653749
0.0649052
0.0644674
0.0640628
0.0636876
0.0633374
0.0630088
0.0626995
0.0624076
0.0621334
0.0618778
0.0616418
0.0614252
0.0612269
0.0610458
0.0608804
0.0607294
0.0605903
0.0604604
0.0603363
0.0602148
0.0600922
0.0599647
0.0598288
0.0596819
0.0595235
0.0593614
0.0592111
0.0591788
0.0593101
0.0421756
0.0337192
0.0290196
0.0261273
0.0241724
0.0227472
0.0217195
0.020891
0.0201649
0.0192995
0.0833824
0.0716634
0.0632479
0.0569093
0.0519761
0.048039
0.0448299
0.0421653
0.039901
0.0381193
0.118455
0.142072
0.141899
0.133459
0.123099
0.113135
0.104305
0.0967489
0.090403
0.0851421
0.0808354
0.0773628
0.0746173
0.0725033
0.0709331
0.069825
0.0691011
0.0686874
0.0685142
0.0685177
0.0686411
0.0688359
0.0690624
0.0692895
0.0694941
0.0696596
0.0697742
0.0698291
0.0698185
0.0697391
0.069589
0.0693687
0.0690808
0.06873
0.0683239
0.0678726
0.0673866
0.0668764
0.0663521
0.0658226
0.0652956
0.0647772
0.0642723
0.0637845
0.0633162
0.0628686
0.0624426
0.0620388
0.0616669
0.0613291
0.0610214
0.0607398
0.0604809
0.0602425
0.0600235
0.0598243
0.0596468
0.0594928
0.0593633
0.0592597
0.059184
0.0591385
0.0591259
0.0591492
0.0592132
0.0593246
0.0594975
0.0597524
0.0601971
0.0608713
0.0434093
0.0349593
0.0304134
0.0277523
0.0260731
0.024931
0.024087
0.0233898
0.0227297
0.0218797
0.0833813
0.0716611
0.0632446
0.056905
0.0519708
0.0480327
0.0448227
0.0421571
0.0398918
0.0381089
0.118388
0.141976
0.14179
0.133343
0.122977
0.11301
0.104177
0.096619
0.090272
0.0850108
0.0807049
0.0772342
0.0744919
0.0723824
0.070818
0.0697168
0.0690008
0.0685958
0.0684318
0.0684449
0.0685783
0.0687834
0.0690211
0.0692605
0.0694787
0.0696592
0.0697894
0.069859
0.0698602
0.0697866
0.0696335
0.0693988
0.0690835
0.0686923
0.0682338
0.0677203
0.0671648
0.0665802
0.0659787
0.0653707
0.0647648
0.0641674
0.0635835
0.0630162
0.0624677
0.0619393
0.0614308
0.0609415
0.0604702
0.0600159
0.0595772
0.0591525
0.0587405
0.0583394
0.0579479
0.0575645
0.0571882
0.0568181
0.0564536
0.0560943
0.05574
0.0553913
0.0550491
0.054715
0.0543918
0.0540836
0.0537992
0.0535458
0.0533924
0.0532422
0.0382228
0.0308148
0.0267447
0.0243272
0.0228189
0.0218028
0.0210565
0.0204399
0.0198885
0.0191649
0.0833803
0.071659
0.0632416
0.0569011
0.0519663
0.0480277
0.0448173
0.0421516
0.0398862
0.0381032
0.118352
0.141913
0.141701
0.133233
0.122848
0.112867
0.104023
0.0964586
0.0901082
0.0848467
0.0805434
0.0770779
0.0743428
0.072242
0.0706873
0.0695958
0.0688887
0.0684911
0.0683327
0.0683492
0.0684842
0.0686901
0.0689288
0.069171
0.0693952
0.0695855
0.0697294
0.0698151
0.0698314
0.0697677
0.0696137
0.0693629
0.0690139
0.0685709
0.0680446
0.0674508
0.0668063
0.0661278
0.0654301
0.0647258
0.0640246
0.0633335
0.0626575
0.0619993
0.0613601
0.0607399
0.0601376
0.0595518
0.0589805
0.0584219
0.0578736
0.0573335
0.0567993
0.0562688
0.0557396
0.0552098
0.0546774
0.0541408
0.0535984
0.0530491
0.0524919
0.0519265
0.051353
0.0507725
0.0501871
0.0496004
0.0490206
0.048452
0.047959
0.0473376
0.0334985
0.0265433
0.0226962
0.0203837
0.018877
0.017811
0.0169926
0.0162949
0.0156691
0.0148368
0.0833793
0.0716569
0.0632386
0.0568976
0.0519623
0.0480234
0.044813
0.0421473
0.0398821
0.0380988
0.11829
0.141797
0.141546
0.133057
0.122665
0.112684
0.103846
0.0962909
0.0899521
0.0847044
0.0804175
0.0769717
0.07426
0.0721861
0.0706611
0.0696008
0.0689249
0.0685569
0.0684261
0.0684687
0.0686298
0.0688646
0.069138
0.0694241
0.0697041
0.0699634
0.0701882
0.0703624
0.0704673
0.0704814
0.0703832
0.0701575
0.0697989
0.0693134
0.0687186
0.0680394
0.0673025
0.0665334
0.0657538
0.0649809
0.0642271
0.0635005
0.0628056
0.0621442
0.061516
0.0609191
0.060351
0.0598089
0.059291
0.058795
0.0583192
0.0578614
0.05742
0.0569931
0.0565796
0.0561783
0.0557886
0.0554101
0.055043
0.0546876
0.0543451
0.0540168
0.0537052
0.0534135
0.0531464
0.0529104
0.052718
0.0525794
0.0525757
0.0525181
0.0371358
0.0293882
0.0250976
0.0225303
0.0208884
0.0197715
0.0189644
0.0183276
0.0177935
0.0171346
0.0833784
0.071655
0.063236
0.0568946
0.0519593
0.0480211
0.044812
0.0421488
0.0398879
0.0381106
0.118388
0.141851
0.141522
0.132963
0.122523
0.112523
0.103695
0.0961836
0.0899236
0.0847924
0.0806606
0.0774065
0.0749184
0.0730921
0.0718289
0.0710347
0.070621
0.0705062
0.0706177
0.0708938
0.0712838
0.0717488
0.0722593
0.0727938
0.0733354
0.0738678
0.0743706
0.0748152
0.0751636
0.0753703
0.075389
0.075187
0.0747542
0.0741051
0.0732769
0.0723201
0.0712885
0.0702321
0.0691933
0.0682047
0.0672889
0.0664596
0.065723
0.0650795
0.0645251
0.0640533
0.0636584
0.0633349
0.0630762
0.0628744
0.0627215
0.0626102
0.062534
0.0624879
0.062468
0.0624713
0.0624959
0.0625405
0.0626045
0.0626879
0.0627911
0.0629152
0.0630619
0.063234
0.063436
0.063675
0.0639661
0.0643315
0.064882
0.0656033
0.0458081
0.0357933
0.0301585
0.0267267
0.0245066
0.0229984
0.0219274
0.0211199
0.0204693
0.0198123
0.0833774
0.071653
0.0632334
0.0568916
0.0519564
0.0480185
0.0448105
0.0421491
0.0398913
0.0381157
0.118217
0.141561
0.141277
0.132846
0.122657
0.113065
0.104815
0.0980447
0.0926688
0.0885296
0.0854541
0.0832731
0.0818293
0.08098
0.080599
0.0805772
0.0808238
0.0812651
0.0818439
0.0825175
0.0832553
0.0840369
0.0848491
0.0856834
0.0865325
0.0873863
0.0882261
0.0890172
0.089706
0.0902169
0.0904619
0.0903654
0.0898841
0.0890166
0.0878035
0.0863157
0.0846387
0.0828619
0.0810707
0.0793409
0.0777361
0.0763055
0.0750837
0.0740909
0.0733337
0.0728053
0.0725184
0.0724659
0.0726062
0.0728876
0.0732643
0.0737004
0.0741708
0.0746585
0.075153
0.0756482
0.076141
0.0766301
0.0771154
0.0775977
0.0780782
0.0785586
0.0790414
0.0795299
0.0800292
0.0805481
0.0811061
0.0817376
0.0825905
0.0835722
0.0549802
0.0409643
0.0333236
0.0288287
0.0260344
0.0242226
0.0230066
0.0221585
0.0215497
0.0210253
0.0833765
0.0716512
0.0632311
0.0568892
0.0519546
0.0480187
0.0448153
0.0421636
0.0399358
0.0380437
0.0367444
0.0356333
0.0345111
0.0334844
0.0325377
0.031665
0.0308631
0.0301288
0.0294587
0.0288492
0.0282962
0.0277957
0.0273436
0.0269362
0.0265695
0.0262402
0.0259449
0.0256807
0.025445
0.0252354
0.0250502
0.0248876
0.0247468
0.0246271
0.0245285
0.0244513
0.0243958
0.0243618
0.0243478
0.0243502
0.0243627
0.0243774
0.0243866
0.0243832
0.0243629
0.024322
0.02426
0.0241786
0.0240803
0.0239683
0.0238463
0.0237178
0.0235863
0.0234551
0.0233267
0.0232035
0.0230872
0.022979
0.0228798
0.0227896
0.0227084
0.0226354
0.0225701
0.0225117
0.0224592
0.0224118
0.0223689
0.0223296
0.0222933
0.0222595
0.0222275
0.0221971
0.0221677
0.022139
0.0221108
0.0220828
0.0220546
0.0220259
0.0219964
0.0219636
0.0218478
0.0217124
0.0215793
0.0214545
0.0213389
0.0212313
0.0211303
0.021032
0.0209458
0.0208233
0.0833756
0.0716493
0.0632285
0.0568863
0.0519517
0.0480161
0.0448137
0.0421636
0.0399386
0.0380484
0.0364306
0.0350356
0.0338215
0.0327557
0.031813
0.0309737
0.0302221
0.0295455
0.028934
0.0283791
0.0278741
0.0274136
0.0269927
0.0266077
0.0262553
0.0259328
0.0256379
0.0253687
0.0251236
0.0249014
0.0247011
0.0245222
0.0243645
0.0242282
0.0241143
0.0240243
0.0239602
0.0239227
0.0239119
0.0239237
0.0239498
0.0239794
0.024002
0.0240089
0.0239953
0.0239596
0.0239021
0.0238247
0.0237303
0.0236221
0.0235034
0.0233776
0.0232476
0.0231157
0.0229841
0.0228547
0.0227289
0.0226078
0.0224925
0.0223837
0.0222818
0.0221871
0.0220995
0.022019
0.0219454
0.0218783
0.0218172
0.0217618
0.0217114
0.0216656
0.0216237
0.0215853
0.0215499
0.0215169
0.0214858
0.0214562
0.0214276
0.0213994
0.0213708
0.0213402
0.0213058
0.0212683
0.0212289
0.0211879
0.0211452
0.0211004
0.0210534
0.021002
0.0209576
0.0208696
0.0833746
0.0716475
0.063226
0.0568833
0.0519487
0.0480136
0.0448124
0.0421646
0.0399435
0.0380585
0.0364433
0.0350472
0.03383
0.0327602
0.0318132
0.0309694
0.0302133
0.0295321
0.0289157
0.0283557
0.0278453
0.0273787
0.0269514
0.0265594
0.0261997
0.0258694
0.0255664
0.0252888
0.0250351
0.0248043
0.0245955
0.0244083
0.024243
0.0241002
0.0239818
0.0238908
0.0238309
0.0238061
0.0238189
0.0238651
0.0239326
0.0240052
0.0240669
0.0241053
0.0241142
0.0240919
0.0240397
0.0239604
0.0238584
0.023738
0.0236048
0.0234626
0.0233151
0.0231642
0.0230133
0.0228652
0.0227223
0.0225863
0.0224584
0.0223395
0.0222302
0.0221308
0.0220412
0.0219614
0.0218911
0.0218297
0.0217767
0.0217316
0.0216937
0.0216621
0.0216363
0.0216153
0.0215985
0.021585
0.0215742
0.0215652
0.0215573
0.0215496
0.0215412
0.021531
0.0215179
0.0215012
0.0214808
0.0214566
0.021428
0.0213941
0.0213537
0.0213019
0.021244
0.0210992
0.0833737
0.0716455
0.0632232
0.0568799
0.0519447
0.0480092
0.0448077
0.0421596
0.0399381
0.038052
0.0364343
0.0350343
0.0338125
0.032738
0.0317863
0.030938
0.0301773
0.0294916
0.0288707
0.028306
0.0277908
0.0273193
0.0268869
0.0264898
0.0261248
0.0257892
0.0254808
0.0251978
0.0249388
0.0247024
0.0244881
0.0242954
0.0241246
0.0239769
0.0238549
0.0237633
0.0237089
0.0237006
0.0237478
0.0238487
0.0239866
0.0241359
0.024269
0.0243665
0.0244197
0.0244273
0.0243919
0.0243191
0.024215
0.024088
0.023946
0.0237939
0.0236365
0.0234778
0.0233212
0.0231698
0.0230261
0.0228919
0.022769
0.0226585
0.0225612
0.0224774
0.0224072
0.0223503
0.022306
0.0222735
0.0222516
0.0222389
0.022234
0.0222352
0.0222409
0.0222494
0.022259
0.0222682
0.0222755
0.0222796
0.0222795
0.0222739
0.022262
0.0222428
0.0222156
0.0221796
0.0221346
0.0220805
0.022017
0.0219432
0.0218582
0.021756
0.0216393
0.0214197
0.0833728
0.0716435
0.0632203
0.0568762
0.0519404
0.0480042
0.0448022
0.0421536
0.0399316
0.0380447
0.0364255
0.0350229
0.0337977
0.032719
0.0317626
0.0309091
0.0301429
0.0294514
0.0288243
0.0282534
0.0277318
0.0272537
0.0268148
0.0264111
0.0260396
0.0256976
0.025383
0.0250939
0.0248287
0.0245862
0.0243654
0.0241658
0.0239876
0.0238321
0.0237021
0.0236046
0.0235498
0.023556
0.0236561
0.023869
0.0241788
0.0245342
0.0248715
0.0251504
0.0253542
0.0254812
0.0255378
0.0255351
0.0254852
0.0253986
0.0253019
0.025203
0.025108
0.0250217
0.0249475
0.0248876
0.0248432
0.0248143
0.0248
0.0247987
0.0248081
0.0248257
0.0248486
0.0248741
0.0248995
0.0249221
0.0249397
0.0249504
0.0249526
0.024945
0.0249266
0.0248969
0.0248555
0.0248022
0.0247373
0.0246608
0.0245732
0.0244748
0.0243661
0.0242474
0.024119
0.0239812
0.0238344
0.0236788
0.0235144
0.0233405
0.0231563
0.0229552
0.0227402
0.0224235
0.0833719
0.0716415
0.0632173
0.0568722
0.0519354
0.0479982
0.044795
0.042145
0.0399214
0.0380323
0.0364103
0.0350041
0.0337747
0.0326913
0.0317298
0.0308708
0.0300988
0.0294013
0.028768
0.0281905
0.027662
0.027177
0.026731
0.0263202
0.0259415
0.0255925
0.025271
0.0249751
0.0247031
0.0244536
0.0242254
0.0240176
0.0238298
0.023663
0.0235198
0.0234088
0.0233439
0.0233625
0.0236082
0.0242253
0.0252075
0.0263597
0.0274648
0.0284286
0.0292186
0.0298409
0.0303178
0.0306761
0.0309411
0.0311343
0.0312666
0.0313844
0.0314798
0.0315459
0.0315778
0.0315733
0.0315325
0.0314571
0.0313506
0.0312168
0.0310598
0.0308835
0.0306916
0.030487
0.0302723
0.0300495
0.0298201
0.0295855
0.0293464
0.0291037
0.0288577
0.028609
0.0283579
0.0281047
0.0278497
0.0275931
0.0273351
0.0270758
0.0268154
0.026554
0.0262915
0.0260278
0.0257627
0.0254959
0.025227
0.0249545
0.0246768
0.0243871
0.0240861
0.023694
0.083371
0.0716395
0.0632143
0.0568682
0.0519302
0.0479918
0.0447872
0.0421357
0.0399102
0.0380189
0.0363941
0.0349846
0.0337512
0.0326632
0.0316965
0.0308318
0.0300536
0.0293493
0.0287087
0.0281234
0.0275869
0.0270934
0.0266388
0.0262192
0.0258319
0.0254744
0.0251447
0.0248407
0.0245608
0.0243031
0.0240662
0.0238484
0.0236484
0.0234658
0.0233008
0.0231627
0.0230655
0.0230918
0.0240312
0.0266269
0.0306023
0.03484
0.0385048
0.0413829
0.0434544
0.044821
0.0456115
0.0459508
0.0459474
0.0456918
0.0452498
0.0446518
0.0439448
0.0431622
0.0423351
0.0414894
0.0406455
0.039818
0.0390169
0.0382481
0.0375147
0.0368174
0.0361558
0.0355279
0.0349317
0.0343646
0.0338239
0.0333072
0.032812
0.0323362
0.0318776
0.0314346
0.0310056
0.0305893
0.0301847
0.0297907
0.0294066
0.0290317
0.0286653
0.0283068
0.0279557
0.0276113
0.0272729
0.0269396
0.0266103
0.0262832
0.0259557
0.0256211
0.0252769
0.0248551
0.0833701
0.0716376
0.0632113
0.056864
0.0519248
0.047985
0.0447788
0.0421254
0.0398977
0.0380037
0.0363756
0.0349624
0.0337245
0.0326316
0.0316593
0.0307883
0.0300033
0.0292915
0.0286428
0.0280489
0.0275031
0.0270001
0.0265354
0.0261059
0.0257086
0.0253413
0.0250021
0.0246891
0.0244003
0.024134
0.0238881
0.0236606
0.023449
0.0232513
0.0230634
0.0228933
0.0227459
0.0228638
0.0276244
0.0387376
0.0520403
0.0626191
0.0689624
0.0717362
0.0719071
0.0704443
0.0680847
0.0653253
0.0624711
0.0596896
0.0570526
0.0545866
0.052315
0.0502493
0.0483843
0.0467054
0.045194
0.0438305
0.0425965
0.0414753
0.0404542
0.0395262
0.038675
0.0378851
0.0371457
0.0364495
0.0357907
0.0351648
0.0345684
0.0339985
0.0334526
0.0329286
0.0324251
0.0319405
0.0314738
0.0310241
0.0305908
0.0301731
0.0297705
0.0293821
0.0290073
0.0286448
0.0282935
0.0279516
0.0276166
0.0272855
0.0269586
0.0266305
0.0262938
0.0258954
0.0833694
0.0716359
0.0632085
0.0568601
0.0519196
0.0479783
0.0447704
0.042115
0.0398849
0.0379881
0.0363567
0.0349396
0.0336973
0.0325991
0.0316209
0.0307434
0.0299508
0.0292307
0.0285728
0.027969
0.0274124
0.026898
0.0264215
0.0259798
0.0255705
0.0251916
0.0248413
0.0245179
0.0242193
0.0239435
0.0236884
0.0234516
0.0232298
0.0230187
0.022807
0.0225947
0.0223418
0.0229024
0.0428316
0.0735343
0.0976007
0.108736
0.109152
0.103519
0.095445
0.0870432
0.0793146
0.0726104
0.0669606
0.0622602
0.0583652
0.0551315
0.0524321
0.0501573
0.0482184
0.046551
0.0451187
0.0438666
0.0427417
0.0417135
0.0407634
0.0398787
0.0390506
0.038272
0.0375374
0.0368422
0.0361824
0.0355548
0.0349565
0.034385
0.0338384
0.0333151
0.032814
0.0323343
0.0318753
0.0314368
0.0310185
0.03062
0.030241
0.0298809
0.0295389
0.0292138
0.028904
0.0286072
0.0283204
0.0280396
0.0277581
0.0274673
0.0271346
0.0267482
0.0833687
0.0716344
0.063206
0.0568565
0.0519147
0.0479719
0.0447622
0.0421047
0.039872
0.0379723
0.0363374
0.0349161
0.033669
0.0325653
0.0315808
0.0306959
0.0298952
0.0291658
0.0284976
0.0278823
0.0273132
0.0267854
0.0262949
0.0258389
0.0254154
0.0250229
0.0246599
0.0243249
0.0240158
0.0237305
0.0234676
0.0232262
0.0230051
0.0228036
0.0226117
0.0224295
0.0222
0.0228209
0.0446787
0.0781836
0.104228
0.115072
0.114937
0.108555
0.0994938
0.0900237
0.081285
0.0737038
0.0673372
0.0620834
0.0577833
0.0542768
0.0514223
0.0491307
0.0472446
0.0456475
0.0442631
0.0430392
0.0419398
0.0409395
0.0400204
0.0391692
0.0383758
0.0376323
0.0369322
0.0362701
0.0356415
0.0350425
0.0344701
0.033922
0.0333963
0.0328922
0.0324091
0.0319473
0.0315073
0.0310901
0.0306964
0.0303272
0.029983
0.0296638
0.0293692
0.029098
0.0288482
0.028617
0.0284005
0.0281943
0.0279898
0.0277804
0.027528
0.0272367
0.0833683
0.0716332
0.0632039
0.0568534
0.0519104
0.0479661
0.0447546
0.0420949
0.0398597
0.0379569
0.0363185
0.034893
0.0336409
0.0325314
0.0315401
0.0306475
0.0298377
0.0290981
0.0284182
0.0277897
0.027206
0.0266623
0.0261549
0.0256815
0.0252408
0.0248319
0.0244541
0.0241059
0.0237851
0.0234896
0.0232189
0.0229757
0.0227647
0.0225974
0.0224753
0.0224141
0.022319
0.0229442
0.0439761
0.0772395
0.103627
0.114853
0.114939
0.10877
0.0999054
0.0906227
0.0820413
0.074565
0.0682402
0.0629527
0.0585471
0.054903
0.0519194
0.0494229
0.0472996
0.0454706
0.0438784
0.042479
0.0412387
0.0401303
0.0391319
0.0382255
0.0373961
0.0366306
0.035918
0.0352489
0.0346153
0.0340109
0.0334309
0.0328719
0.0323323
0.0318115
0.0313102
0.0308299
0.0303729
0.0299416
0.0295386
0.0291663
0.0288268
0.0285215
0.0282514
0.0280162
0.0278147
0.027644
0.0274994
0.0273754
0.0272611
0.0271501
0.026997
0.0268249
0.0833679
0.0716323
0.0632024
0.0568509
0.0519068
0.047961
0.0447477
0.0420859
0.0398482
0.0379423
0.0363002
0.0348704
0.0336132
0.0324977
0.0314993
0.0305983
0.0297788
0.0290277
0.0283347
0.0276911
0.0270905
0.026528
0.0260003
0.0255058
0.0250442
0.0246159
0.0242212
0.0238588
0.0235257
0.0232195
0.0229414
0.022701
0.022517
0.0224317
0.0224857
0.0227545
0.0229986
0.0236461
0.0417685
0.0719613
0.0969506
0.108649
0.109648
0.104417
0.0966945
0.088678
0.0813061
0.0748465
0.0692709
0.0644541
0.0602636
0.0566451
0.0534992
0.0507286
0.0482748
0.0460989
0.0441709
0.0424646
0.0409551
0.0396185
0.0384314
0.0373716
0.036418
0.0355511
0.0347533
0.0340091
0.0333056
0.0326325
0.0319824
0.0313502
0.0307329
0.0301294
0.0295402
0.0289679
0.0284175
0.0278961
0.0274127
0.0269747
0.0265844
0.026251
0.0259687
0.0257311
0.0255352
0.0253791
0.0252604
0.0251762
0.02512
0.0250876
0.0250547
0.0250163
0.0833678
0.0716318
0.0632013
0.0568491
0.0519038
0.0479567
0.0447417
0.0420778
0.0398376
0.0379287
0.036283
0.0348489
0.0335865
0.0324648
0.0314591
0.0305493
0.0297193
0.0289558
0.0282481
0.0275873
0.0269669
0.0263818
0.0258294
0.0253089
0.0248213
0.0243692
0.0239553
0.0235786
0.0232346
0.0229206
0.0226413
0.0224205
0.022308
0.0224217
0.022925
0.0240436
0.0249672
0.0254949
0.0264764
0.0302406
0.0371795
0.044595
0.0509161
0.0559738
0.0594866
0.0614766
0.0621596
0.0618136
0.0606939
0.0590152
0.0569585
0.0546961
0.0523679
0.0500527
0.0478133
0.0456959
0.0437302
0.0419313
0.0403022
0.0388372
0.0375233
0.0363434
0.0352775
0.0343049
0.0334049
0.0325584
0.0317485
0.0309615
0.0301873
0.0294215
0.0286682
0.0279363
0.0272572