/*--------------------------------*- C++ -*----------------------------------*\
| =========                 |                                                 |
| \\      /  F ield         | OpenFOAM: The Open Source CFD Toolbox           |
|  \\    /   O peration     | Version:  v2012                                 |
|   \\  /    A nd           | Website:  www.openfoam.com                      |
|    \\/     M anipulation  |                                                 |
\*---------------------------------------------------------------------------*/
FoamFile
{
    version     2.0;
    format      ascii;
    class       volScalarField;
    location    "400/air";
    object      nut;
}
// * * * * * * * * * * * * * * * * * * * * * * * * * * * * * * * * * * * * * //

dimensions      [0 2 -1 0 0 0 0];


internalField   nonuniform List<scalar> 
287104
(
0.00648531
0.00601335
0.00565039
0.00536107
0.00512492
0.00492874
0.00476345
0.00462253
0.00450117
0.00439572
0.00430342
0.00422206
0.00414993
0.00408564
0.00402804
0.00397621
0.00392938
0.00388691
0.00384826
0.00381296
0.00378062
0.00375092
0.00372355
0.00369828
0.00367487
0.00365315
0.00363295
0.00361411
0.00359651
0.00358003
0.00356457
0.00355003
0.00353633
0.00352339
0.00351114
0.00349952
0.00348847
0.00347793
0.00346786
0.00345821
0.00344894
0.00344
0.00343137
0.00342302
0.0034149
0.00340701
0.00339931
0.00339179
0.00338443
0.00337721
0.00337013
0.00336316
0.00335631
0.00334957
0.00334293
0.00333639
0.00332994
0.00332359
0.00331733
0.00331116
0.00330508
0.00329909
0.00329319
0.00328737
0.00328164
0.003276
0.00327044
0.00326495
0.00325954
0.00325419
0.00324891
0.00324369
0.00323851
0.00323337
0.00322826
0.00322316
0.00321805
0.00321293
0.00320777
0.00320254
0.00319721
0.00319175
0.00318609
0.00318016
0.00317383
0.0031669
0.00315909
0.00314948
0.00313833
0.00311327
0.00648518
0.00601307
0.00564999
0.00536055
0.00512431
0.00492805
0.00476269
0.00462171
0.00450029
0.0043948
0.00430245
0.00422107
0.00414892
0.00408461
0.00402701
0.00397518
0.00392836
0.0038859
0.00384726
0.00381198
0.00377966
0.00374997
0.00372263
0.00369738
0.003674
0.00365231
0.00363214
0.00361334
0.00359578
0.00357935
0.00356394
0.00354946
0.00353583
0.00352297
0.0035108
0.00349927
0.00348832
0.00347788
0.00346792
0.00345838
0.00344922
0.0034404
0.00343189
0.00342365
0.00341566
0.00340788
0.00340029
0.00339287
0.00338561
0.00337849
0.00337149
0.0033646
0.00335782
0.00335114
0.00334456
0.00333806
0.00333165
0.00332533
0.00331909
0.00331294
0.00330687
0.00330089
0.00329498
0.00328916
0.00328342
0.00327776
0.00327218
0.00326667
0.00326123
0.00325586
0.00325055
0.00324529
0.00324007
0.00323489
0.00322973
0.00322458
0.00321942
0.00321424
0.00320901
0.00320371
0.0031983
0.00319274
0.00318699
0.00318096
0.00317453
0.00316749
0.0031596
0.00314993
0.00313873
0.00311389
0.00648513
0.00601296
0.00564982
0.00536033
0.00512404
0.00492773
0.00476232
0.0046213
0.00449984
0.00439431
0.00430194
0.00422054
0.00414838
0.00408406
0.00402646
0.00397463
0.00392782
0.00388537
0.00384674
0.00381146
0.00377916
0.00374949
0.00372216
0.00369693
0.00367357
0.00365191
0.00363177
0.003613
0.00359548
0.00357909
0.00356374
0.00354932
0.00353575
0.00352295
0.00351086
0.00349941
0.00348855
0.00347821
0.00346834
0.00345891
0.00344986
0.00344115
0.00343276
0.00342464
0.00341676
0.0034091
0.00340163
0.00339433
0.00338719
0.00338018
0.0033733
0.00336653
0.00335986
0.0033533
0.00334683
0.00334045
0.00333415
0.00332795
0.00332183
0.0033158
0.00330985
0.00330399
0.00329821
0.00329252
0.00328692
0.0032814
0.00327596
0.0032706
0.00326531
0.00326009
0.00325494
0.00324984
0.00324479
0.00323978
0.0032348
0.00322983
0.00322486
0.00321986
0.00321482
0.0032097
0.00320448
0.00319912
0.00319356
0.00318773
0.00318151
0.00317471
0.00316709
0.00315774
0.00314694
0.003123
0.00648507
0.00601283
0.00564962
0.00536005
0.00512368
0.0049273
0.00476182
0.00462072
0.00449919
0.00439361
0.00430119
0.00421975
0.00414756
0.00408323
0.00402561
0.00397379
0.00392697
0.00388452
0.00384589
0.00381061
0.00377831
0.00374864
0.00372131
0.00369608
0.00367273
0.00365107
0.00363094
0.00361219
0.0035947
0.00357834
0.00356302
0.00354865
0.00353514
0.00352241
0.00351039
0.00349902
0.00348825
0.003478
0.00346824
0.00345892
0.00344998
0.00344139
0.00343311
0.0034251
0.00341734
0.00340979
0.00340243
0.00339523
0.00338818
0.00338126
0.00337446
0.00336777
0.00336118
0.00335467
0.00334826
0.00334192
0.00333567
0.00332951
0.00332342
0.00331741
0.00331149
0.00330565
0.00329989
0.00329421
0.00328861
0.0032831
0.00327766
0.00327229
0.003267
0.00326177
0.00325659
0.00325147
0.00324639
0.00324134
0.00323631
0.00323128
0.00322624
0.00322115
0.003216
0.00321075
0.00320537
0.00319983
0.00319407
0.00318801
0.00318155
0.00317449
0.00316661
0.00315702
0.00314599
0.00312193
0.00648503
0.00601272
0.00564945
0.00535982
0.00512338
0.00492693
0.00476138
0.00462021
0.00449861
0.00439296
0.00430049
0.00421901
0.0041468
0.00408246
0.00402484
0.00397302
0.0039262
0.00388376
0.00384513
0.00380986
0.00377756
0.0037479
0.00372057
0.00369535
0.00367201
0.00365037
0.00363025
0.00361153
0.00359407
0.00357775
0.00356248
0.00354816
0.00353472
0.00352207
0.00351014
0.00349887
0.00348821
0.00347808
0.00346845
0.00345925
0.00345045
0.003442
0.00343386
0.003426
0.00341837
0.00341096
0.00340373
0.00339667
0.00338975
0.00338295
0.00337626
0.00336968
0.00336319
0.00335679
0.00335046
0.00334422
0.00333806
0.00333198
0.00332597
0.00332004
0.0033142
0.00330843
0.00330274
0.00329714
0.00329161
0.00328615
0.00328078
0.00327547
0.00327023
0.00326504
0.00325991
0.00325483
0.00324977
0.00324474
0.00323971
0.00323467
0.00322959
0.00322445
0.00321923
0.00321388
0.00320836
0.00320264
0.00319667
0.00319038
0.00318366
0.00317635
0.00316822
0.00315842
0.00314722
0.00312317
0.00648498
0.00601261
0.00564927
0.00535956
0.00512304
0.00492651
0.00476086
0.0046196
0.00449791
0.00439219
0.00429967
0.00421817
0.00414595
0.00408161
0.00402401
0.00397219
0.00392539
0.00388294
0.00384431
0.00380904
0.00377673
0.00374706
0.00371973
0.0036945
0.00367116
0.00364952
0.00362942
0.00361072
0.00359329
0.00357702
0.00356182
0.00354758
0.00353423
0.00352168
0.00350988
0.00349876
0.00348825
0.0034783
0.00346885
0.00345985
0.00345126
0.00344302
0.00343511
0.00342747
0.00342008
0.00341289
0.0034059
0.00339906
0.00339237
0.0033858
0.00337934
0.00337297
0.0033667
0.00336052
0.00335441
0.00334839
0.00334244
0.00333658
0.0033308
0.0033251
0.00331948
0.00331395
0.0033085
0.00330315
0.00329787
0.00329269
0.00328758
0.00328255
0.0032776
0.00327271
0.00326788
0.00326311
0.00325837
0.00325366
0.00324896
0.00324426
0.00323953
0.00323474
0.00322987
0.00322488
0.00321972
0.00321437
0.00320879
0.00320292
0.00319671
0.00318999
0.0031826
0.00317378
0.00316375
0.00314185
0.00648493
0.0060125
0.00564909
0.00535931
0.0051227
0.00492607
0.00476031
0.00461892
0.0044971
0.00439124
0.0042986
0.00421704
0.00414479
0.00408044
0.00402285
0.00397105
0.00392426
0.00388182
0.0038432
0.00380794
0.00377563
0.00374595
0.00371863
0.0036934
0.00367008
0.00364846
0.0036284
0.00360975
0.00359239
0.00357622
0.00356112
0.00354702
0.00353384
0.00352149
0.0035099
0.00349903
0.00348879
0.00347913
0.00347
0.00346134
0.0034531
0.00344524
0.00343771
0.00343044
0.0034234
0.00341657
0.00340993
0.00340345
0.00339711
0.00339091
0.00338481
0.00337882
0.00337292
0.0033671
0.00336137
0.00335573
0.00335017
0.0033447
0.00333931
0.00333402
0.00332882
0.00332371
0.00331871
0.00331381
0.00330901
0.00330432
0.00329973
0.00329524
0.00329086
0.00328657
0.00328237
0.00327827
0.00327425
0.00327031
0.00326643
0.00326261
0.00325882
0.00325503
0.00325123
0.00324736
0.00324338
0.00323926
0.00323499
0.00323054
0.0032259
0.00322097
0.00321568
0.00320951
0.00320243
0.00318569
0.00648488
0.00601239
0.0056489
0.00535904
0.00512234
0.0049256
0.00475972
0.00461818
0.00449621
0.00439021
0.00429751
0.00421596
0.00414377
0.00407948
0.00402192
0.00397014
0.00392335
0.00388088
0.0038422
0.00380685
0.00377445
0.00374468
0.00371725
0.00369194
0.00366853
0.00364686
0.00362678
0.00360814
0.00359083
0.00357474
0.00355978
0.00354586
0.00353286
0.00352073
0.00350939
0.00349878
0.00348883
0.00347949
0.00347069
0.00346236
0.00345446
0.00344692
0.0034397
0.00343274
0.00342602
0.00341949
0.00341313
0.00340692
0.00340082
0.00339484
0.00338895
0.00338316
0.00337746
0.00337184
0.00336632
0.00336089
0.00335556
0.00335032
0.00334518
0.00334014
0.00333521
0.00333039
0.00332568
0.00332107
0.00331658
0.00331219
0.00330791
0.00330373
0.00329966
0.00329568
0.00329178
0.00328798
0.00328425
0.00328058
0.00327696
0.00327338
0.00326981
0.00326623
0.00326259
0.00325884
0.00325492
0.0032508
0.00324651
0.00324204
0.00323737
0.00323247
0.00322735
0.00322182
0.00321717
0.0032081
0.00648484
0.00601228
0.00564871
0.00535876
0.00512194
0.00492505
0.00475897
0.00461717
0.00449481
0.00438835
0.00429585
0.00421526
0.00414438
0.00408135
0.00402474
0.00397346
0.00392671
0.00388387
0.00384448
0.00380818
0.00377467
0.00374372
0.00371512
0.0036887
0.00366429
0.00364175
0.00362094
0.00360172
0.00358398
0.00356759
0.00355245
0.00353845
0.0035255
0.00351351
0.0035024
0.00349207
0.00348245
0.00347345
0.00346498
0.00345694
0.00344927
0.00344191
0.0034348
0.00342791
0.00342119
0.00341461
0.00340818
0.00340188
0.00339571
0.00338965
0.0033837
0.00337785
0.0033721
0.00336644
0.00336087
0.0033554
0.00335004
0.00334478
0.00333962
0.00333458
0.00332965
0.00332484
0.00332014
0.00331555
0.00331109
0.00330674
0.0033025
0.00329838
0.00329437
0.00329047
0.00328668
0.00328298
0.00327938
0.00327586
0.00327242
0.00326904
0.00326571
0.0032624
0.00325906
0.00325558
0.00325183
0.00324787
0.00324381
0.00323966
0.00323537
0.00323092
0.00322629
0.00322137
0.00321721
0.00321052
0.00648479
0.00601216
0.00564853
0.00535848
0.00512155
0.00492451
0.00475824
0.00461619
0.00449348
0.00438676
0.00435478
0.00433908
0.00431493
0.00427782
0.00422989
0.00417488
0.00411629
0.0040568
0.00399836
0.00394227
0.00388935
0.00384009
0.00379472
0.00375328
0.00371571
0.00368183
0.00365138
0.003624
0.0035993
0.00357686
0.00355621
0.0035368
0.00352026
0.00350638
0.00349454
0.00348423
0.00347506
0.00346673
0.00345902
0.00345177
0.00344483
0.00343812
0.00343155
0.00342511
0.00341897
0.00341323
0.00340785
0.0034028
0.00339803
0.00339349
0.00338915
0.00338496
0.0033809
0.00337696
0.00337313
0.00336941
0.00336579
0.00336227
0.00335884
0.00335552
0.00335229
0.00334916
0.00334612
0.00334317
0.00334032
0.00333756
0.00333488
0.0033323
0.00332981
0.0033274
0.00332509
0.00332288
0.00332075
0.00331871
0.00331675
0.00331486
0.00331303
0.00331121
0.0033094
0.00330738
0.00329811
0.00328725
0.0032767
0.00326699
0.00325817
0.0032501
0.0032426
0.00323533
0.00322904
0.00322043
0.00648475
0.00601205
0.00564833
0.00535818
0.00512111
0.00492385
0.0047572
0.00461449
0.00448995
0.00438977
0.00774241
0.00847623
0.00847103
0.00821821
0.00789801
0.00757874
0.00728537
0.00702574
0.00680085
0.00660915
0.00644818
0.00631523
0.00620751
0.00612221
0.00605648
0.00600747
0.00597233
0.00594829
0.00593277
0.00592338
0.00591812
0.00591526
0.00591423
0.005915
0.00591713
0.00592002
0.00592315
0.00592617
0.00592892
0.00593135
0.00593354
0.00593567
0.00593753
0.00593918
0.00594061
0.00594204
0.0059438
0.00594622
0.00594964
0.00595429
0.00596031
0.0059678
0.00597685
0.0059875
0.0059997
0.00601344
0.00602876
0.0060457
0.00606425
0.00608439
0.00610611
0.00612934
0.00615404
0.00618014
0.00620756
0.00623622
0.00626602
0.00629686
0.00632861
0.00636113
0.00639429
0.00642796
0.00646207
0.00649654
0.0065313
0.00656641
0.00660225
0.00663958
0.00668344
0.00672551
0.0053765
0.00458017
0.00408755
0.0037734
0.00356925
0.00343489
0.00334558
0.00328514
0.0032443
0.00321109
0.0064847
0.00601195
0.00564815
0.00535791
0.00512072
0.00492333
0.00475649
0.00461354
0.00448867
0.00438816
0.00774219
0.00847757
0.00847052
0.00821336
0.00788736
0.00756139
0.00726088
0.00699399
0.00676197
0.00656349
0.00639629
0.00625781
0.00614545
0.00605651
0.00598825
0.00593783
0.0059024
0.00587909
0.00586515
0.00585802
0.00585539
0.00585531
0.00585617
0.00585672
0.00585607
0.00585358
0.0058488
0.00584145
0.00583136
0.00581849
0.00580283
0.0057845
0.00576406
0.00574167
0.00571756
0.00569201
0.00566533
0.00563783
0.00560971
0.00558116
0.00555241
0.00552368
0.00549517
0.0054671
0.00543969
0.00541324
0.00538799
0.00536414
0.00534194
0.00532169
0.00530369
0.00528827
0.00527575
0.00526643
0.00526061
0.00525855
0.00526052
0.00526671
0.00527726
0.00529227
0.00531176
0.00533569
0.00536392
0.00539625
0.00543255
0.00547268
0.00551686
0.00556519
0.00562241
0.00567806
0.0047351
0.00415541
0.00378322
0.0035374
0.00337249
0.00326104
0.00318542
0.00313276
0.00309505
0.00305605
0.00648466
0.00601184
0.00564797
0.00535764
0.00512034
0.0049228
0.00475578
0.00461255
0.0044873
0.00438629
0.00773474
0.00847056
0.00846511
0.00820948
0.00788458
0.00755922
0.00725886
0.00699178
0.0067594
0.00656055
0.00639314
0.00625478
0.006143
0.00605525
0.00598886
0.00594107
0.00590899
0.00588971
0.0058804
0.00587839
0.00588128
0.00588701
0.00589388
0.00590057
0.00590611
0.00590985
0.00591135
0.00591034
0.00590669
0.00590038
0.00589144
0.00587997
0.00586611
0.00585006
0.00583202
0.00581223
0.00579096
0.00576847
0.00574499
0.00572076
0.00569599
0.00567084
0.00564544
0.00561986
0.00559416
0.00556824
0.00554206
0.00551563
0.0054889
0.0054618
0.00543425
0.00540621
0.00537761
0.0053484
0.00531856
0.00528808
0.00525695
0.0052252
0.00519291
0.00516018
0.00512714
0.00509401
0.00506106
0.00502866
0.00499727
0.00496751
0.00494033
0.00491653
0.00490052
0.00488153
0.00409781
0.00363186
0.00334126
0.00315228
0.00302505
0.00293693
0.00287456
0.00282759
0.00279044
0.00274191
0.00648462
0.00601174
0.00564781
0.0053574
0.00512002
0.00492238
0.00475524
0.00461188
0.00448649
0.00438533
0.00773217
0.00846812
0.008463
0.0082075
0.00788254
0.00755693
0.00725621
0.00698872
0.00675593
0.00655671
0.00638901
0.00625048
0.00613869
0.00605111
0.0059851
0.0059379
0.00590663
0.00588839
0.00588031
0.00587972
0.00588418
0.00589162
0.00590033
0.00590898
0.0059166
0.00592251
0.00592625
0.00592749
0.00592608
0.00592194
0.00591508
0.00590556
0.00589354
0.0058792
0.00586282
0.00584475
0.00582538
0.00580508
0.00578423
0.00576315
0.00574216
0.00572151
0.00570222
0.00568432
0.00566768
0.00565211
0.00563746
0.00562364
0.00561057
0.00559827
0.0055868
0.0055762
0.00556646
0.00555755
0.00554942
0.00554202
0.00553528
0.0055291
0.00552336
0.00551791
0.00551261
0.00550729
0.00550178
0.00549592
0.00548959
0.00548278
0.00547583
0.00546946
0.00546859
0.00547528
0.00461668
0.00412783
0.00382949
0.00363392
0.00349566
0.00339045
0.00331277
0.00324909
0.00319246
0.00312384
0.00648458
0.00601164
0.00564765
0.00535718
0.00511972
0.004922
0.00475476
0.00461129
0.00448577
0.00438447
0.00772899
0.00846446
0.00845931
0.00820391
0.00787903
0.00755345
0.00725267
0.00698505
0.00675209
0.00655269
0.00638481
0.00624617
0.00613434
0.00604682
0.00598099
0.00593409
0.00590326
0.00588557
0.00587815
0.00587831
0.0058836
0.00589195
0.00590164
0.00591135
0.00592008
0.00592713
0.00593201
0.00593435
0.00593392
0.00593055
0.00592418
0.0059148
0.00590253
0.00588753
0.00587013
0.00585072
0.00582975
0.00580765
0.00578485
0.00576173
0.00573863
0.00571581
0.0056935
0.00567186
0.005651
0.00563099
0.00561189
0.00559371
0.00557692
0.00556161
0.00554764
0.00553483
0.00552302
0.00551213
0.0055021
0.00549297
0.00548482
0.00547774
0.00547179
0.00546703
0.00546355
0.00546147
0.0054609
0.00546201
0.00546499
0.00547017
0.00547818
0.00548997
0.00551046
0.00554135
0.00467947
0.00419935
0.0039168
0.00374154
0.00362661
0.00354637
0.00348592
0.00343524
0.00338661
0.00332301
0.00648454
0.00601155
0.0056475
0.00535698
0.00511946
0.00492168
0.00475438
0.00461084
0.00448525
0.00438387
0.00772678
0.00846162
0.00845606
0.00820032
0.00787514
0.00754926
0.00724822
0.00698036
0.0067472
0.00654763
0.00637966
0.00624098
0.00612918
0.00604178
0.00597614
0.00592949
0.00589897
0.00588164
0.00587461
0.00587518
0.0058809
0.0058897
0.00589987
0.0059101
0.00591941
0.0059271
0.00593265
0.00593562
0.00593567
0.00593256
0.00592606
0.00591607
0.00590262
0.00588589
0.00586623
0.00584412
0.00582011
0.00579473
0.0057685
0.00574186
0.00571518
0.00568876
0.00566281
0.00563747
0.00561287
0.00558905
0.00556603
0.00554378
0.00552226
0.00550143
0.00548123
0.00546161
0.00544249
0.0054238
0.00540549
0.0053875
0.00536976
0.00535225
0.00533494
0.00531779
0.00530081
0.00528402
0.00526746
0.0052512
0.00523537
0.00522018
0.00520604
0.0051933
0.00518532
0.00517638
0.00438495
0.00393604
0.00366614
0.00349735
0.00338762
0.00331141
0.00325412
0.00320583
0.00316187
0.00310313
0.0064845
0.00601146
0.00564736
0.00535679
0.00511924
0.00492142
0.00475409
0.00461054
0.00448493
0.00438355
0.00772562
0.00845974
0.00845343
0.00819693
0.00787102
0.00754448
0.00724288
0.00697456
0.00674107
0.00654131
0.00637327
0.00623465
0.00612304
0.00603592
0.00597062
0.00592434
0.00589418
0.00587715
0.00587035
0.00587106
0.00587686
0.0058857
0.00589592
0.00590628
0.00591585
0.00592396
0.00593009
0.00593374
0.00593444
0.00593174
0.0059252
0.00591453
0.00589964
0.00588069
0.00585808
0.00583248
0.00580455
0.005775
0.00574446
0.00571346
0.00568242
0.00565167
0.00562141
0.00559179
0.00556286
0.00553465
0.0055071
0.00548017
0.00545378
0.00542784
0.00540225
0.00537693
0.00535176
0.00532666
0.0053015
0.00527619
0.00525065
0.00522478
0.00519852
0.0051718
0.00514457
0.0051168
0.0050885
0.00505971
0.00503053
0.00500114
0.00497196
0.00494321
0.00491821
0.00488646
0.00411039
0.00365859
0.00338255
0.00320521
0.00308423
0.00299577
0.00292606
0.00286532
0.0028098
0.00273433
0.00648446
0.00601137
0.00564723
0.00535663
0.00511904
0.0049212
0.00475386
0.00461031
0.0044847
0.00438329
0.0077236
0.00845626
0.0084488
0.00819151
0.00786512
0.00753836
0.00723671
0.0069685
0.00673523
0.00653582
0.00636829
0.00623036
0.00611963
0.00603358
0.00596951
0.00592456
0.00589573
0.00587997
0.00587437
0.0058762
0.00588311
0.00589317
0.00590487
0.00591708
0.00592901
0.00594004
0.00594959
0.00595698
0.00596143
0.00596204
0.00595791
0.00594836
0.00593316
0.00591251
0.00588711
0.00585796
0.00582617
0.00579281
0.00575879
0.00572486
0.00569158
0.00565931
0.00562827
0.00559858
0.00557022
0.00554314
0.00551724
0.00549242
0.00546861
0.00544572
0.00542367
0.0054024
0.00538183
0.00536189
0.00534253
0.00532372
0.00530543
0.00528766
0.00527042
0.00525374
0.00523768
0.00522231
0.00520777
0.00519421
0.00518188
0.0051711
0.00516248
0.00515655
0.00515729
0.00515557
0.00433532
0.00385678
0.00356431
0.00337731
0.00325217
0.00316432
0.00309938
0.00304727
0.00300292
0.00294738
0.00648442
0.00601129
0.00564712
0.00535648
0.0051189
0.00492108
0.00475381
0.00461039
0.00448503
0.00438397
0.00772679
0.00845788
0.00844808
0.00818863
0.00786059
0.00753296
0.00723146
0.00696461
0.00673416
0.00653922
0.00637791
0.00624794
0.00614671
0.00607133
0.00601865
0.00598529
0.00596785
0.005963
0.00596773
0.00597939
0.00599582
0.00601536
0.00603673
0.00605903
0.00608155
0.0061036
0.00612435
0.00614265
0.00615697
0.00616545
0.00616625
0.00615802
0.0061403
0.00611362
0.00607941
0.00603963
0.00599645
0.0059519
0.00590776
0.00586545
0.00582598
0.00579001
0.00575788
0.00572966
0.00570525
0.00568441
0.00566692
0.00565258
0.00564111
0.0056322
0.00562548
0.00562064
0.00561741
0.00561556
0.00561493
0.00561537
0.00561682
0.00561921
0.00562252
0.00562673
0.00563186
0.00563796
0.00564509
0.00565337
0.00566299
0.00567425
0.00568781
0.00570465
0.00572963
0.00576253
0.0048149
0.004256
0.00390659
0.00367757
0.00352149
0.00341141
0.00333106
0.00326923
0.00321859
0.00316649
0.00648438
0.00601121
0.005647
0.00535635
0.00511875
0.00492095
0.00475373
0.0046104
0.00448522
0.00438427
0.0077212
0.00844923
0.00844077
0.00818501
0.00786489
0.00755109
0.0072704
0.00703168
0.0068362
0.00668179
0.00656471
0.00648041
0.00642399
0.00639058
0.00637553
0.00637468
0.00638444
0.00640185
0.00642462
0.00645101
0.0064798
0.00651016
0.00654155
0.00657365
0.00660616
0.00663869
0.00667053
0.00670039
0.00672629
0.00674545
0.00675464
0.00675108
0.00673313
0.00670062
0.00665488
0.00659833
0.00653401
0.00646515
0.00639498
0.00632648
0.00626225
0.00620443
0.00615462
0.00611384
0.00608255
0.00606063
0.00604877
0.00604671
0.00605269
0.00606454
0.00608033
0.00609856
0.00611816
0.00613843
0.00615895
0.00617946
0.00619983
0.00622001
0.00624001
0.00625984
0.00627955
0.0062992
0.0063189
0.00633875
0.00635897
0.00637988
0.00640226
0.00642743
0.00646115
0.00649966
0.00527128
0.00454956
0.00410299
0.00381593
0.00362605
0.00349745
0.00340845
0.00334503
0.0032988
0.00325862
0.00648435
0.00601113
0.0056469
0.00535623
0.00511867
0.00492096
0.00475398
0.0046112
0.00448772
0.00438012
0.00430467
0.00423909
0.00417179
0.00410927
0.00405077
0.00399608
0.00394516
0.00389794
0.00385436
0.00381428
0.00377754
0.00374399
0.00371342
0.00368565
0.00366048
0.00363773
0.0036172
0.00359874
0.00358219
0.00356741
0.00355429
0.00354274
0.00353271
0.00352416
0.00351709
0.00351156
0.00350757
0.00350513
0.00350412
0.0035043
0.0035052
0.00350627
0.00350693
0.00350669
0.00350524
0.0035023
0.00349785
0.00349198
0.00348489
0.00347679
0.00346793
0.00345859
0.003449
0.0034394
0.00342999
0.00342092
0.00341234
0.00340434
0.00339697
0.00339027
0.00338421
0.00337877
0.00337388
0.00336949
0.00336555
0.00336199
0.00335876
0.0033558
0.00335307
0.00335052
0.00334812
0.00334584
0.00334364
0.0033415
0.00333941
0.00333733
0.00333525
0.00333313
0.00333096
0.00332854
0.00331981
0.00330957
0.00329948
0.00329
0.00328122
0.00327303
0.00326534
0.00325786
0.0032513
0.00324195
0.00648431
0.00601105
0.00564678
0.0053561
0.00511852
0.00492083
0.0047539
0.0046112
0.00448788
0.0043804
0.00428626
0.00420339
0.00412992
0.00406433
0.00400542
0.00395223
0.00390398
0.00386004
0.00381988
0.00378307
0.00374927
0.00371816
0.00368951
0.00366311
0.00363877
0.00361635
0.00359573
0.00357681
0.00355949
0.00354371
0.00352944
0.00351663
0.00350531
0.00349549
0.00348726
0.00348076
0.00347611
0.00347339
0.00347261
0.00347347
0.00347536
0.00347751
0.00347916
0.00347966
0.00347868
0.0034761
0.00347193
0.00346632
0.00345945
0.00345156
0.00344289
0.00343368
0.00342412
0.00341441
0.00340468
0.00339509
0.00338573
0.0033767
0.00336808
0.00335992
0.00335225
0.0033451
0.00333848
0.00333238
0.00332679
0.00332169
0.00331704
0.00331281
0.00330897
0.00330548
0.00330229
0.00329937
0.00329669
0.00329419
0.00329185
0.00328962
0.00328748
0.00328537
0.00328325
0.00328097
0.00327841
0.0032756
0.00327266
0.0032696
0.00326641
0.00326305
0.00325953
0.00325567
0.00325234
0.00324563
0.00648428
0.00601097
0.00564667
0.00535596
0.00511837
0.0049207
0.00475383
0.00461125
0.00448816
0.00438097
0.004287
0.00420409
0.00413044
0.00406461
0.00400543
0.00395195
0.00390341
0.00385916
0.00381867
0.00378152
0.00374733
0.0037158
0.00368669
0.00365978
0.00363491
0.00361193
0.00359071
0.00357117
0.00355321
0.0035368
0.00352188
0.00350846
0.00349655
0.00348624
0.00347767
0.00347106
0.00346671
0.00346491
0.00346584
0.00346921
0.00347411
0.00347938
0.00348385
0.00348663
0.00348728
0.00348568
0.00348191
0.00347618
0.00346878
0.00346003
0.00345032
0.00343992
0.0034291
0.003418
0.00340686
0.00339589
0.00338526
0.00337511
0.00336554
0.00335661
0.00334837
0.00334086
0.00333407
0.003328
0.00332264
0.00331796
0.00331391
0.00331046
0.00330756
0.00330515
0.00330318
0.00330159
0.00330032
0.00329933
0.00329854
0.0032979
0.00329735
0.00329683
0.00329626
0.00329557
0.00329465
0.00329347
0.00329201
0.00329026
0.00328818
0.00328568
0.00328269
0.00327882
0.00327447
0.00326338
0.00648424
0.00601089
0.00564654
0.00535579
0.00511818
0.00492047
0.00475358
0.00461098
0.00448785
0.0043806
0.00428647
0.00420331
0.00412937
0.00406323
0.00400373
0.00394994
0.00390108
0.00385651
0.0038157
0.0037782
0.00374366
0.00371177
0.00368228
0.00365498
0.00362971
0.00360633
0.0035847
0.00356474
0.00354637
0.00352953
0.00351418
0.00350033
0.003488
0.00347731
0.00346845
0.00346179
0.00345783
0.00345722
0.00346066
0.00346801
0.00347803
0.00348884
0.00349845
0.00350547
0.00350931
0.00350986
0.00350734
0.00350211
0.00349463
0.00348547
0.0034752
0.00346416
0.0034527
0.00344111
0.00342963
0.00341849
0.00340788
0.00339794
0.0033888
0.00338056
0.00337327
0.00336698
0.00336169
0.00335739
0.00335404
0.00335157
0.0033499
0.00334894
0.00334857
0.00334867
0.00334912
0.00334979
0.00335057
0.00335132
0.00335195
0.00335236
0.00335244
0.00335214
0.00335136
0.00335004
0.00334812
0.00334553
0.00334227
0.00333832
0.00333364
0.00332817
0.00332184
0.00331417
0.00330539
0.00328869
0.0064842
0.00601081
0.00564641
0.00535562
0.00511796
0.00492022
0.00475329
0.00461065
0.00448749
0.00438018
0.00428595
0.00420263
0.00412846
0.00406205
0.00400224
0.0039481
0.00389886
0.00385388
0.00381263
0.00377469
0.00373968
0.00370731
0.00367733
0.00364955
0.00362379
0.00359992
0.00357781
0.00355738
0.00353853
0.00352121
0.00350537
0.00349098
0.00347809
0.00346679
0.00345733
0.00345021
0.0034462
0.00344665
0.00345397
0.00346948
0.00349192
0.0035175
0.00354161
0.00356143
0.00357585
0.00358482
0.00358883
0.00358868
0.0035852
0.00357913
0.00357235
0.0035654
0.0035587
0.00355261
0.00354736
0.00354313
0.00353997
0.00353791
0.00353688
0.00353676
0.0035374
0.00353861
0.00354021
0.00354198
0.00354375
0.00354533
0.00354657
0.00354733
0.0035475
0.00354699
0.00354575
0.00354371
0.00354086
0.00353718
0.00353267
0.00352736
0.00352124
0.00351436
0.00350672
0.00349834
0.00348925
0.00347945
0.00346896
0.0034578
0.00344594
0.00343335
0.00341993
0.00340521
0.00338937
0.00336586
0.00648417
0.00601073
0.00564628
0.00535543
0.00511772
0.00491991
0.00475291
0.00461018
0.00448691
0.00437947
0.00428506
0.0042015
0.00412706
0.00406033
0.00400017
0.00394565
0.00389601
0.0038506
0.0038089
0.00377048
0.00373497
0.00370209
0.00367158
0.00364326
0.00361696
0.00359255
0.00356991
0.00354895
0.00352957
0.00351171
0.00349528
0.00348026
0.00346663
0.00345447
0.003444
0.00343587
0.0034311
0.00343247
0.00345047
0.00349528
0.00356544
0.00364604
0.00372171
0.00378648
0.00383878
0.00387949
0.00391042
0.00393353
0.00395055
0.00396295
0.00397139
0.00397888
0.00398494
0.00398913
0.00399115
0.00399084
0.00398822
0.0039834
0.00397658
0.003968
0.00395793
0.0039466
0.00393424
0.00392104
0.00390716
0.00389272
0.00387782
0.00386255
0.00384695
0.00383107
0.00381493
0.00379857
0.003782
0.00376523
0.00374828
0.00373115
0.00371386
0.00369641
0.0036788
0.00366103
0.00364309
0.00362498
0.00360668
0.00358816
0.00356937
0.00355023
0.0035306
0.00350999
0.00348842
0.0034601
0.00648413
0.00601064
0.00564615
0.00535524
0.00511746
0.00491958
0.0047525
0.00460967
0.00448628
0.0043787
0.00428411
0.00420033
0.00412562
0.00405858
0.00399808
0.00394317
0.00389308
0.00384719
0.00380498
0.00376599
0.0037299
0.00369639
0.00366524
0.00363627
0.00360931
0.00358425
0.00356098
0.00353939
0.00351939
0.00350088
0.00348377
0.00346798
0.00345341
0.00344005
0.00342793
0.00341776
0.00341058
0.00341252
0.00348124
0.00366445
0.00392851
0.00419172
0.0044067
0.00456846
0.00468145
0.00475454
0.00479633
0.00481418
0.00481404
0.00480064
0.00477741
0.00474574
0.00470802
0.00466589
0.00462093
0.0045745
0.00452766
0.00448125
0.00443584
0.00439181
0.0043494
0.00430869
0.00426971
0.0042324
0.00419668
0.00416245
0.00412958
0.00409794
0.00406742
0.0040379
0.00400928
0.00398145
0.00395434
0.00392787
0.00390198
0.00387661
0.00385173
0.00382728
0.00380323
0.00377955
0.0037562
0.00373315
0.00371035
0.00368775
0.00366527
0.00364279
0.00362015
0.00359684
0.00357269
0.00354285
0.0064841
0.00601056
0.00564601
0.00535505
0.0051172
0.00491923
0.00475205
0.00460911
0.00448558
0.00437782
0.00428302
0.00419899
0.00412399
0.00405662
0.00399572
0.00394038
0.00388982
0.0038434
0.00380061
0.003761
0.00372423
0.00369001
0.00365813
0.0036284
0.00360068
0.00357487
0.00355087
0.00352857
0.00350788
0.00348868
0.00347086
0.00345429
0.00343881
0.00342428
0.00341043
0.00339783
0.00338686
0.00339563
0.00373244
0.00441992
0.00512293
0.00561956
0.00589733
0.00601478
0.00602195
0.0059604
0.00585973
0.00573977
0.00561298
0.00548661
0.00536405
0.00524686
0.00513651
0.00503405
0.00493969
0.00485315
0.00477389
0.00470122
0.00463445
0.00457294
0.00451619
0.00446399
0.0044156
0.00437025
0.00432741
0.0042867
0.00424784
0.00421063
0.00417488
0.00414044
0.0041072
0.00407505
0.00404391
0.0040137
0.00398439
0.00395592
0.00392826
0.00390139
0.00387529
0.00384991
0.00382524
0.00380121
0.00377776
0.00375479
0.00373214
0.00370961
0.00368722
0.00366464
0.00364135
0.00361359
0.00648407
0.00601049
0.00564589
0.00535486
0.00511694
0.00491889
0.0047516
0.00460854
0.00448486
0.00437692
0.00428191
0.00419763
0.00412233
0.0040546
0.0039933
0.0039375
0.00388642
0.00383941
0.00379596
0.00375564
0.00371808
0.00368303
0.00365026
0.00361963
0.003591
0.0035643
0.00353943
0.00351631
0.00349484
0.00347488
0.00345632
0.00343901
0.0034227
0.00340712
0.00339141
0.00337559
0.00335665
0.00339849
0.00464758
0.0060896
0.00701569
0.0074051
0.00741924
0.00722525
0.00693778
0.00662539
0.00632442
0.00605122
0.00581103
0.00560334
0.00542522
0.00527274
0.00514197
0.00502911
0.00493086
0.00484473
0.00476944
0.00470267
0.0046419
0.00458567
0.0045331
0.00448361
0.0044368
0.00439236
0.00435003
0.00430961
0.00427091
0.00423379
0.00419811
0.00416374
0.0041306
0.00409861
0.00406771
0.00403788
0.00400909
0.00398134
0.00395462
0.00392896
0.00390434
0.00388076
0.00385819
0.00383658
0.00381585
0.00379589
0.0037765
0.00375744
0.00373826
0.00371839
0.00369559
0.00366909
0.00648405
0.00601042
0.00564578
0.00535469
0.0051167
0.00491856
0.00475117
0.00460797
0.00448414
0.00437601
0.00428077
0.00419622
0.0041206
0.0040525
0.00399077
0.00393446
0.00388281
0.00383515
0.00379096
0.00374981
0.00371135
0.00367532
0.00364151
0.0036098
0.00358009
0.00355234
0.00352648
0.00350245
0.00348012
0.0034594
0.00344018
0.00342244
0.00340611
0.00339116
0.00337686
0.00336323
0.00334598
0.00339244
0.00474674
0.00627917
0.00724998
0.00761778
0.00761332
0.00739893
0.00708339
0.00673783
0.00640244
0.00609653
0.00582724
0.00559527
0.00539797
0.00523156
0.00509203
0.00497711
0.00488052
0.00479722
0.00472384
0.004658
0.00459807
0.00454286
0.00449154
0.00444349
0.00439826
0.00435547
0.00431482
0.00427605
0.00423893