/*--------------------------------*- C++ -*----------------------------------*\
| =========                 |                                                 |
| \\      /  F ield         | OpenFOAM: The Open Source CFD Toolbox           |
|  \\    /   O peration     | Version:  v2012                                 |
|   \\  /    A nd           | Website:  www.openfoam.com                      |
|    \\/     M anipulation  |                                                 |
\*---------------------------------------------------------------------------*/
FoamFile
{
    version     2.0;
    format      ascii;
    class       volScalarField;
    location    "400/air";
    object      qin;
}
// * * * * * * * * * * * * * * * * * * * * * * * * * * * * * * * * * * * * * //

dimensions      [1 0 -3 0 0 0 0];


internalField   uniform 0;

boundaryField
{
    inlet
    {
        type            calculated;
        value           nonuniform List<scalar> 
3200
(
582.284
586.437
584.747
583.45
582.368
581.333
580.31
579.291
578.276
577.264
576.262
575.271
574.293
573.33
572.38
571.44
570.511
569.595
568.695
567.81
566.938
566.075
565.22
564.371
563.53
562.705
561.91
561.167
560.506
559.958
559.545
559.281
559.16
559.149
559.187
559.212
559.2
559.165
559.13
559.099
559.067
559.028
558.991
558.965
558.947
558.93
558.913
558.895
558.874
558.85
558.823
558.793
558.764
558.739
558.719
558.698
558.663
558.596
558.486
558.332
558.154
557.981
557.845
557.758
557.7
557.624
557.473
557.211
556.851
556.461
556.148
556.013
556.108
556.403
556.796
557.125
557.186
556.717
555.303
549.686
572.804
584.549
584.202
582.566
581.181
579.967
578.858
577.807
576.784
575.786
574.822
573.899
573.012
572.138
571.252
570.339
569.405
568.471
567.558
566.67
565.806
564.96
564.131
563.316
562.516
561.739
560.996
560.307
559.697
559.191
558.808
558.566
558.461
558.457
558.492
558.516
558.518
558.51
558.5
558.488
558.469
558.443
558.421
558.414
558.413
558.412
558.412
558.411
558.408
558.402
558.393
558.381
558.369
558.359
558.353
558.349
558.342
558.325
558.291
558.238
558.177
558.122
558.088
558.078
558.071
558.023
557.882
557.608
557.196
556.683
556.135
555.62
555.175
554.779
554.347
553.718
552.711
551.293
549.253
542.721
563.545
579.087
581.725
580.822
579.65
578.502
577.393
576.344
575.357
574.43
573.557
572.723
571.902
571.069
570.208
569.319
568.422
567.535
566.667
565.809
564.948
564.076
563.2
562.335
561.5
560.716
560
559.366
558.83
558.403
558.097
557.915
557.846
557.852
557.887
557.913
557.924
557.927
557.928
557.929
557.926
557.921
557.922
557.936
557.958
557.982
558.009
558.037
558.065
558.093
558.12
558.147
558.175
558.207
558.243
558.281
558.317
558.34
558.338
558.306
558.242
558.151
558.037
557.894
557.694
557.393
556.94
556.299
555.476
554.53
553.556
552.661
551.91
551.283
550.663
549.891
548.967
548.11
546.467
539.702
556.505
572.88
578.322
578.659
578.063
577.268
576.316
575.294
574.286
573.323
572.429
571.571
570.701
569.802
568.891
567.994
567.129
566.292
565.458
564.593
563.65
562.629
561.583
560.573
559.651
558.855
558.204
557.695
557.319
557.065
556.922
556.873
556.892
556.944
556.995
557.027
557.044
557.053
557.061
557.07
557.08
557.094
557.117
557.153
557.199
557.254
557.315
557.384
557.457
557.534
557.613
557.692
557.767
557.834
557.887
557.918
557.917
557.873
557.77
557.597
557.345
557.015
556.611
556.139
555.592
554.958
554.221
553.387
552.493
551.613
550.83
550.196
549.692
549.219
548.652
547.997
547.513
547.195
545.151
537.98
551.296
566.98
574.541
576.068
575.932
575.492
574.814
573.945
572.982
571.988
571.02
570.067
569.096
568.099
567.095
566.115
565.185
564.303
563.431
562.524
561.527
560.459
559.392
558.406
557.572
556.922
556.451
556.127
555.914
555.785
555.722
555.71
555.731
555.768
555.803
555.831
555.855
555.875
555.895
555.918
555.947
555.984
556.035
556.1
556.177
556.264
556.36
556.461
556.563
556.661
556.748
556.817
556.857
556.861
556.817
556.718
556.555
556.319
556.003
555.605
555.13
554.592
554.016
553.426
552.842
552.273
551.721
551.189
550.679
550.199
549.738
549.265
548.731
548.11
547.473
547.064
547.092
546.839
543.855
536.704
547.193
561.236
570.222
572.909
573.12
572.932
572.581
572.033
571.323
570.503
569.54
568.422
567.24
566.067
564.91
563.78
562.715
561.739
560.838
559.951
559.089
558.286
557.525
556.821
556.238
555.813
555.521
555.306
555.122
554.95
554.793
554.668
554.586
554.546
554.541
554.56
554.595
554.637
554.682
554.729
554.781
554.843
554.916
554.998
555.085
555.173
555.256
555.328
555.383
555.413
555.41
555.367
555.276
555.133
554.935
554.683
554.378
554.023
553.623
553.185
552.725
552.268
551.845
551.484
551.203
550.991
550.814
550.613
550.325
549.895
549.3
548.565
547.77
547.064
546.659
546.756
547.122
546.366
542.383
535.757
543.837
555.773
565.572
569.532
570.21
570.248
570.216
570.038
569.695
569.241
568.437
567.156
565.668
564.237
562.9
561.634
560.474
559.462
558.614
557.826
557.211
556.848
556.551
556.177
555.78
555.45
555.185
554.933
554.653
554.345
554.041
553.784
553.604
553.506
553.474
553.489
553.53
553.582
553.638
553.691
553.742
553.794
553.846
553.893
553.931
553.953
553.954
553.929
553.874
553.787
553.667
553.512
553.324
553.108
552.869
552.615
552.354
552.091
551.832
551.583
551.355
551.165
551.032
550.965
550.948
550.928
550.824
550.546
550.03
549.275
548.361
547.439
546.693
546.301
546.397
546.911
547.146
545.512
540.844
535.085
541.25
551.021
561.039
566.318
567.66
567.928
568.164
568.298
568.253
568.151
567.622
566.346
564.659
563.021
561.555
560.222
559.038
558.048
557.284
556.589
556.139
556.099
556.158
555.995
555.629
555.227
554.858
554.498
554.116
553.718
553.343
553.035
552.824
552.707
552.662
552.66
552.679
552.705
552.73
552.745
552.748
552.74
552.719
552.687
552.64
552.576
552.492
552.39
552.271
552.14
551.999
551.855
551.711
551.573
551.446
551.337
551.249
551.185
551.142
551.117
551.106
551.108
551.117
551.112
551.048
550.858
550.472
549.847
549.004
548.042
547.121
546.411
546.052
546.119
546.59
547.146
546.835
544.298
539.395
534.625
539.379
547.17
556.837
563.307
565.47
565.949
566.369
566.773
566.945
567.033
566.743
565.653
564.007
562.334
560.85
559.527
558.361
557.392
556.666
556.006
555.572
555.601
555.801
555.736
555.342
554.826
554.336
553.889
553.46
553.047
552.67
552.36
552.136
551.995
551.914
551.865
551.828
551.795
551.759
551.713
551.656
551.584
551.501
551.413
551.322
551.232
551.144
551.06
550.984
550.92
550.87
550.837
550.82
550.82
550.84
550.88
550.944
551.027
551.117
551.196
551.241
551.226
551.125
550.91
550.549
550.019
549.319
548.49
547.619
546.828
546.237
545.933
545.959
546.311
546.865
547.135
546.109
542.878
538.128
534.307
537.998
544.105
552.916
560.3
563.422
564.131
564.615
565.264
565.692
565.881
565.695
564.8
563.323
561.748
560.35
559.121
558.032
557.104
556.389
555.738
555.234
555.135
555.282
555.242
554.852
554.278
553.71
553.21
552.762
552.349
551.973
551.65
551.394
551.204
551.067
550.961
550.869
550.784
550.706
550.63
550.553
550.474
550.4
550.337
550.288
550.255
550.236
550.234
550.248
550.278
550.323
550.382
550.454
550.54
550.642
550.761
550.89
551.015
551.11
551.136
551.053
550.831
550.454
549.929
549.283
548.559
547.818
547.126
546.547
546.133
545.914
545.906
546.124
546.544
546.965
546.779
545.049
541.407
537.069
534.073
536.947
541.703
549.258
557.139
561.33
562.4
562.815
563.579
564.326
564.713
564.596
563.796
562.42
560.909
559.595
558.518
557.609
556.829
556.193
555.585
555.012
554.707
554.676
554.596
554.236
553.666
553.063
552.522
552.045
551.611
551.216
550.866
550.573
550.341
550.164
550.026
549.913
549.818
549.741
549.677
549.625
549.592
549.589
549.618
549.668
549.725
549.783
549.846
549.913
549.984
550.057
550.133
550.218
550.321
550.439
550.564
550.672
550.73
550.695
550.525
550.194
549.698
549.071
548.374
547.683
547.07
546.582
546.234
546.015
545.903
545.889
545.997
546.262
546.633
546.803
546.09
543.763
539.989
536.206
533.88
536.181
539.909
545.941
553.788
559.036
560.708
561.001
561.623
562.6
563.342
563.451
562.745
561.362
559.762
558.391
557.404
556.732
556.234
555.807
555.326
554.758
554.288
554.044
553.865
553.523
552.988
552.382
551.812
551.305
550.85
550.439
550.076
549.77
549.525
549.34
549.205
549.107
549.036
548.986
548.949
548.931
548.949
549.012
549.109
549.217
549.317
549.405
549.485
549.563
549.639
549.71
549.781
549.857
549.94
550.017
550.063
550.042
549.916
549.655
549.243
548.692
548.049
547.385
546.784
546.315
546.01
545.858
545.807
545.802
545.811
545.856
545.996
546.259
546.516
546.355
545.106
542.348
538.684
535.507
533.698
535.602
538.601
543.036
550.3
556.399
558.927
559.225
559.472
560.404
561.496
562.019
561.578
560.244
558.491
556.91
555.86
555.353
555.155
555.005
554.72
554.251
553.733
553.337
553.047
552.703
552.208
551.624
551.049
550.535
550.084
549.685
549.335
549.039
548.801
548.624
548.505
548.435
548.4
548.382
548.376
548.396
548.439
548.48
548.495
548.492
548.496
548.529
548.595
548.684
548.791
548.913
549.043
549.157
549.224
549.208
549.087
548.849
548.496
548.039
547.501
546.926
546.373
545.908
545.584
545.421
545.398
545.459
545.536
545.585
545.613
545.682
545.85
546.081
546.153
545.598
543.863
540.873
537.511
534.926
533.505
535.007
537.56
540.535
546.77
553.323
556.847
557.462
557.339
557.943
559.148
560.088
560.088
559.009
557.224
555.409
554.154
553.628
553.58
553.63
553.544
553.258
552.837
552.416
552.075
551.738
551.295
550.752
550.195
549.693
549.263
548.895
548.575
548.297
548.069
547.899
547.794
547.753
547.755
547.777
547.826
547.904
547.938
547.82
547.531
547.177
546.905
546.795
546.827
546.943
547.117
547.352
547.624
547.861
547.964
547.871
547.586
547.166
546.684
546.199
545.751
545.367
545.074
544.891
544.827
544.866
544.969
545.083
545.163
545.206
545.254
545.367
545.551
545.688
545.494
544.525
542.409
539.386
536.454
534.403
533.276
534.244
536.613
538.422
543.358
549.857
554.314
555.638
555.463
555.663
556.661
557.774
558.198
557.552
555.982
554.109
552.656
551.952
551.811
551.852
551.85
551.726
551.464
551.127
550.828
550.559
550.213
549.752
549.235
548.748
548.331
547.983
547.686
547.426
547.209
547.048
546.96
546.949
546.989
547.064
547.194
547.332
547.289
546.879
546.126
545.294
544.684
544.419
544.416
544.543
544.756
545.082
545.507
545.915
546.14
546.081
545.764
545.314
544.876
544.546
544.362
544.314
544.37
544.498
544.663
544.836
544.994
545.127
545.244
545.378
545.564
545.787
545.946
545.845
545.194
543.649
541.08
538.02
535.459
533.795
532.902
533.31
535.712
536.711
540.271
546.205
551.313
553.616
553.836
553.76
554.283
555.186
555.811
555.658
554.62
553.099
551.731
550.885
550.479
550.255
550.089
549.924
549.7
549.421
549.196
549.052
548.877
548.574
548.154
547.702
547.288
546.936
546.641
546.391
546.188
546.045
545.981
545.998
546.068
546.197
546.399
546.528
546.29
545.498
544.294
543.102
542.316
542.027
542.042
542.151
542.313
542.614
543.089
543.622
544.013
544.124
543.971
543.693
543.448
543.332
543.356
543.482
543.656
543.84
544.01
544.155
544.273
544.378
544.5
544.674
544.901
545.105
545.133
544.787
543.815
541.965
539.305
536.536
534.488
533.192
532.5
532.316
534.889
535.412
537.681
542.644
547.958
551.235
552.167
552.015
551.932
552.279
552.789
553.038
552.747
551.996
551.12
550.36
549.713
549.116
548.609
548.189
547.809
547.46
547.241
547.197
547.214
547.135
546.897
546.547
546.171
545.827
545.534
545.295
545.107
544.971
544.905
544.91
544.971
545.126
545.344
545.351
544.798
543.612
542.116
540.842
540.166
540.056
540.182
540.269
540.303
540.445
540.809
541.329
541.825
542.149
542.28
542.303
542.326
542.407
542.549
542.722
542.896
543.054
543.19
543.304
543.405
543.518
543.676
543.894
544.118
544.218
544.039
543.419
542.153
540.079
537.452
535.057
533.485
532.463
531.948
531.342
534.124
534.425
535.599
539.359
544.402
548.412
550.196
550.231
549.656
549.328
549.453
549.836
550.162
550.235
550.026
549.56
548.868
548.051
547.281
546.605
546.012
545.506
545.188
545.134
545.261
545.387
545.373
545.206
544.953
544.687
544.456
544.264
544.091
543.914
543.755
543.638
543.598
543.707
543.867
543.681
542.803
541.328
539.748
538.624
538.23
538.392
538.675
538.753
538.632
538.54
538.669
539.032
539.513
539.996
540.435
540.831
541.184
541.479
541.704
541.867
541.993
542.104
542.211
542.317
542.434
542.587
542.794
543.024
543.168
543.085
542.662
541.782
540.268
538.051
535.561
533.583
532.413
531.577
531.221
530.368
533.309
533.554
533.885
536.423
540.837
545.254
547.916
548.474
547.783
546.956
546.596
546.793
547.325
547.87
548.145
548.001
547.461
546.696
545.904
545.144
544.428
543.781
543.308
543.126
543.221
543.437
543.599
543.632
543.564
543.466
543.383
543.295
543.132
542.842
542.463
542.086
541.836
541.82
541.873
541.521
540.456
538.903
537.431
536.539
536.38
536.709
537.07
537.122
536.86
536.542
536.422
536.582
536.976
537.548
538.262
539.051
539.795
540.369
540.723
540.896
540.977
541.041
541.126
541.243
541.4
541.609
541.848
542.028
542.013
541.702
541.045
539.947
538.234
535.956
533.691
532.132
531.272
530.545
530.322
529.3
532.319
532.615
532.38
533.845
537.436
541.927
545.39
546.763
546.41
545.419
544.661
544.494
544.85
545.418
545.835
545.883
545.573
545.049
544.443
543.782
543.073
542.355
541.741
541.38
541.334
541.507
541.728
541.883
541.971
542.05
542.145
542.171
541.987
541.522
540.852
540.163
539.681
539.529
539.49
539.075
538.032
536.641
535.428
534.754
534.663
534.939
535.21
535.168
534.791
534.334
534.076
534.123
534.458
535.07
535.969
537.07
538.17
539.043
539.574
539.802
539.864
539.889
539.954
540.091
540.303
540.564
540.789
540.843
540.614
540.08
539.238
537.962
536.093
533.832
531.868
530.705
530.056
529.381
529.267
527.983
531.042
531.493
530.956
531.527
534.083
538.175
542.177
544.57
545.048
544.318
543.378
542.846
542.825
543.081
543.298
543.306
543.142
542.91
542.626
542.271
541.778
541.151
540.504
540.007
539.78
539.803
539.941
540.062
540.146
540.249
540.363
540.342
540.001
539.299
538.399
537.576
537.091
537.008
537.031
536.701
535.859
534.801
533.944
533.464
533.306
533.326
533.327
533.127
532.736
532.382
532.283
532.464
532.845
533.424
534.272
535.375
536.555
537.555
538.206
538.512
538.599
538.622
538.695
538.865
539.112
539.346
539.425
539.232
538.754
538.042
537.054
535.6
533.613
531.507
529.974
529.194
528.66
528.001
527.982
526.63
529.689
530.339
529.73
529.689
531.178
534.391
538.365
541.572
543.108
543.015
542.197
541.471
541.11
540.985
540.86
540.642
540.421
540.31
540.279
540.321
540.239
539.918
539.43
538.935
538.586
538.438
538.413
538.385
538.309
538.223
538.101
537.783
537.121
536.178
535.22
534.558
534.395
534.652
534.933
534.814
534.226
533.49
532.933
532.609
532.388
532.171
531.913
531.601
531.343
531.338
531.668
532.186
532.689
533.146
533.691
534.424
535.282
536.082
536.664
536.99
537.139
537.235
537.377
537.586
537.791
537.855
537.657
537.186
536.529
535.712
534.579
532.934
530.922
529.143
528.114
527.632
527.116
526.466
526.524
525.539
528.52
529.333
528.782
528.452
529.14
531.331
534.747
538.251
540.678
541.39
540.967
540.275
539.729
539.336
538.951
538.51
538.105
537.878
537.844
538.113
538.407
538.464
538.269
537.932
537.591
537.349
537.195
537.027
536.769
536.422
535.949
535.232
534.214
533.068
532.132
531.711
531.915
532.543
533.136
533.286
532.962
532.474
532.116
531.912
531.729
531.474
531.147
530.833
530.732
531.044
531.748
532.553
533.155
533.491
533.721
534.018
534.419
534.841
535.189
535.433
535.616
535.805
536.03
536.244
536.328
536.163
535.731
535.125
534.427
533.544
532.235
530.434
528.537
527.18
526.576
526.236
525.672
525.047
525.161
524.586
527.41
528.354
527.905
527.502
527.703
528.996
531.587
534.904
537.885
539.398
539.57
539.119
538.531
537.981
537.454
536.893
536.325
535.871
535.606
535.819
536.26
536.576
536.681
536.61
536.439
536.255
536.078
535.826
535.41
534.806
533.998
532.936
531.645
530.355
529.424
529.138
529.544
530.392
531.223
531.657
531.647
531.437
531.273
531.205
531.148
531.025
530.804
530.554
530.495
530.866
531.648
532.524
533.156
533.443
533.52
533.553
533.613
533.685
533.755
533.844
533.995
534.218
534.46
534.603
534.53
534.209
533.723
533.175
532.528
531.55
530.043
528.179
526.536
525.615
525.301
524.969
524.339
523.762
523.915
523.614
526.257
527.334
527.01
526.657
526.643
527.291
529.028
531.809
534.933
537.079
537.934
537.908
537.424
536.799
536.19
535.591
534.953
534.318
533.759
533.711
534.035
534.389
534.677
534.888
535.009
535.038
534.945
534.64
534.05
533.193
532.126
530.873
529.497
528.205
527.315
527.082
527.534
528.426
529.361
530.019
530.332
530.443
530.514
530.599
530.688
530.749
530.705
530.533
530.398
530.568
531.125
531.85
532.435
532.739
532.819
532.777
532.671
532.526
532.392
532.344
532.424
532.593
532.733
532.718
532.499
532.148
531.778
531.388
530.769
529.643
527.985
526.209
524.927
524.392
524.222
523.818
523.136
522.629
522.806
522.582
525.082
526.316
526.135
525.875
525.817
526.078
527.087
529.156
532.041
534.528
536.011
536.531
536.308
535.696
535.025
534.404
533.772
533.084
532.338
532.02
532.098
532.305
532.6
532.987
533.379
533.652
533.663
533.291
532.513
531.453
530.273
529.064
527.867
526.798
526.077
525.911
526.326
527.122
527.991
528.709
529.222
529.588
529.864
530.074
530.257
530.438
530.538
530.445
530.223
530.124
530.339
530.802
531.284
531.613
531.751
531.729
531.586
531.374
531.183
531.096
531.122
531.176
531.129
530.913
530.588
530.288
530.064
529.751
529.035
527.724
526.026
524.499
523.632
523.394
523.259
522.764
522.074
521.656
521.846
521.552
523.972
525.385
525.352
525.171
525.133
525.199
525.676
527.028
529.404
531.893
533.81
534.895
535.078
534.613
533.922
533.269
532.666
532.033
531.278
530.828
530.702
530.699
530.85
531.214
531.687
532.049
532.066
531.598
530.694
529.589
528.535
527.642
526.885
526.249
525.828
525.76
526.081
526.659
527.294
527.863
528.351
528.779
529.131
529.382
529.574
529.772
529.932
529.919
529.704
529.466
529.432
529.66
530.019
530.338
530.518
530.54
530.439
530.289
530.176
530.144
530.147
530.073
529.836
529.468
529.107
528.866
528.671
528.233
527.267
525.775
524.165
522.991
522.515
522.472
522.312
521.754
521.114
520.808
521.022
520.61
523.003
524.593
524.696
524.55
524.524
524.51
524.656
525.407
527.153
529.346
531.424
532.981
533.672
533.523
532.921
532.248
531.653
531.106
530.461
530.036
529.835
529.671
529.604
529.75
530.04
530.246
530.12
529.553
528.663
527.742
527.057
526.677
526.489
526.358
526.259
526.27
526.443
526.731
527.037
527.314
527.585
527.871
528.136
528.329
528.466
528.609
528.758
528.816
528.71
528.52
528.42
528.516
528.765
529.04
529.233
529.308
529.302
529.28
529.293
529.324
529.291
529.106
528.764
528.372
528.067
527.853
527.527
526.785
525.497
523.891
522.472
521.661
521.479
521.516
521.294
520.716
520.178
520.005
520.274
519.822
522.202
523.941
524.149
523.986
523.934
523.892
523.872
524.196
525.328
527.039
529.008
530.864
532.077
532.393
532.025
531.384
530.761
530.247
529.718
529.397
529.237
529.004
528.728
528.552
528.473
528.339
527.979
527.355
526.622
526.05
525.838
525.975
526.277
526.542
526.679
526.727
526.759
526.797
526.816
526.809
526.81
526.854
526.932
527.006
527.064
527.14
527.253
527.358
527.389
527.344
527.305
527.36
527.524
527.737
527.928
528.066
528.168
528.262
528.343
528.357
528.241
527.982
527.658
527.389
527.213
526.986
526.432
525.343
523.805
522.216
521.052
520.543
520.514
520.518
520.202
519.625
519.207
519.166
519.519
519.206
521.545
523.382
523.657
523.439
523.327
523.273
523.2
523.275
523.909
525.085
526.745
528.686
530.327
531.156
531.134
530.589
529.91
529.342
528.857
528.633
528.566
528.348
527.928
527.441
526.962
526.463
525.893
525.284
524.778
524.556
524.708
525.154
525.695
526.14
526.401
526.502
526.508
526.464
526.367
526.21
526.023
525.856
525.744
525.69
525.681
525.716
525.804
525.932
526.053
526.127
526.159
526.199
526.289
526.434
526.608
526.79
526.959
527.087
527.126
527.032
526.812
526.547
526.357
526.297
526.257
525.974
525.186
523.854
522.255
520.845
519.978
519.688
519.689
519.576
519.137
518.551
518.231
518.285
518.717
518.725
520.967
522.846
523.154
522.868
522.683
522.621
522.559
522.53
522.827
523.526
524.775
526.586
528.45
529.697
530.031
529.625
528.896
528.225
527.719
527.554
527.588
527.434
526.945
526.235
525.455
524.702
524.036
523.513
523.21
523.192
523.453
523.898
524.39
524.821
525.154
525.398
525.572
525.669
525.659
525.521
525.278
524.998
524.759
524.609
524.553
524.575
524.66
524.794
524.941
525.049
525.092
525.094
525.105
525.168
525.291
525.447
525.583
525.633
525.545
525.326
525.065
524.897
524.914
525.052
525.074
524.677
523.71
522.311
520.867
519.779
519.231
519.102
519.071
518.813
518.246
517.635
517.364
517.455
517.91
518.313
520.401
522.278
522.608
522.268
522.019
521.952
521.928
521.888
522.004
522.347
523.166
524.659
526.471
527.909
528.498
528.245
527.522
526.791
526.271
526.157
526.286
526.214
525.714
524.884
523.944
523.093
522.452
522.054
521.876
521.874
521.994
522.192
522.451
522.784
523.209
523.706
524.204
524.605
524.82
524.814
524.618
524.319
524.026
523.822
523.736
523.754
523.846
523.978
524.108
524.188
524.19
524.129
524.055
524.016
524.025
524.051
524.033
523.913
523.686
523.421
523.251
523.288
523.525
523.772
523.73
523.166
522.09
520.786
519.649
518.952
518.713
518.717
518.652
518.277
517.618
516.988
516.731
516.806
517.203
517.899
519.802
521.657
522.019
521.657
521.368
521.297
521.312
521.308
521.355
521.469
521.893
522.933
524.422
525.77
526.454
526.354
525.747
525.087
524.642
524.614
524.837
524.841
524.357
523.482
522.495
521.662
521.118
520.839
520.706
520.597
520.461
520.34
520.348
520.604
521.158
521.939
522.787
523.509
523.969
524.125
524.025
523.769
523.483
523.264
523.159
523.166
523.254
523.376
523.48
523.52
523.473
523.354
523.197
523.035
522.869
522.673
522.414
522.096
521.784
521.598
521.65
521.953
522.362
522.595
522.38
521.625
520.512
519.398
518.616
518.286
518.303
518.413
518.336
517.906
517.219
516.607
516.362
516.401
516.682
517.459
519.174
521.006
521.423
521.074
520.767
520.693
520.731
520.764
520.8
520.781
520.87
521.402
522.385
523.419
524.056
524.115
523.754
523.332
523.087
523.196
523.505
523.564
523.099
522.221
521.251
520.485
520.042
519.845
519.705
519.472
519.125
518.784
518.65
518.895
519.563
520.539
521.604
522.522
523.142
523.427
523.433
523.264
523.034
522.836
522.726
522.714
522.781
522.884
522.966
522.983
522.911
522.754
522.524
522.228
521.856
521.404
520.9
520.43
520.127
520.121
520.448
520.988
521.468
521.579
521.142
520.23
519.148
518.258
517.784
517.724
517.904
518.074
517.995
517.556
516.901
516.358
516.152
516.171
516.331
517
518.543
520.359
520.853
520.541
520.231
520.147
520.187
520.233
520.266
520.167
519.995
520.054
520.486
521.111
521.632
521.867
521.854
521.802
521.849
522.123
522.498
522.579
522.128
521.275
520.355
519.662
519.29
519.126
518.966
518.667
518.243
517.854
517.717
517.991
518.691
519.681
520.74
521.655
522.3
522.654
522.761
522.706
522.575
522.439
522.346
522.321
522.363
522.442
522.508
522.515
522.433
522.246
521.943
521.513
520.953
520.295
519.632
519.118
518.917
519.122
519.671
520.325
520.749
520.672
520.039
519.055
518.076
517.402
517.147
517.231
517.468
517.634
517.53
517.092
516.498
516.057
515.92
515.952
516.033
516.545
517.935
519.739
520.323
520.061
519.749
519.647
519.666
519.694
519.706
519.55
519.199
518.897
518.87
519.128
519.537
519.955
520.32
520.678
521.041
521.47
521.876
521.951
521.515
520.715
519.874
519.255
518.922
518.757
518.579
518.284
517.911
517.608
517.551
517.841
518.46
519.281
520.131
520.865
521.416
521.773
521.96
522.026
522.02
521.979
521.936
521.925
521.96
522.026
522.081
522.077
521.97
521.73
521.336
520.783
520.094
519.343
518.667
518.239
518.2
518.574
519.21
519.812
520.06
519.775
519.023
518.076
517.26
516.781
516.66
516.784
516.991
517.09
516.92
516.462
515.923
515.582
515.524
515.588
515.649
516.109
517.361
519.154
519.826
519.617
519.3
519.172
519.156
519.142
519.11
518.911
518.461
517.949
517.633
517.646
517.986
518.562
519.251
519.968
520.601
521.147
521.554
521.609
521.202
520.489
519.759
519.224
518.921
518.742
518.552
518.297
518.025
517.85
517.873
518.133
518.582
519.13
519.665
520.13
520.518
520.827
521.051
521.209
521.321
521.39
521.431
521.476
521.544
521.626
521.679
521.648
521.48
521.141
520.627
519.966
519.225
518.514
517.972
517.738
517.88
518.336
518.903
519.298
519.287
518.816
518.036
517.221
516.612
516.305
516.262
516.372
516.504
516.5
516.232
515.726
515.214
514.944
514.944
515.036
515.112
515.678
516.798
518.574
519.332
519.176
518.85
518.688
518.629
518.561
518.473
518.24
517.766
517.191
516.763
516.664
516.967
517.63
518.521
519.476
520.295
520.918
521.316
521.364
521.013
520.421
519.832
519.401
519.132
518.937
518.732
518.504
518.306
518.21
518.259
518.44
518.699
518.977
519.217
519.431
519.654
519.88
520.081
520.268
520.451
520.613
520.75
520.88
521.016
521.141
521.203
521.133
520.874
520.408
519.768
519.037
518.328
517.766
517.457
517.459
517.745
518.178
518.545
518.636
518.345
517.735
517.007
516.382
515.992
515.842
515.858
515.949
516.011
515.905
515.536
514.976
514.473
514.244
514.268
514.365
514.459
515.312
516.323
518.084
518.91
518.796
518.462
518.273
518.18
518.068
517.932
517.684
517.232
516.686
516.261
516.136
516.411
517.093
518.069
519.151
520.086
520.758
521.151
521.199
520.906
520.431
519.981
519.655
519.432
519.233
519.012
518.785
518.609
518.531
518.556
518.646
518.749
518.831
518.865
518.901
518.997
519.135
519.273
519.428
519.629
519.856
520.089
520.326
520.563
520.76
520.845
520.734
520.37
519.76
518.99
518.203
517.556
517.176
517.117
517.345
517.734
518.089
518.216
517.997
517.458
516.762
516.12
515.686
515.491
515.47
515.541
515.63
515.647
515.464
515.009
514.396
513.887
513.667
513.684
513.761
513.851
514.686
515.553
517.269
518.199
518.168
517.826
517.585
517.432
517.252
517.046
516.78
516.398
515.981
515.673
515.578
515.77
516.301
517.145
518.173
519.136
519.869
520.329
520.478
520.341
520.061
519.794
519.595
519.418
519.198
518.914
518.606
518.338
518.155
518.063
518.033
518.029
518.029
518.019
518.036
518.081
518.104
518.095
518.11
518.209
518.402
518.664
518.956
519.236
519.447
519.514
519.358
518.937
518.291
517.549
516.888
516.471
516.382
516.591
516.961
517.284
517.363
517.087
516.487
515.73
515.031
514.56
514.365
514.387
514.533
514.73
514.909
514.966
514.773
514.306
513.727
513.289
513.112
513.112
513.144
513.195
)
;
    }
    outlet
    {
        type            calculated;
        value           nonuniform List<scalar> 
3200
(
619.947
619.805
615.618
612.67
610.035
607.165
603.712
599.793
596.712
595.229
595.386
597.395
599.79
595.654
592.155
593.179
594.716
591.681
587.591
584.249
582.207
581.2
581.06
580.222
578.387
576.103
573.937
572.033
570.419
569.246
568.761
569.227
570.752
572.53
572.785
572.252
571.53
570.778
570.154
569.761
569.613
569.671
569.832
569.916
569.747
569.329
568.78
568.217
567.733
567.41
567.333
567.566
568.248
569.653
572.022
574.515
575.521
575.819
575.997
576.101
576.122
576.086
576.027
575.986
575.992
576.064
576.186
576.315
576.374
576.303
576.099
575.796
575.469
575.225
575.162
575.332
575.713
576.281
577.302
577.713
601.029
613.415
611.883
609.239
606.719
604.03
600.94
597.568
594.892
593.546
593.589
595.133
596.899
593.838
590.889
591.129
591.99
589.682
586.145
583.013
580.971
579.827
579.387
578.488
576.784
574.649
572.555
570.684
569.104
567.973
567.484
567.813
569.027
570.433
570.843
570.551
569.983
569.328
568.761
568.392
568.244
568.276
568.39
568.418
568.211
567.764
567.185
566.594
566.091
565.771
565.713
565.977
566.667
567.984
570.073
572.233
573.236
573.578
573.74
573.816
573.815
573.761
573.688
573.641
573.652
573.737
573.874
574.008
574.061
573.976
573.758
573.457
573.164
572.983
572.956
573.015
573.009
572.951
572.44
567.141
586.527
605.506
607.945
606.558
604.589
602.204
599.41
596.403
593.914
592.503
592.254
593.266
594.454
592.171
589.733
589.365
589.609
587.853
584.933
582.078
580.059
578.762
578.021
577.029
575.458
573.519
571.57
569.791
568.272
567.159
566.607
566.74
567.602
568.673
569.138
569.064
568.703
568.209
567.743
567.409
567.246
567.232
567.288
567.276
567.064
566.639
566.092
565.54
565.082
564.806
564.778
565.046
565.697
566.888
568.705
570.578
571.586
572.019
572.228
572.324
572.334
572.282
572.204
572.141
572.131
572.19
572.303
572.423
572.483
572.435
572.275
572.031
571.739
571.41
570.987
570.41
569.824
569.491
567.908
560.175
576.368
597.284
603.025
603.096
602.028
600.306
597.968
595.283
592.917
591.489
590.979
591.469
592.134
590.315
588.338
587.71
587.558
586.075
583.588
580.956
579.036
577.745
576.865
575.82
574.356
572.587
570.773
569.08
567.602
566.478
565.849
565.82
566.411
567.242
567.708
567.765
567.554
567.186
566.796
566.488
566.312
566.27
566.301
566.289
566.115
565.756
565.287
564.812
564.413
564.162
564.113
564.329
564.918
566.002
567.608
569.256
570.24
570.738
571.003
571.139
571.176
571.136
571.056
570.981
570.959
571.014
571.139
571.289
571.39
571.367
571.168
570.763
570.138
569.298
568.307
567.41
567.033
566.895
564.094
555.451
569.282
589.815
598.039
599.288
598.874
597.794
596.049
593.889
591.88
590.643
589.866
589.694
589.834
588.396
586.835
586.048
585.549
584.155
581.995
579.573
577.821
576.689
575.823
574.779
573.403
571.759
570.035
568.391
566.933
565.798
565.12
564.979
565.371
566.006
566.429
566.533
566.387
566.08
565.734
565.455
565.308
565.296
565.359
565.392
565.284
565.001
564.597
564.167
563.787
563.521
563.432
563.614
564.178
565.183
566.613
568.075
569.028
569.567
569.875
570.054
570.132
570.124
570.066
570.011
570.011
570.096
570.249
570.399
570.435
570.24
569.736
568.904
567.807
566.596
565.552
565.091
565.336
564.912
560.586
552.109
564.105
583.109
593.199
595.476
595.346
594.619
593.389
591.858
590.445
589.634
588.729
587.929
587.609
586.482
585.223
584.259
583.42
582.041
580.197
578.05
576.508
575.593
574.823
573.809
572.494
570.93
569.256
567.632
566.186
565.061
564.375
564.171
564.409
564.866
565.196
565.274
565.131
564.849
564.55
564.339
564.274
564.342
564.471
564.562
564.513
564.278
563.893
563.454
563.054
562.769
562.678
562.884
563.46
564.393
565.656
566.965
567.883
568.438
568.77
568.985
569.113
569.165