/*--------------------------------*- C++ -*----------------------------------*\
| =========                 |                                                 |
| \\      /  F ield         | OpenFOAM: The Open Source CFD Toolbox           |
|  \\    /   O peration     | Version:  v2012                                 |
|   \\  /    A nd           | Website:  www.openfoam.com                      |
|    \\/     M anipulation  |                                                 |
\*---------------------------------------------------------------------------*/
FoamFile
{
    version     2.0;
    format      ascii;
    class       volScalarField;
    location    "400/air";
    object      qr;
}
// * * * * * * * * * * * * * * * * * * * * * * * * * * * * * * * * * * * * * //

dimensions      [1 0 -3 0 0 0 0];


internalField   uniform 0;

boundaryField
{
    inlet
    {
        type            calculated;
        value           nonuniform List<scalar> 
3200
(
73.7728
77.926
76.2356
74.9392
73.8569
72.8216
71.7987
70.7801
69.7643
68.7531
67.7507
66.7597
65.7821
64.8187
63.8684
62.9289
61.9999
61.0837
60.1833
59.2987
58.4266
57.5639
56.7084
55.8594
55.019
54.1941
53.3987
52.6558
51.9951
51.4467
51.034
50.7693
50.6483
50.6381
50.6762
50.7007
50.6884
50.6541
50.6183
50.5876
50.5555
50.5171
50.48
50.4538
50.4358
50.4189
50.4018
50.3836
50.3629
50.339
50.3115
50.2817
50.2527
50.228
50.208
50.1868
50.1513
50.0846
49.9742
49.8208
49.6424
49.4699
49.3338
49.2462
49.1884
49.1128
48.962
48.6999
48.3393
47.9494
47.6366
47.5019
47.5963
47.8921
48.2846
48.6133
48.6747
48.2052
46.7914
41.175
64.2925
76.038
75.6911
74.0543
72.67
71.4556
70.3465
69.2954
68.2722
67.2742
66.3105
65.3879
64.5003
63.6268
62.7411
61.8278
60.8933
59.9599
59.0468
58.1589
57.2943
56.449
55.6197
54.8045
54.005
53.2273
52.4842
51.7956
51.1858
50.6792
50.2971
50.0548
49.9498
49.946
49.9809
50.0047
50.0067
49.9985
49.9885
49.9765
49.9575
49.9314
49.9101
49.9023
49.9016
49.901
49.9008
49.8997
49.8964
49.8905
49.8815
49.8701
49.8581
49.8481
49.8417
49.8377
49.8311
49.814
49.7795
49.7271
49.6654
49.6102
49.5767
49.5667
49.5595
49.5119
49.3709
49.0969
48.6847
48.1714
47.6235
47.1087
46.6633
46.268
45.8355
45.2067
44.1998
42.7814
40.7413
34.2101
55.0332
70.5762
73.214
72.3111
71.1387
69.9907
68.8821
67.8326
66.846
65.9185
65.0454
64.2115
63.3906
62.5575
61.6964
60.8082
59.9104
59.0236
58.1554
57.2979
56.4364
55.5642
54.6884
53.8235
52.9887
52.2045
51.4883
50.855
50.3182
49.8915
49.5857
49.4041
49.3344
49.3411
49.3753
49.4016
49.4124
49.4155
49.4169
49.4173
49.4144
49.4093
49.4111
49.4251
49.4466
49.4709
49.4977
49.5255
49.5536
49.5814
49.6085
49.6355
49.6637
49.6952
49.7312
49.77
49.8056
49.8283
49.8272
49.7949
49.7307
49.6396
49.5258
49.3823
49.1828
48.882
48.4283
47.7873
46.9648
46.0182
45.0451
44.15
43.3983
42.7718
42.1519
41.3798
40.456
39.5982
37.9561
31.1904
47.9936
64.3691
69.8104
70.1481
69.5516
68.7566
67.8044
66.7825
65.7742
64.812
63.9173
63.0599
62.1899
61.291
60.3797
59.4826
58.6173
57.7809
56.9466
56.0819
55.1383
54.1176
53.0717
52.0613
51.1393
50.3441
49.6927
49.1841
48.8081
48.554
48.4105
48.3614
48.3806
48.4326
48.4833
48.5159
48.5325
48.5419
48.5501
48.5591
48.5691
48.5826
48.6059
48.6419
48.6882
48.7424
48.8042
48.8722
48.9453
49.0223
49.1016
49.1808
49.2562
49.3231
49.3756
49.4064
49.4058
49.3613
49.2589
49.0855
48.8336
48.5033
48.0999
47.6273
47.0809
46.4462
45.7095
44.8752
43.9817
43.1016
42.3184
41.6845
41.181
40.7075
40.1405
39.4858
39.0015
38.6841
36.6392
29.4683
42.7849
58.4689
66.0296
67.5566
67.4202
66.9802
66.303
65.4342
64.4704
63.4765
62.5083
61.5557
60.5851
59.5881
58.5832
57.6034
56.6739
55.7914
54.9195
54.0123
53.016
51.948
50.8802
49.8949
49.0606
48.4107
47.9394
47.6154
47.4029
47.2739
47.2106
47.1984
47.2201
47.2562
47.2915
47.3201
47.3433
47.3637
47.3841
47.4069
47.4352
47.4729
47.5236
47.5882
47.6652
47.7529
47.8489
47.9501
48.0521
48.15
48.2371
48.3055
48.3461
48.3493
48.3059
48.2069
48.0437
47.8078
47.4921
47.0941
46.6186
46.0811
45.5047
44.9147
44.3304
43.7615
43.21
42.6772
42.1682
41.6873
41.2264
40.7534
40.2198
39.5984
38.962
38.5523
38.5804
38.3277
35.3434
28.1922
38.6813
52.7246
61.711
64.398
64.6083
64.4207
64.07
63.5213
62.8114
61.9916
61.0287
59.9103
58.7288
57.5562
56.3984
55.2686
54.204
53.2274
52.3263
51.4397
50.5773
49.7745
49.0139
48.3096
47.727
47.302
47.0094
46.7946
46.6111
46.4387
46.282
46.1567
46.0742
46.0345
46.0295
46.0491
46.0839
46.1259
46.1705
46.2174
46.2699
46.332
46.4049
46.4868
46.5739
46.6616
46.7446
46.8168
46.8717
46.9016
46.8988
46.8555
46.7648
46.6217
46.4238
46.1713
45.8662
45.5114
45.1113
44.6738
44.2141
43.757
43.3335
42.9731
42.6915
42.48
42.3025
42.1019
41.8134
41.3833
40.7887
40.0533
39.2591
38.5525
38.1481
38.2445
38.6103
37.855
33.872
27.2459
35.326
47.2613
57.0606
61.0204
61.6982
61.7362
61.7045
61.5265
61.1834
60.7297
59.9259
58.6444
57.1569
55.7261
54.3885
53.1228
51.9626
50.9509
50.1027
49.315
48.6995
48.3368
48.04
47.6652
47.2689
46.9385
46.6738
46.4218
46.1422
45.8341
45.5301
45.2732
45.0928
44.9944
44.9632
44.9775
45.0183
45.0712
45.1264
45.1795
45.231
45.2827
45.3342
45.3816
45.4195
45.4416
45.4424
45.4174
45.3629
45.2762
45.1555
45.0006
44.8131
44.5968
44.3577
44.1036
43.8422
43.5797
43.3209
43.072
42.8437
42.6536
42.5207
42.4538
42.4363
42.4168
42.313
42.0347
41.5185
40.7636
39.8501
38.9279
38.1814
37.7898
37.8858
38.3995
38.6342
37.0006
32.333
26.574
32.7388
42.5094
52.5281
57.8067
59.1487
59.4164
59.6523
59.7869
59.7418
59.6396
59.111
57.8342
56.1472
54.5092
53.0434
51.7104
50.5266
49.5371
48.7729
48.0775
47.6281
47.5872
47.6471
47.4837
47.1179
46.7155
46.3467
45.9866
45.6043
45.2063
44.8312
44.5241
44.3124
44.1957
44.1507
44.1485
44.1673
44.1939
44.2182
44.2334
44.2367
44.2282
44.2081
44.1757
44.1287
44.0643
43.9809
43.8787
43.76
43.6283
43.488
43.3436
43.1998
43.0616
42.9348
42.8253
42.7378
42.6738
42.631
42.6057
42.5949
42.597
42.6057
42.6004
42.5364
42.3468
41.9607
41.3358
40.493
39.5311
38.6093
37.8999
37.5404
37.6081
38.0791
38.6347
38.3241
35.7867
30.8835
26.1139
30.8681
38.6588
48.3254
54.7961
56.9586
57.4375
57.8572
58.262
58.4341
58.5216
58.2321
57.1418
55.4955
53.8224
52.339
51.0158
49.8496
48.8808
48.1548
47.4949
47.0605
47.0894
47.2902
47.2245
46.831
46.315
45.8244
45.3774
44.9491
44.5352
44.1582
43.8485
43.6247
43.4836
43.4025
43.3535
43.3169
43.2836
43.2472
43.2021
43.1443
43.0727
42.9901
42.9014
42.8108
42.7207
42.6328
42.5492
42.4731
42.4086
42.3588
42.3254
42.3088
42.3091
42.3283
42.369
42.4326
42.5152
42.6054
42.6846
42.7294
42.7148
42.6142
42.3986
42.0377
41.5078
40.808
39.9786
39.1076
38.3165
37.7257
37.4219
37.4478
37.7998
38.3532
38.6241
37.5979
34.3668
29.6162
25.7959
29.4862
35.5939
44.4048
51.7886
54.9108
55.6198
56.1036
56.753
57.1811
57.3696
57.1836
56.2884
54.812
53.2366
51.8382
50.61
49.5211
48.5928
47.878
47.2271
46.7224
46.6232
46.7707
46.7309
46.3406
45.7664
45.1982
44.6984
44.251
43.8377
43.4616
43.1386
42.8822
42.6929
42.5559
42.4496
42.3574
42.273
42.1947
42.119
42.0416
41.9629
41.8885
41.8253
41.7768
41.7433
41.725
41.7225
41.7364
41.7665
41.8115
41.8703
41.9424
42.0288
42.131
42.2493
42.3786
42.504
42.5984
42.6243
42.542
42.3199
41.943
41.4178
40.7712
40.048
39.3068
38.6143
38.0356
37.6218
37.4028
37.395
37.6126
38.0331
38.4539
38.2679
36.5376
32.8957
28.5574
25.5617
28.4352
33.1921
40.7464
48.6275
52.8184
53.8889
54.3034
55.0679
55.8146
56.2012
56.0844
55.2842
53.9087
52.3978
51.0842
50.0064
49.0974
48.318
47.6817
47.0737
46.5011
46.1962
46.1648
46.0843
45.7242
45.1544
44.5518
44.0103
43.5332
43.1001
42.7045
42.3545
42.0614
41.8295
41.6522
41.5144
41.4012
41.3066
41.2295
41.1658
41.1135
41.0806
41.0782
41.107
41.1563
41.2133
41.2721
41.3343
41.4018
41.4731
41.5456
41.6212
41.7069
41.8092
41.9281
42.0529
42.1608
42.2182
42.1832
42.0142
41.6826
41.187
40.5595
39.8624
39.1721
38.5591
38.0706
37.7226
37.5037
37.3915
37.3776
37.4857
37.7503
38.1214
38.2919
37.5787
35.2521
31.4776
27.6944
25.3685
27.6692
31.398
37.4298
45.2772
50.5243
52.1965
52.4898
53.1119
54.0886
54.8311
54.9394
54.2341
52.8502
51.2508
49.8799
48.8931
48.2207
47.7228
47.2959
46.8151
46.2463
45.7762
45.5326
45.3535
45.012
44.4767
43.8709
43.3004
42.7932
42.3385
41.9278
41.5651
41.2586
41.0136
40.8286
40.6936
40.5954
40.5247
40.4743
40.4374
40.4197
40.4378
40.5006
40.5973
40.7053
40.8057
40.8933
40.9737
41.0518
41.1273
41.1987
41.2695
41.3458
41.4287
41.5061
41.5519
41.5307
41.4049
41.1433
40.7312
40.1809
39.5373
38.8733
38.2724
37.8035
37.4991
37.3462
37.2959
37.2908
37.3
37.3447
37.4848
37.7477
38.0051
37.8436
36.5943
33.8363
30.1725
26.9957
25.1868
27.0905
30.0898
34.5242
41.7887
47.8872
50.416
50.7138
50.9609
51.8929
52.9843
53.5072
53.067
51.7323
49.9797
48.3983
47.3491
46.8414
46.6441
46.4933
46.2084
45.7396
45.2216
44.8254
44.536
44.1914
43.697
43.1123
42.5378
42.0238
41.5723
41.1734
40.8241
40.5277
40.2893
40.1122
39.9934
39.924
39.8891
39.8706
39.8649
39.8847
39.9281
39.9686
39.984
39.9805
39.9844
40.0177
40.0835
40.1731
40.28
40.4018
40.5312
40.6461
40.7128
40.6971
40.5757
40.3381
39.9851
39.5274
38.9897
38.4145
37.8616
37.3965
37.0722
36.9092
36.8865
36.9476
37.0248
37.0735
37.1021
37.1709
37.3383
37.5699
37.6415
37.0869
35.3521
32.3614
28.9996
26.4146
24.9937
26.4956
29.0489
32.0237
38.2583
44.8115
48.3358
48.9508
48.828
49.4319
50.6366
51.5767
51.5764
50.4974
48.7127
46.8976
45.6426
45.1163
45.0684
45.1182
45.0326
44.7471
44.3255
43.905
43.5637
43.2269
42.7832
42.2402
41.6834
41.1816
40.7522
40.3837
40.0632
39.7861
39.5575
39.3872
39.2822
39.2416
39.2442
39.2654
39.3144
39.3931
39.4269
39.3091
39.02
38.6655
38.394
38.284
38.3153
38.4313
38.6058
38.8402
39.1128
39.3493
39.4526
39.3595
39.0743
38.6542
38.1725
37.688
37.24
36.8562
36.5623
36.3793
36.3153
36.3548
36.4581
36.5716
36.6521
36.6949
36.7431
36.856
37.0393
37.1765
36.9829
36.014
33.8976
30.8748
27.9429
25.8921
24.7643
25.7323
28.1018
29.9109
34.8463
41.3452
45.8028
47.1267
46.9517
47.1513
48.1493
49.2629
49.6871
49.0405
47.4704
45.598
44.145
43.4404
43.3
43.3409
43.3386
43.2144
42.9524
42.6158
42.3162
42.0475
41.7016
41.2402
40.724
40.2367
39.82
39.4721
39.1745
38.915
38.6976
38.5364
38.4483
38.438
38.478
38.5522
38.6824
38.8206
38.7778
38.3675
37.6151
36.7829
36.1729
35.9076
35.9047
36.0319
36.2448
36.5703
36.9956
37.4036
37.6291
37.5701
37.2531
36.8031
36.3644
36.0351
35.851
35.8022
35.859
35.9864
36.1513
36.3243
36.4825
36.6152
36.7324
36.867
37.0527
37.276
37.4351
37.3338
36.6831
35.1373
32.5685
29.509
26.9475
25.2839
24.3912
24.7988
27.2003
28.1999
31.7597
37.6936
42.8018
45.1052
45.3248
45.2483
45.7721
46.6746
47.2999
47.1468
46.109
44.5878
43.2199
42.3738
41.9679
41.7433
41.5781
41.4128
41.1884
40.9094
40.6848
40.541
40.3655
40.0624
39.6431
39.1905
38.7763
38.4251
38.13
37.8799
37.6771
37.5334
37.4692
37.4869
37.5567
37.686
37.8879
38.017
37.7788
36.9862
35.7826
34.5903
33.8046
33.5153
33.5309
33.6397
33.8018
34.1028
34.5777
35.1108
35.5016
35.6123
35.4594
35.1814
34.9369
34.8206
34.8449
34.9702
35.1451
35.3291
35.4989
35.6435
35.7621
35.8671
35.9888
36.1625
36.3893
36.5932
36.6216
36.2752
35.3035
33.4537
30.7938
28.0244
25.9765
24.6807
23.9884
23.805
26.3779
26.9003
29.17
34.1328
39.4463
42.7238
43.6561
43.5039
43.4211
43.7676
44.2774
44.527
44.2355
43.4842
42.6085
41.8482
41.2019
40.6047
40.0975
39.6777
39.2981
38.9487
38.73
38.686
38.703
38.6241
38.3852
38.0354
37.6597
37.3152
37.0228
36.7835
36.5956
36.4596
36.3935
36.3989
36.4596
36.6144
36.8326
36.8392
36.2866
35.1006
33.6044
32.3303
31.6546
31.5443
31.6711
31.7579
31.7913
31.9338
32.2975
32.8179
33.3141
33.6377
33.7683
33.7916
33.8143
33.8955
34.0373
34.2103
34.3849
34.5432
34.6788
34.7924
34.8935
35.0062
35.1651
35.3829
35.6062
35.7068
35.5278
34.9077
33.6412
31.5677
28.9403
26.5457
24.9733
23.9514
23.4372
22.8303
25.6129
25.9138
27.0875
30.8477
35.8907
39.901
41.6843
41.7197
41.1446
40.8168
40.9417
41.3247
41.6505
41.7235
41.5144
41.0484
40.3562
39.5397
38.7694
38.0935
37.5003
36.9946
36.6771
36.6224
36.7497
36.8754
36.8616
36.6947
36.4413
36.1759
35.9443
35.7525
35.5793
35.4031
35.2434
35.1265
35.0863
35.1957
35.3561
35.1699
34.2918
32.8163
31.2363
30.1125
29.7186
29.8811
30.1633
30.2416
30.1212
30.0289
30.1575
30.5202
31.0013
31.4845
31.9238
32.3198
32.6729
32.9679
33.193
33.3561
33.4817
33.5925
33.6995
33.806
33.9229
34.0756
34.2832
34.5128
34.6567
34.5737
34.1503
33.2709
31.7563
29.5401
27.0495
25.0712
23.9022
23.0659
22.7093
21.8568
24.7974
25.0427
25.374
27.9113
32.3261
36.7425
39.4046
39.963
39.2714
38.4443
38.0851
38.2819
38.814
39.3584
39.634
39.4898
38.9497
38.1843
37.3928
36.633
35.917
35.2697
34.797
34.6143
34.7095
34.9257
35.0881
35.1209
35.0528
34.9545
34.872
34.7841
34.6206
34.3308
33.9514
33.5746
33.3246
33.3086
33.3617
33.0102
31.945
30.3915
28.9198
28.0279
27.8683
28.1975
28.5592
28.6108
28.3488
28.0307
27.9105
28.0702
28.4643
29.0363
29.7506
30.5398
31.2832
31.8576
32.2116
32.3847
32.4654
32.5297
32.6151
32.7315
32.8887
33.0975
33.3367
33.5165
33.5019
33.1905
32.5341
31.4357
29.723
27.4446
25.1796
23.6208
22.7608
22.0338
21.8111
20.7886
23.8077
24.1041
23.8685
25.3335
28.9244
33.4154
36.8787
38.2521
37.8989
36.9073
36.1498
35.9826
36.339
36.907
37.3239
37.3722
37.0613
36.5381
35.9319
35.2706
34.5616
33.8434
33.2296
32.8691
32.8227
32.9954
33.2165
33.3719
33.4592
33.539
33.6335
33.6597
33.4762
33.0106
32.3407
31.652
31.1697
31.0179
30.9784
30.5636
29.5211
28.1295
26.9167
26.2424
26.152
26.4274
26.6991
26.657
26.2799
25.8231
25.5651
25.612
25.9462
26.5591
27.4572
28.5583
29.6589
30.532
31.0625
31.2912
31.3525
31.3773
31.4432
31.5795
31.7915
32.0527
32.2781
32.3318
32.1026
31.5685
30.7266
29.4507
27.5817
25.3212
23.3571
22.1938
21.5444
20.8692
20.756
19.4716
22.5303
22.9818
22.445
23.0158
25.5714
29.6637
33.666
36.059
36.5362
35.8063
34.8668
34.3349
34.3137
34.5701
34.7869
34.7947
34.6309
34.3988
34.1148
33.7599
33.2666
32.6396
31.9929
31.4957
31.2685
31.2919
31.4295
31.5511
31.6351
31.7374
31.8518
31.8312
31.4897
30.7877
29.8878
29.0642
28.5799
28.497
28.5194
28.1894
27.3472
26.2899
25.4327
24.9531
24.795
24.8145
24.8154
24.6153
24.2243
23.8705
23.7718
23.9525
24.3341
24.9131
25.7605
26.8638
28.0436
29.0432
29.695
30.0004
30.0874
30.1111
30.1841
30.3539
30.6011
30.8344
30.9133
30.7209
30.2427
29.5305
28.5431
27.0888
25.1015
22.996
21.463
20.6831
20.1487
19.4894
19.4704
18.1186
21.1774
21.8278
21.219
21.1772
22.6663
25.8794
29.8535
33.0609
34.5966
34.5041
33.6855
32.9596
32.5991
32.4736
32.3486
32.1311
31.9101
31.7985
31.7677
31.8096
31.7277
31.4067
30.9187
30.4238
30.0746
29.9263
29.9015
29.8737
29.7981
29.7118
29.5894
29.2714
28.61
27.6669
26.7088
26.0472
25.8835
26.1402
26.4215
26.3022
25.7151
24.9783
24.4221
24.0979
23.8765
23.66
23.4018
23.0899
22.8313
22.8265
23.157
23.6748
24.1779
24.635
25.1794
25.9127
26.771
27.5705
28.1526
28.4791
28.6281
28.7242
28.8659
29.0751
29.2801
29.3433
29.1456
28.6751
28.0172
27.2007
26.0681
24.4226
22.4108
20.6315
19.6024
19.121
18.6048
17.9545
18.0125
17.0278
20.0082
20.8222
20.2708
19.9412
20.6285
22.8198
26.2357
29.7395
32.1666
32.8786
32.4558
31.7636
31.2179
30.8245
30.4394
29.999
29.5942
29.3664
29.3326
29.6017
29.8961
29.9524
29.7579
29.4208
29.0799
28.8378
28.684
28.5152
28.258
27.9104
27.4376
26.7206
25.7031
24.5564
23.6204
23.1998
23.4033
24.0316
24.6247
24.775
24.4508
23.963
23.6045
23.4011
23.2173
22.9624
22.6357
22.3221
22.2202
22.5329
23.2368
24.0415
24.6434
24.9795
25.2095
25.5063
25.9074
26.3296
26.6778
26.9218
27.1046
27.2933
27.5191
27.7328
27.8163
27.6519
27.2197
26.6134
25.9161
25.0328
23.7234
21.9223
20.0258
18.6684
18.0649
17.7247
17.1609
16.5356
16.6495
16.0743
18.8984
19.843
19.3938
18.9911
19.1922
20.4843
23.0757
26.3925
29.3734
30.8865
31.0583
30.6074
30.0199
29.47
28.9426
28.3819
27.8139
27.3602
27.0952
27.3079
27.7482
28.0648
28.17
28.0991
27.9274
27.7437
27.5669
27.3147
26.8983
26.2946
25.4871
24.4247
23.1336
21.8433
20.9129
20.6264
21.0332
21.881
22.7121
23.1461
23.1354
22.9255
22.7622
22.6933
22.6363
22.5136
22.2931
22.0423
21.984
22.3549
23.1368
24.0131
24.6442
24.932
25.0089
25.042
25.1014
25.1738
25.2438
25.3331
25.4837
25.7069
25.9484
26.0913
26.0191
25.6982
25.2115
24.6638
24.0164
23.0384
21.5315
19.6679
18.0244
17.1039
16.7894
16.4582
15.8273
15.2505
15.4039
15.1022
17.7461
18.8229
18.4988
18.1452
18.1318
18.7792
20.5169
23.2972
26.4213
28.5676
29.4229
29.3967
28.9128
28.2873
27.6786
27.0798
26.4418
25.8072
25.2473
25.1999
25.5234
25.8781
26.1657
26.3769
26.4975
26.5268
26.4341
26.1287
25.5385
24.682
23.6146
22.3618
20.9858
19.6939
18.8038
18.5704
19.0223
19.9148
20.8497
21.5075
21.8202
21.9321
22.0027
22.0872
22.1769
22.2374
22.194
22.0218
21.8864
22.0565
22.6139
23.339
23.9236
24.2281
24.3074
24.266
24.1597
24.0142
23.8806
23.8325
23.9129
24.0815
24.2221
24.2066
23.988
23.6362
23.2663
22.8762
22.2575
21.1318
19.4736
17.6981
16.4158
15.8805
15.7102
15.3068
14.6249
14.1174
14.2943
14.071
16.5711
17.8048
17.6235
17.3634
17.3055
17.5665
18.5759
20.6449
23.5301
26.0168
27.4999
28.02
27.7965
27.1847
26.5132
25.8929
25.261
24.5724
23.827
23.5087
23.5866
23.7942
24.0891
24.4753
24.8682
25.1402
25.1516
24.7793
24.0021
22.9412
21.7616
20.5527
19.3559
18.2865
17.5655
17.3995
17.8149
18.6102
19.4797
20.1981
20.7107
21.0766
21.3524
21.5623
21.7456
21.9269
22.0268
21.9341
21.7118
21.613
21.8281
22.2905
22.7726
23.1016
23.2397
23.2179
23.0744
22.8631
22.6721
22.5842
22.611
22.665
22.6178
22.4016
22.0769
21.7766
21.5524
21.2401
20.5239
19.2128
17.5148
15.988
15.1203
14.8828
14.7481
14.2531
13.5629
13.1444
13.3349
13.0408
15.4609
16.8734
16.8406
16.66
16.6216
16.6881
17.165
18.5167
20.893
23.3815
25.2986
26.3832
26.5669
26.1019
25.4111
24.7578
24.1544
23.522
22.7671
22.3165
22.1904
22.188
22.3388
22.7026
23.1757
23.5378
23.555
23.0864
22.1829
21.0775
20.0236
19.1308
18.3739
17.738
17.3162
17.2485
17.5697
18.1473
18.7824
19.3512
19.8396
20.268
20.6194
20.8706
21.0631
21.261
21.4208
21.4075
21.1927
20.9552
20.9212
21.1482
21.5074
21.8269
22.0067
22.0282
21.9274
21.7774
21.6648
21.6324
21.6355
21.5613
21.3249
20.9564
20.5958
20.3551
20.1593
19.7221
18.7552
17.2637
15.654
14.48
14.0041
13.9611
13.8002
13.2428
12.6026
12.2967
12.5107
12.0989
14.4915
16.082
16.1851
16.039
16.0123
15.9989
16.1446
16.8954
18.6413
20.8348
22.9125
24.4696
25.1605
25.012
24.4099
23.7367
23.1419
22.595
21.9497
21.5247
21.3241
21.1596
21.0923
21.2386
21.5291
21.7347
21.6091
21.0418
20.1518
19.2309
18.5455
18.1654
17.9778
17.8466
17.7481
17.7586
17.9317
18.2196
18.5253
18.8024
19.0734
19.3593
19.6243
19.818
19.9546
20.0978
20.2471
20.3043
20.1985
20.0086
19.9087
20.0045
20.2539
20.529
20.7214
20.7968
20.7902
20.7686
20.7813
20.8124
20.7798
20.5945
20.2523
19.8607
19.5555
19.3418
19.0154
18.2736
16.9852
15.38
13.9605
13.15
12.9672
13.0046
12.7822
12.2047
11.6664
11.4933
11.7623
11.3102
13.6903
15.4295
15.6377
15.4748
15.4222
15.3807
15.3603
15.6845
16.8168
18.5281
20.4969
22.3528
23.566
23.8814
23.5137
22.8726
22.2498
21.7354
21.2063
20.8858
20.7252
20.4924
20.2167
20.0409
19.9621
19.8275
19.468
18.8438
18.1107
17.5391
17.3267
17.4635
17.7659
18.0304
18.168
18.216
18.2475
18.2853
18.3051
18.298
18.2985
18.3426
18.4209
18.4944
18.5527
18.6289
18.7417
18.847
18.8779
18.8328
18.7933
18.8482
19.0123
19.2257
19.4163
19.5544
19.6571
19.7511
19.8315
19.8455
19.7293
19.4702
19.1467
18.8776
18.7017
18.475
17.9207
16.8315
15.2936
13.7044
12.5407
12.0315
12.0023
12.0069
11.6905
11.1134
10.6959
10.6543
11.0079
10.6946
13.0341
14.871
15.1453
14.9277
14.8153
14.7621
14.6888
14.7638
15.3982
16.5735
18.2337
20.1749
21.8154
22.6448
22.6224
22.0777
21.3989
20.8305
20.3458
20.1218
20.0548
19.8365
19.4164
18.9296
18.4511
17.9513
17.382
16.773
16.2664
16.0446
16.1966
16.6423
17.1835
17.6286
17.89
17.9902
17.997
17.9527
17.8552
17.6989
17.5115
17.3443
17.233
17.179
17.1694
17.2043
17.2924
17.4205
17.5421
17.6156
17.6476
17.6874
17.7777
17.9222
18.0972
18.2787
18.4481
18.5758
18.6144
18.5204
18.3004
18.0354
17.8457
17.7854
17.7461
17.4624
16.6747
15.3424
13.7436
12.3334
11.4663
11.1765
11.1779
11.0649
10.6256
10.0397
9.7192
9.77375
10.2055
10.2138
12.4559
14.3343
14.6424
14.357
14.1714
14.11
14.0482
14.0184
14.3158
15.0146
16.2637
18.0748
19.9387
21.1861
21.5195
21.1141
20.3845
19.7138
19.2077
19.0426
19.0767
18.9225
18.4336
17.7236
16.9436
16.1908
15.5242
15.0016
14.699
14.6809
14.9421
15.3869
15.8784
16.31
16.6429
16.8869
17.0608
17.1578
17.1476
17.0096
16.767
16.4869
16.2476
16.0975
16.0416
16.0634
16.1488
16.2829
16.4293
16.5374
16.5807
16.5823
16.5939
16.6571
16.7796
16.9356
17.0717
17.1213
17.0337
16.8151
16.5537
16.3858
16.4025
16.541
16.5625
16.1659
15.1985
13.7997
12.3559
11.2678
10.7192
10.5911
10.5601
10.3012
9.73442
9.12325
8.85237
8.94383
9.39834
9.80162
11.89
13.7668
14.0966
13.7569
13.508
13.4404
13.4166
13.3771
13.493
13.836
14.655
16.1476
17.9599
19.3974
19.9862
19.7336
19.0111
18.28
17.7597
17.6452
17.7752
17.7031
17.2032
16.3727
15.4326
14.5819
13.9406
13.5425
13.3648
13.3624
13.4829
13.6811
13.9396
14.2726
14.6979
15.1944
15.6931
16.0936
16.3086
16.3025
16.1067
15.8076
15.5142
15.3103
15.2248
15.2429
15.3344
15.4663
15.5964
15.6765
15.6783
15.6174
15.5433
15.5042
15.5135
15.5397
15.5213
15.4021
15.1747
14.9098
14.7394
14.7769
15.0135
15.2606
15.219
14.6547
13.579
12.2744
11.1377
10.4411
10.2019
10.2057
10.1402
9.76609
9.107
8.47674
8.21934
8.29464
8.692
9.3876
11.2906
13.1457
13.5077
13.1457
12.8568
12.7859
12.8012
12.7964
12.8441
12.9581
13.3815
14.4215
15.9108
17.2587
17.9427
17.8423
17.2356
16.5754
16.1308
16.1022
16.3256
16.3301
15.8461
14.9709
13.9841
13.1509
12.6065
12.3279
12.1946
12.0853
11.9494
11.8289
11.8365
12.0927
12.6465
13.428
14.2755
14.9979
15.4578
15.6139
15.5133
15.2582
14.9713
14.7523
14.6476
14.6551
14.7429
14.865
14.9689
15.0085
14.9619
14.8422
14.6857
14.5236
14.358
14.1616
13.9026
13.5845
13.273
13.0869
13.1385
13.442
13.8507
14.0839
13.8684
13.1137
12.0003
10.887
10.1042
9.7749
9.79214
9.9017
9.82511
9.39504
8.70749
8.09593
7.85035
7.88955
8.17106
8.94762
10.6629
12.4948
12.9121
12.5623
12.2559
12.1813
12.2201
12.2525
12.2887
12.2692
12.3583
12.8906
13.8732
14.9073
15.5442
15.6032
15.2425
14.8209
14.5758
14.6842
14.994
15.0524
14.5874
13.71
12.7401
11.9734
11.531
11.3334
11.194
10.961
10.6133
10.2724
10.1387
10.3838
11.0521
12.028
13.0923
14.0104
14.6302
14.9155
14.9221
14.7526
14.5222
14.325
14.2142
14.2025
14.27
14.3726
14.4551
14.4715
14.3996
14.2422
14.0126
13.7164
13.345
12.893
12.3887
11.9183
11.616
11.6099
11.937
12.4762
12.9569
13.068
12.6308
11.7188
10.6371
9.74695
9.27283
9.21239
9.39285
9.56262
9.48364
9.04454
8.3893
7.84665
7.64047
7.66
7.81995
8.48818
10.0319
11.8474
12.342
12.0301
11.7195
11.6358
11.6755
11.7215
11.7546
11.6552
11.4835
11.5426
11.9746
12.6
13.1202
13.3552
13.3424
13.2902
13.3377
13.6118
13.9865
14.0673
13.6163
12.7634
11.844
11.1508
10.7789
10.6151
10.4545
10.1556
9.73188
9.34266
9.20554
9.47974
10.1799
11.1698
12.2287
13.1433
13.7889
14.1422
14.2501
14.195
14.064
13.9277
13.8345
13.8098
13.8519
13.9304
13.9967
14.0041
13.9218
13.7345
13.4318
13.0021
12.4419
11.7837
11.1209
10.6067
10.4058
10.6107
11.1592
11.8134
12.2381
12.1608
11.5275
10.544
9.5643
8.89042
8.63602
8.7201
8.95693
9.12251
9.01852
8.58048
7.98674
7.54561
7.40916
7.44086
7.52206
8.03347
9.42401
11.228
11.8115
11.5499
11.2376
11.1356
11.1545
11.1829
11.1942
11.0388
10.6875
10.3854
10.3587
10.6168
11.0259
11.4437
11.8088
12.1672
12.5293
12.9582
13.3642
13.4392
13.0036
12.2038
11.3629
10.7433
10.4107
10.2459
10.068
9.77308
9.3994
9.09692
9.03939
9.33008
9.94854
10.77
11.6195
12.3535
12.9044
13.2618
13.4489
13.5148
13.5088
13.4673
13.4247
13.4139
13.449
13.5145
13.5697
13.5654
13.4586
13.2186
12.8251
12.272
11.5824
10.8313
10.1552
9.72734
9.68882
10.0628
10.6986
11.3002
11.5484
11.2637
10.5113
9.56446
8.74891
8.26946
8.14825
8.27307
8.47935
8.57847
8.40898
7.95111
7.41182
7.07111
7.01288
7.07712
7.13742
7.59811
8.84941
10.6422
11.3151
11.1059
10.7888
10.6605
10.6442
10.6309
10.5988
10.3992
9.94986
9.43763
9.12164
9.13502
9.47485
10.0504
10.74
11.4568
12.0895
12.6356
13.0423
13.0979
12.6906
11.9773
11.2474
10.7131
10.4096
10.2302
10.041
9.78555
9.51393
9.33838
9.36178
9.62123
10.0711
10.619
11.154
11.6182
12.0064
12.3159
12.5397
12.6977
12.8096
12.8788
12.9201
12.9646
13.0329
13.1144
13.1681
13.1371
12.9686
12.6297
12.1156
11.4549
10.7141
10.0023
9.46097
9.22691
9.36838
9.82481
10.3918
10.7863
10.7761
10.3043
9.52423
8.70943
8.10039
7.7941
7.75072
7.8608
7.99286
7.98884
7.72076
7.21444
6.70219
6.43283
6.4328
6.52479
6.60083
7.16619
8.28682
10.0628
10.8207
10.6643
10.3385
10.1769
10.1173
10.0498
9.96143
9.72901
9.25497
8.67947
8.25165
8.153
8.45539
9.11911
10.0095
10.9642
11.7837
12.4062
12.8048
12.853
12.5015
11.9094
11.3205
10.8893
10.6207
10.4261
10.2211
9.99246
9.79428
9.69907
9.74797
9.92916
10.1874
10.4653
10.706
10.9195
11.1422
11.3684
11.5701
11.7571
11.9398
12.1019
12.2386
12.3685
12.505
12.6298
12.6914
12.6214
12.3626
11.8965
11.2567
10.5255
9.81678
9.25419
8.94526
8.94812
9.23353
9.66683
10.0341
10.1245
9.83349
9.22401
8.49542
7.87034
7.48084
7.33041
7.34675
7.43812
7.49983
7.39411
7.02512
6.4643
5.96217
5.7324
5.75699
5.85341
5.94738
6.80024
7.81155
9.57218
10.3982
10.2847
9.95055
9.76165
9.66822
9.55633
9.42091
9.1724
8.72101
8.17465
7.75001
7.62469
7.90015
8.58177
9.55762
10.6399
11.5744
12.2471
12.6397
12.688
12.3943
11.9201
11.4693
11.1439
10.9204
10.7218
10.5005
10.2737
10.0978
10.0197
10.0443
10.1351
10.2378
10.3201
10.3541
10.3899
10.4858
10.6241
10.7617
10.9171
11.1174
11.3449
11.5775
11.8147
12.0512
12.2485
12.3336
12.2225
11.8585
11.249
10.4788
9.69158
9.04509
8.66466
8.60581
8.83412
9.22233
9.57787
9.70427
9.48544
8.94702
8.25042
7.60882
7.17477
6.97952
6.95887
7.02933
7.1186
7.13614
6.95255
6.49802
5.88437
5.3759
5.15524
5.17255
5.24918
5.3395
6.17429
7.04206
8.75722
9.6872
9.6565
9.31425
9.07387
8.92043
8.74026
8.53509
8.26843
7.88705
7.46977
7.16159
7.06673
7.25905
7.78974
8.63337
9.66205
10.625
11.358
11.8178
11.967
11.8299
11.5498
11.2831
11.0841
10.9071
10.6865
10.4025
10.0944
9.82623
9.64347
9.55147
9.52166
9.51803
9.51775
9.5079
9.52468
9.5701
9.59313
9.5832
9.59889
9.69776
9.89086
10.1527
10.4448
10.7244
10.9356
11.0027
10.8462
10.4255
9.78009
9.03773
8.37681
7.95974
7.87071
8.08011
8.44931
8.77261
8.85144
8.57526
7.97613
7.21819
6.52014
6.04914
5.85346
5.87562
6.02164
6.21837
6.39801
6.45483
6.26166
5.79487
5.21614
4.77817
4.60035
4.60093
4.63317
4.68324
)
;
    }
    outlet
    {
        type            calculated;
        value           nonuniform List<scalar> 
3200
(
52.6323
53.9097
51.1877
48.994
47.2585
46.5386
47.9456
53.3807
57.3914
56.3529
51.5273
44.4722
36.9532
39.3494
42.7591
36.1229
33.256
37.0456
40.0885
43.0386
44.7081
42.9497
37.2403
35.2344
36.2724
38.2756
39.5981
40.1993
40.5481
40.652
40.4389
39.6281
37.8176
38.2067
41.0934
42.6073
43.2522
43.5147
43.5127
43.3326
43.0195
42.5714
41.9851
41.3744
40.9706
40.8888
41.0341
41.2615
41.4431
41.453
41.2075
40.7039
39.9237
38.6216
35.7464
32.0308
30.7375
30.3997
30.0874
29.9226
29.9222
29.9743
30.0044
29.9986
30.0032
30.0558
30.1582
30.2595
30.3134
30.2743
30.0643
29.7391
29.4001
29.1421
29.0587
29.2185
29.6683
30.4088
31.4697
31.4333
62.9858
75.8647
75.3298
72.9059
70.5586
69.1327
69.9804
72.5099
72.9722
71.4896
67.5034
58.8644
47.6414
53.3144
55.9684
49.8063
44.3002
48.9489
54.3317
57.7765
59.2744
58.0909
54.6394
51.9758
50.8479
50.3902
49.876
49.2845
48.7436
48.2271
47.7163
46.9763
45.2751
44.7398
47.5334
49.4778
50.345
50.5667
50.5123
50.3718
50.2103
50.0209
49.7576
49.359
48.8766
48.4352
48.1086
47.8988
47.7583
47.6239
47.4709
47.3019
47.1671
47.0632
46.8612
46.7033
46.5337
46.4934
46.3289
46.2365
46.2575
46.3013
46.3111
46.2916
46.2965
46.3613
46.4772
46.5827
46.6318
46.5782
46.3565
46.0342
45.7331
45.5377
45.4931
45.5402
45.6212
45.7747
45.4134
39.9835
61.2117
80.3257
83.3315
82.0787
80.2414
78.7411
78.4283
78.153
77.052
75.0754
70.9366
61.098
50.7896
59.7128
61.8946
56.3059
49.5275
52.9038
59.0521
62.7295
63.422
62.2721
60.0621
57.6132
55.6002
54.094
52.8561
51.8077
50.9198
50.1585
49.4742
48.669
47.2872
46.5373
48.6058
50.4883
51.4883
51.8445
51.8939
51.828
51.7286
51.6073
51.4269
51.1249
50.6812
50.1939
49.7646
49.4428
49.2207
49.0696
48.9722
48.936
49.0356
49.404
50.2488
51.647
52.5435
52.8067
52.8379
52.8485
52.8762
52.8828
52.8502
52.8002
52.7807
52.8222
52.9168
53.0143
53.0688
53.0361
52.8729
52.6136
52.3155
51.9758
51.5441
50.967
50.454
50.2806
48.8432
41.1009
57.1057
78.0424
84.0723
84.2613
83.3691
82.2807
81.2637
79.88
78.1401
75.9178
71.3453
60.4941
52.9355
63.8851
65.55
61.1023
54.0999
55.6386
61.4678
64.4876
64.5396
63.4393
61.7543
59.6437
57.5145
55.7019
54.2009
52.9494
51.8791
50.9584
50.1459
49.2938
48.1346
47.3931
48.8028
50.4889
51.5432
52.0129
52.1566
52.1513
52.0934
52.0132
51.8868
51.6589
51.2942
50.8598
50.4527
50.1335
49.9035
49.7425
49.6402
49.6322
49.8347
50.4214
51.6284
53.3952
54.703
55.2336
55.4191
55.5122
55.5557
55.5425
55.4818
55.4106
55.3795
55.4217
55.5334
55.6685
55.7639
55.7467
55.5458
55.1322
54.5034
53.6597
52.6686
51.78
51.4596
51.4284
48.7399
40.1285
53.1576
73.6794
82.0449
83.3944
83.1551
82.5107
81.4933
80.0246
78.2802
76.1224
71.1529
59.9204
55.6415
66.5836
67.8565
64.5703
58.2922
58.5883
62.937
64.6967
64.5019
63.5884
62.2169
60.3859
58.3759
56.5174
54.9026
53.5212
52.3241
51.2956
50.4095
49.5503
48.5472
47.858
48.732
50.1395
51.1494
51.664
51.8686
51.9271
51.9429
51.9467
51.9109
51.7808
51.5182
51.1584
50.7853
50.4648
50.2086
50.0101
49.8828
49.9011
50.1972
50.909
52.2069
53.9411
55.2929
55.9635
56.2532
56.4113
56.4894
56.4922
56.4421
56.3862
56.3799
56.4558
56.5992
56.7397
56.7718
56.5797
56.0747
55.2401
54.1424
52.932
51.893
51.4456
51.7342
51.3862
47.1464
38.7121
49.8337
68.8172
78.975
81.3288
81.3463
80.9165
80.1165
78.9772
77.6369
75.8128
70.9758
61.2824
59.041
67.997
69.0308
66.6554
61.64
61.1831
63.8356
64.4517
64.0183
63.2896
62.1725
60.5635
58.7034
56.874
55.1981
53.7177
52.4291
51.3423
50.4382
49.6069
48.7149
48.0595
48.5036
49.5736
50.4603
50.9731
51.2361
51.3917
51.5296
51.6602
51.7397
51.7119
51.5388
51.2322
50.8586
50.4965
50.1887
49.9568
49.8411
49.9313
50.3291
51.1007
52.3642
53.9609
55.2441
55.9613
56.3086
56.515
56.6413
56.696
56.7005