/*--------------------------------*- C++ -*----------------------------------*\
| =========                 |                                                 |
| \\      /  F ield         | OpenFOAM: The Open Source CFD Toolbox           |
|  \\    /   O peration     | Version:  v2012                                 |
|   \\  /    A nd           | Website:  www.openfoam.com                      |
|    \\/     M anipulation  |                                                 |
\*---------------------------------------------------------------------------*/
FoamFile
{
    version     2.0;
    format      ascii;
    class       volScalarField;
    location    "400/air";
    object      rho;
}
// * * * * * * * * * * * * * * * * * * * * * * * * * * * * * * * * * * * * * //

dimensions      [1 -3 0 0 0 0 0];


internalField   nonuniform List<scalar> 
287104
(
0.999041
0.998147
0.997346
0.996615
0.995941
0.995314
0.994727
0.994176
0.993655
0.993162
0.992693
0.992245
0.991816
0.991403
0.991006
0.990623
0.990251
0.989891
0.989541
0.989199
0.988867
0.988542
0.988224
0.987912
0.987607
0.987308
0.987013
0.986724
0.98644
0.986159
0.985883
0.985612
0.985343
0.985079
0.984818
0.98456
0.984306
0.984055
0.983806
0.983561
0.983319
0.98308
0.982843
0.982609
0.982378
0.982149
0.981923
0.9817
0.981479
0.981261
0.981045
0.980832
0.980621
0.980413
0.980207
0.980004
0.979803
0.979604
0.979408
0.979214
0.979023
0.978834
0.978647
0.978462
0.97828
0.978099
0.977921
0.977745
0.977571
0.977399
0.977229
0.97706
0.976894
0.976729
0.976565
0.976404
0.976244
0.976086
0.975929
0.975774
0.97562
0.975466
0.975313
0.975159
0.975005
0.97485
0.974694
0.974535
0.974364
0.974165
0.999053
0.998171
0.997381
0.996661
0.995997
0.995379
0.994802
0.994259
0.993747
0.993262
0.992801
0.992361
0.991939
0.991535
0.991145
0.990769
0.990405
0.990052
0.989709
0.989375
0.989049
0.988731
0.988421
0.988117
0.987818
0.987526
0.987239
0.986957
0.986679
0.986406
0.986138
0.985873
0.985612
0.985354
0.985101
0.98485
0.984603
0.984359
0.984118
0.983879
0.983644
0.983412
0.983182
0.982955
0.982731
0.982509
0.98229
0.982073
0.981859
0.981648
0.981439
0.981232
0.981028
0.980826
0.980627
0.98043
0.980235
0.980043
0.979853
0.979665
0.979479
0.979296
0.979115
0.978936
0.978759
0.978585
0.978412
0.978241
0.978073
0.977906
0.977741
0.977578
0.977416
0.977256
0.977098
0.976941
0.976786
0.976633
0.976481
0.97633
0.97618
0.976031
0.975882
0.975732
0.975583
0.975433
0.975281
0.975127
0.97496
0.974764
0.999066
0.998196
0.997417
0.996706
0.996051
0.995442
0.994872
0.994337
0.993832
0.993354
0.992899
0.992465
0.99205
0.991651
0.991267
0.990896
0.990538
0.99019
0.989852
0.989524
0.989203
0.988891
0.988585
0.988286
0.987993
0.987706
0.987424
0.987146
0.986874
0.986606
0.986343
0.986083
0.985827
0.985575
0.985327
0.985082
0.98484
0.984601
0.984365
0.984133
0.983903
0.983676
0.983452
0.983231
0.983012
0.982796
0.982583
0.982372
0.982164
0.981958
0.981755
0.981554
0.981356
0.981161
0.980967
0.980777
0.980588
0.980402
0.980219
0.980038
0.979859
0.979682
0.979508
0.979336
0.979166
0.978998
0.978832
0.978669
0.978507
0.978348
0.97819
0.978034
0.97788
0.977728
0.977577
0.977429
0.977281
0.977136
0.976992
0.97685
0.976709
0.976568
0.976428
0.976287
0.976147
0.976006
0.975864
0.975719
0.975562
0.975376
0.999079
0.998221
0.997452
0.996751
0.996105
0.995504
0.994942
0.994414
0.993915
0.993444
0.992995
0.992567
0.992157
0.991763
0.991385
0.991019
0.990665
0.990322
0.989989
0.989665
0.989349
0.98904
0.988739
0.988444
0.988155
0.987872
0.987594
0.987321
0.987053
0.986789
0.986529
0.986273
0.986022
0.985773
0.985529
0.985287
0.985049
0.984814
0.984582
0.984354
0.984128
0.983905
0.983684
0.983467
0.983252
0.983039
0.98283
0.982622
0.982418
0.982216
0.982016
0.981819
0.981625
0.981433
0.981243
0.981056
0.980871
0.980688
0.980508
0.98033
0.980155
0.979981
0.97981
0.979641
0.979474
0.979309
0.979147
0.978986
0.978827
0.97867
0.978514
0.978361
0.978209
0.978058
0.977909
0.977762
0.977616
0.977471
0.977328
0.977186
0.977045
0.976904
0.976762
0.976621
0.976479
0.976336
0.976191
0.976043
0.975883
0.975693
0.999092
0.998245
0.997487
0.996795
0.996157
0.995565
0.99501
0.994489
0.993998
0.993532
0.993089
0.992667
0.992263
0.991874
0.991501
0.99114
0.990791
0.990452
0.990123
0.989804
0.989492
0.989188
0.98889
0.9886
0.988315
0.988036
0.987762
0.987492
0.987228
0.986968
0.986712
0.986461
0.986213
0.985969
0.985728
0.985491
0.985257
0.985026
0.984799
0.984574
0.984352
0.984133
0.983918
0.983704
0.983494
0.983286
0.983081
0.982878
0.982679
0.982481
0.982286
0.982094
0.981904
0.981717
0.981532
0.98135
0.98117
0.980992
0.980817
0.980644
0.980473
0.980305
0.980138
0.979974
0.979812
0.979651
0.979493
0.979336
0.979182
0.979029
0.978877
0.978727
0.978579
0.978432
0.978286
0.978141
0.977997
0.977855
0.977714
0.977573
0.977433
0.977293
0.977152
0.977011
0.976869
0.976726
0.976581
0.976433
0.976273
0.976085
0.999104
0.998269
0.997521
0.996839
0.99621
0.995625
0.995078
0.994564
0.994079
0.993619
0.993183
0.992766
0.992367
0.991983
0.991614
0.991258
0.990914
0.99058
0.990255
0.98994
0.989632
0.989332
0.989039
0.988752
0.988471
0.988196
0.987926
0.98766
0.9874
0.987144
0.986892
0.986645
0.986401
0.986161
0.985925
0.985692
0.985463
0.985237
0.985014
0.984794
0.984578
0.984365
0.984154
0.983947
0.983742
0.983541
0.983342
0.983147
0.982954
0.982764
0.982577
0.982392
0.982211
0.982032
0.981856
0.981682
0.981512
0.981343
0.981178
0.981015
0.980854
0.980696
0.98054
0.980387
0.980236
0.980087
0.979941
0.979797
0.979655
0.979514
0.979376
0.97924
0.979106
0.978974
0.978843
0.978714
0.978587
0.978462
0.978339
0.978218
0.978098
0.97798
0.977862
0.977747
0.977633
0.97752
0.977409
0.977296
0.977174
0.977027
0.999116
0.998293
0.997555
0.996882
0.996261
0.995684
0.995145
0.994637
0.994159
0.993705
0.993274
0.992863
0.992469
0.99209
0.991726
0.991374
0.991034
0.990704
0.990383
0.990071
0.989767
0.989471
0.989181
0.988898
0.988621
0.98835
0.988084
0.987823
0.987567
0.987316
0.987069
0.986827
0.986589
0.986355
0.986125
0.985899
0.985678
0.98546
0.985246
0.985035
0.984829
0.984626
0.984427
0.984233
0.984044
0.983861
0.983682
0.983507
0.983337
0.983171
0.983009
0.98285
0.982695
0.982544
0.982396
0.982251
0.982109
0.981971
0.981836
0.981703
0.981574
0.981448
0.981325
0.981205
0.981087
0.980973
0.980862
0.980754
0.980649
0.980547
0.980449
0.980354
0.980262
0.980175
0.980091
0.980011
0.979935
0.979863
0.979795
0.979731
0.97967
0.979614
0.979561
0.97951
0.979463
0.979415
0.979362
0.979297
0.979228
0.97914
0.999128
0.998316
0.997588
0.996925
0.996312
0.995743
0.99521
0.99471
0.994238
0.99379
0.993365
0.992959
0.99257
0.992196
0.991836
0.991488
0.991151
0.990825
0.990508
0.990199
0.989898
0.989605
0.989319
0.989039
0.988766
0.988498
0.988237
0.987981
0.987731
0.987487
0.987247
0.987013
0.986787
0.986568
0.986357
0.986153
0.985956
0.985765
0.985582
0.985405
0.985234
0.985069
0.984911
0.984759
0.984613
0.984472
0.984337
0.984208
0.984084
0.983966
0.983854
0.983749
0.98365
0.983558
0.983471
0.983391
0.983317
0.983248
0.983185
0.983128
0.983077
0.983031
0.982991
0.982956
0.982926
0.982902
0.982883
0.982869
0.98286
0.982856
0.982857
0.982862
0.982872
0.982886
0.982904
0.982926
0.982953
0.982983
0.983016
0.983054
0.983094
0.983135
0.983177
0.983219
0.983259
0.983297
0.983327
0.983343
0.983311
0.983205
0.99914
0.998339
0.997621
0.996967
0.996363
0.995801
0.995275
0.994782
0.994315
0.993873
0.993453
0.993051
0.992664
0.992291
0.99193
0.991579
0.991237
0.990905
0.990582
0.990267
0.98996
0.989661
0.98937
0.989086
0.988815
0.988555
0.988308
0.988071
0.987846
0.98763
0.987425
0.987229
0.987043
0.986867
0.9867
0.986542
0.986394
0.986255
0.986124
0.986001
0.985886
0.985779
0.98568
0.985589
0.985507
0.985432
0.985366
0.985308
0.985258
0.985216
0.985179
0.985148
0.985122
0.985102
0.985088
0.985078
0.985073
0.985074
0.985078
0.985087
0.9851
0.985117
0.985138
0.985162
0.985189
0.98522
0.985254
0.985291
0.98533
0.985372
0.985416
0.985462
0.98551
0.98556
0.985611
0.985663
0.985717
0.985772
0.985828
0.985886
0.985945
0.986002
0.986058
0.986112
0.986164
0.986212
0.986256
0.98629
0.986295
0.986256
0.999152
0.998362
0.997654
0.997008
0.996412
0.995858
0.99534
0.994852
0.994392
0.993956
0.993529
0.9931
0.992669
0.992237
0.991806
0.99138
0.990961
0.990553
0.990155
0.989771
0.9894
0.989044
0.988701
0.988374
0.988066
0.987777
0.987506
0.987249
0.987007
0.986778
0.986561
0.986356
0.986157
0.985963
0.985774
0.985589
0.985409
0.985236
0.98507
0.984914
0.984766
0.984628
0.9845
0.984384
0.984279
0.984184
0.984099
0.984022
0.983954
0.983894
0.983844
0.983801
0.983767
0.983742
0.983726
0.983718
0.983718
0.983727
0.983744
0.983768
0.9838
0.983838
0.983884
0.983936
0.983994
0.984058
0.984127
0.984202
0.984282
0.984366
0.984454
0.984545
0.98464
0.984738
0.984837
0.984939
0.985042
0.985147
0.985255
0.985368
0.985502
0.985643
0.985785
0.985923
0.986055
0.986177
0.986285
0.986374
0.986427
0.986426
0.999164
0.998385
0.997686
0.997049
0.996461
0.995915
0.995403
0.994921
0.994466
0.994024
0.9932
0.992319
0.99143
0.990553
0.989699
0.988877
0.988092
0.98735
0.986656
0.986012
0.985423
0.984889
0.98441
0.983986
0.983614
0.983289
0.983006
0.982759
0.982541
0.982346
0.982168
0.982002
0.981848
0.981703
0.981563
0.981425
0.981288
0.981151
0.981014
0.980875
0.980734
0.98059
0.980445
0.980301
0.980159
0.980018
0.97988
0.979746
0.979616
0.979492
0.979374
0.979263
0.97916
0.979065
0.978978
0.978901
0.978834
0.978777
0.978731
0.978697
0.978674
0.978664
0.978665
0.978679
0.978705
0.978743
0.978794
0.978856
0.978929
0.979013
0.979108
0.979212
0.979325
0.979447
0.979577
0.979715
0.979859
0.980012
0.980198
0.980567
0.981127
0.981636
0.982101
0.982531
0.982928
0.983289
0.983613
0.983891
0.984098
0.984201
0.999176
0.998407
0.997718
0.99709
0.99651
0.99597
0.995466
0.99499
0.994541
0.994105
0.993299
0.992436
0.991563
0.990699
0.989854
0.989036
0.988251
0.987507
0.986807
0.986156
0.985558
0.985015
0.984529
0.984098
0.983721
0.983394
0.983112
0.982869
0.982659
0.982474
0.982308
0.982155
0.982011
0.98187
0.98173
0.981586
0.981438
0.981287
0.981133
0.980973
0.980807
0.980633
0.980452
0.980268
0.980081
0.97989
0.979694
0.979495
0.979292
0.979086
0.978876
0.978663
0.978447
0.978228
0.978006
0.977784
0.977562
0.97734
0.97712
0.976903
0.97669
0.976483
0.976283
0.976094
0.975916
0.975752
0.975604
0.975475
0.975365
0.975279
0.975216
0.975178
0.975167
0.975181
0.975223
0.97529
0.975383
0.975501
0.975645
0.975846
0.976211
0.976671
0.977175
0.977694
0.978208
0.978704
0.979171
0.979601
0.979973
0.980269
0.999187
0.998429
0.99775
0.99713
0.996558
0.996026
0.995527
0.995059
0.994615
0.994184
0.993391
0.992542
0.991682
0.990831
0.989998
0.989192
0.988419
0.987685
0.986995
0.986354
0.985766
0.985233
0.984759
0.984341
0.983979
0.983669
0.983406
0.983183
0.982995
0.982833
0.982692
0.982565
0.982447
0.982333
0.98222
0.982103
0.981983
0.981861
0.981737
0.981609
0.981477
0.981339
0.981196
0.981054
0.980912
0.980769
0.980624
0.98048
0.980336
0.980191
0.980047
0.979903
0.979758
0.979614
0.979469
0.979322
0.979173
0.979022
0.978867
0.978708
0.978545
0.978378
0.978205
0.978026
0.977841
0.97765
0.977453
0.977248
0.977037
0.97682
0.976596
0.976367
0.976134
0.975897
0.975659
0.975421
0.975186
0.974958
0.974739
0.974549
0.974477
0.974506
0.974605
0.974756
0.974944
0.97516
0.975395
0.97564
0.975869
0.976064
0.999198
0.998451
0.997781
0.99717
0.996605
0.99608
0.995589
0.995126
0.994688
0.994263
0.993482
0.992647
0.991801
0.990962
0.990142
0.989348
0.988587
0.987863
0.987183
0.986552
0.985973
0.985449
0.984982
0.984571
0.984216
0.983913
0.983656
0.983439
0.983257
0.983102
0.982967
0.982846
0.982735
0.982628
0.982521
0.982411
0.982296
0.98218
0.982064
0.981944
0.981819
0.981689
0.981554
0.981422
0.981292
0.981161
0.981032
0.980904
0.980778
0.980655
0.980534
0.980417
0.98031
0.980209
0.980115
0.980026
0.97994
0.979858
0.97978
0.979706
0.979635
0.979569
0.979506
0.979446
0.97939
0.979337
0.979286
0.979238
0.979192
0.979147
0.979103
0.979059
0.979013
0.978965
0.978914
0.978859
0.9788
0.978741
0.978694
0.978769
0.97898
0.97913
0.979221
0.979258
0.979244
0.979196
0.979165
0.979134
0.97908
0.978973
0.999209
0.998472
0.997812
0.997209
0.996652
0.996134
0.995649
0.995193
0.994761
0.994341
0.993573
0.99275
0.991917
0.991092
0.990284
0.989502
0.988752
0.988039
0.987369
0.986747
0.986177
0.985661
0.985201
0.984798
0.984449
0.984151
0.983899
0.983686
0.983507
0.983355
0.983222
0.983104
0.982994
0.982889
0.982783
0.982673
0.982557
0.982441
0.982324
0.982203
0.982077
0.981945
0.981807
0.981672
0.98154
0.981407
0.981275
0.981145
0.981016
0.98089
0.980767
0.980647
0.980531
0.980418
0.980309
0.980203
0.980101
0.980001
0.979907
0.979819
0.979736
0.979656
0.97958
0.979508
0.979439
0.979374
0.979314
0.979259
0.979211
0.979168
0.979133
0.979105
0.979086
0.979075
0.979075
0.979086
0.979111
0.979152
0.979226
0.979433
0.979796
0.980131
0.98044
0.980731
0.981006
0.981265
0.981501
0.981703
0.981826
0.981809
0.99922
0.998493
0.997842
0.997247
0.996698
0.996187
0.995709
0.995259
0.994833
0.994419
0.993662
0.992853
0.992033
0.99122
0.990425
0.989655
0.988916
0.988214
0.987555
0.986942
0.986381
0.985873
0.985421
0.985025
0.984682
0.984388
0.98414
0.983931
0.983753
0.983601
0.983469
0.98335
0.98324
0.983133
0.983026
0.982913
0.982793
0.982672
0.982551
0.982424
0.982292
0.982153
0.982007
0.981864
0.981725
0.981584
0.981444
0.981305
0.981167
0.981032
0.980899
0.98077
0.980644
0.98052
0.980399
0.980281
0.980163
0.980048
0.979933
0.97982
0.979707
0.979594
0.979481
0.979368
0.979254
0.97914
0.979026
0.97891
0.978795
0.978678
0.978562
0.978445
0.978328
0.978211
0.978095
0.977981
0.977868
0.977757
0.977651
0.977593
0.977699
0.977789
0.97786
0.977922
0.977999
0.978081
0.978164
0.978238
0.978288
0.978287
0.999231
0.998514
0.997872
0.997286
0.996744
0.99624
0.995768
0.995324
0.994904
0.994496
0.993752
0.992955
0.992148
0.991348
0.990565
0.989807
0.98908
0.988389
0.98774
0.987137
0.986585
0.986086
0.985641
0.985251
0.984914
0.984626
0.984382
0.984175
0.983998
0.983845
0.98371
0.983588
0.983474
0.983363
0.98325
0.983131
0.983004
0.982876
0.982746
0.982611
0.98247
0.982322
0.982165
0.982012
0.981862
0.981711
0.98156
0.98141
0.98126
0.981113
0.98097
0.980829
0.980692
0.980557
0.980424
0.980292
0.98016
0.980028
0.979896
0.979763
0.979628
0.979492
0.979354
0.979214
0.979071
0.978925
0.978776
0.978624
0.978469
0.97831
0.978148
0.977983
0.977815
0.977644
0.97747
0.977294
0.977116
0.976936
0.976754
0.976582
0.97649
0.976462
0.976476
0.976514
0.976567
0.976624
0.97668
0.976727
0.976747
0.97672
0.999242
0.998535
0.997901
0.997323
0.996789
0.996292
0.995827
0.995389
0.994974
0.994572
0.99384
0.993055
0.992261
0.991473
0.990702
0.989956
0.98924
0.98856
0.987922
0.98733
0.986788
0.986299
0.985864
0.985483
0.985154
0.984873
0.984635
0.984431
0.984256
0.984103
0.983967
0.983842
0.983724
0.98361
0.983495
0.983372
0.983242
0.983109
0.982977
0.982838
0.982693
0.982539
0.982377
0.982217
0.982062
0.981905
0.981748
0.981592
0.981439
0.981291
0.981148
0.981012
0.98088
0.980752
0.980627
0.980504
0.980382
0.980262
0.980143
0.980025
0.979907
0.979789
0.979671
0.979553
0.979435
0.979317
0.9792
0.979084
0.978968
0.978855
0.978743
0.978634
0.978529
0.978428
0.978332
0.978242
0.978158
0.978082
0.978014
0.977975
0.978054
0.978216
0.978423
0.978654
0.978893
0.97913
0.979355
0.97956
0.979723
0.979828
0.999252
0.998555
0.997931
0.99736
0.996834
0.996344
0.995885
0.995453
0.995044
0.994647
0.993927
0.993154
0.992372
0.991596
0.990838
0.990104
0.989401
0.988736
0.988114
0.987541
0.987019
0.986554
0.986144
0.98579
0.985488
0.985234
0.98502
0.984838
0.984682
0.984543
0.984418
0.984303
0.984194
0.984088
0.983981
0.983867
0.983744
0.983618
0.98349
0.983353
0.983206
0.983048
0.982877
0.982706
0.982538
0.982368
0.982198
0.982031
0.981871
0.98172
0.981581
0.981454
0.981337
0.981229
0.981129
0.981036
0.98095
0.98087
0.980797
0.980728
0.980665
0.980605
0.98055
0.980497
0.980448
0.980401
0.980358
0.980319
0.980283
0.980251
0.980224
0.980202
0.980185
0.980174
0.980169
0.980171
0.980181
0.9802
0.980232
0.980394
0.98074
0.981075
0.981393
0.981693
0.981976
0.982238
0.982473
0.98267
0.982794
0.982856
0.999263
0.998575
0.997959
0.997397
0.996878
0.996394
0.995942
0.995516
0.995113
0.994721
0.994007
0.993241
0.992466
0.991706
0.990973
0.990277
0.989629
0.989035
0.9885
0.988028
0.987617
0.987265
0.986969
0.98672
0.986512
0.986338
0.986189
0.986057
0.985938
0.985825
0.985716
0.985609
0.985505
0.985402
0.985295
0.985181
0.985056
0.984925
0.984789
0.984638
0.984473
0.98429
0.984088
0.983879
0.983666
0.983445
0.983222
0.983
0.982787
0.982589
0.982409
0.982251
0.982114
0.982
0.981907
0.981837
0.981799
0.98179
0.981801
0.981825
0.981858
0.981896
0.981937
0.981978
0.982021
0.982063
0.982107
0.982151
0.982197
0.982244
0.982294
0.982346
0.982402
0.982462
0.982527
0.982597
0.982674
0.982763
0.982881
0.983136
0.983529
0.983874
0.98418
0.984459
0.984713
0.984945
0.985152
0.985328
0.985448
0.985476
0.999273
0.998595
0.997988
0.997433
0.996921
0.996444
0.995998
0.995579
0.995182
0.994806
0.994447
0.9941
0.993765
0.993438
0.993121
0.992811
0.992511
0.992219
0.991935
0.99166
0.991394
0.991136
0.990886
0.990645
0.990411
0.990185
0.989965
0.989752
0.989545
0.989342
0.989143
0.988949
0.98876
0.988576
0.988395
0.988217
0.98804
0.987865
0.987694
0.987524
0.987354
0.987184
0.987011
0.986841
0.986673
0.98651
0.986353
0.986206
0.986069
0.985945
0.985833
0.985735
0.985649
0.985576
0.985514
0.985465
0.985426
0.985398
0.985379
0.985369
0.985367
0.985372
0.985384
0.985401
0.985423
0.98545
0.985481
0.985515
0.985554
0.985596
0.985641
0.985689
0.98574
0.985794
0.98585
0.98591
0.985973
0.98604
0.986111
0.986189
0.986282
0.986381
0.986483
0.986586
0.986688
0.986787
0.986879
0.986958
0.987006
0.987002
0.999283
0.998615
0.998016
0.997469
0.996964
0.996494
0.996054
0.99564
0.99525
0.994879
0.994526
0.994189
0.993865
0.993554
0.993254
0.992964
0.992683
0.992411
0.992148
0.991892
0.991643
0.991401
0.991166
0.990937
0.990713
0.990496
0.990283
0.990076
0.989872
0.989671
0.989472
0.989277
0.989085
0.988896
0.988711
0.988528
0.988345
0.988166
0.987991
0.987819
0.98765
0.987483
0.987318
0.987158
0.987004
0.986856
0.986713
0.986578
0.986452
0.986336
0.986232
0.986138
0.986052
0.985976
0.985908
0.985849
0.985799
0.985756
0.985721
0.985694
0.985673
0.985658
0.985649
0.985646
0.985648
0.985654
0.985666
0.985682
0.985701
0.985725
0.985753
0.985784
0.985819
0.985858
0.9859
0.985945
0.985995
0.986048
0.986105
0.986166
0.986232
0.986298
0.986364
0.986428
0.98649
0.986549
0.986602
0.986644
0.986657
0.986621
0.999293
0.998635
0.998044
0.997505
0.997007
0.996544
0.99611
0.995702
0.995317
0.994951
0.994604
0.994272
0.993954
0.993648
0.993353
0.993069
0.992794
0.992527
0.992268
0.992016
0.99177
0.991531
0.991297
0.991068
0.990845
0.990626
0.990411
0.990201
0.989994
0.989789
0.989586
0.989386
0.989188
0.988994
0.988803
0.988615
0.988426
0.988241
0.988061
0.987882
0.987704
0.987527
0.987349
0.987172
0.986997
0.986822
0.986647
0.986474
0.986304
0.986139
0.985979
0.985824
0.985675
0.985535
0.985404
0.985281
0.985167
0.985061
0.984962
0.984871
0.984786
0.984707
0.984634
0.984566
0.984504
0.984448
0.984396
0.984349
0.984306
0.984269
0.984236
0.984208
0.984184
0.984165
0.98415
0.98414
0.984135
0.984133
0.984137
0.984144
0.984155
0.984169
0.984186
0.984205
0.984226
0.984247
0.984265
0.984273
0.984245
0.984183
0.999303
0.998654
0.998072
0.99754
0.99705
0.996593
0.996165
0.995763
0.995383
0.995023
0.994681
0.994353
0.99404
0.993738
0.993448
0.993168
0.992896
0.992633
0.992378
0.992129
0.991887
0.99165
0.991419
0.991193
0.990972
0.990755
0.990542
0.990333
0.990128
0.989924
0.989723
0.989524
0.989326
0.989132
0.988941
0.988752
0.988564
0.98838
0.988202
0.988027
0.987858
0.987692
0.987526
0.987363
0.987201
0.987039
0.986876
0.986715
0.986555
0.986398
0.986246
0.986098
0.985955
0.985816
0.985683
0.985556
0.985435
0.985322
0.985215
0.985116
0.985025
0.98494
0.984863
0.984793
0.984729
0.984671
0.984619
0.984572
0.984529
0.98449
0.984455
0.984421
0.98439
0.98436
0.98433
0.984301
0.984272
0.984243
0.984213
0.984182
0.984149
0.984116
0.98408
0.984043
0.984004
0.983963
0.983919
0.983873
0.983818
0.983742
0.999313
0.998674
0.9981
0.997576
0.997092
0.996642
0.99622
0.995824
0.99545
0.995095
0.994757
0.994434
0.994125
0.993829
0.993543
0.993266
0.992999
0.99274
0.992488
0.992243
0.992004
0.991771
0.991543
0.99132
0.991101
0.990886
0.990675
0.990468
0.990264
0.990062
0.989862
0.989663
0.989467
0.989273
0.989082
0.988894
0.988707
0.988527
0.98836
0.98821
0.988081
0.987969
0.987864
0.987765
0.987669
0.987572
0.987475
0.987378
0.987282
0.987186
0.987097
0.987014
0.986939
0.986872
0.986813
0.986764
0.986722
0.986689
0.986662
0.986642
0.986627
0.986615
0.986606
0.986599
0.986593
0.986586
0.986577
0.986566
0.986551
0.986533
0.986511
0.986484
0.986451
0.986414
0.986371
0.986322
0.986269
0.98621
0.986146
0.986077
0.986002
0.985923
0.985838
0.985747
0.985651
0.98555
0.985444
0.985331
0.985208
0.985066
0.999323
0.998693
0.998127
0.997611
0.997134
0.99669
0.996275
0.995884
0.995515
0.995165
0.994832
0.994514
0.99421
0.993917
0.993635
0.993363
0.993099
0.992843
0.992595
0.992353
0.992117
0.991887
0.991662
0.991441
0.991225
0.991013
0.990804
0.990598
0.990394
0.990194
0.989995
0.989797
0.9896
0.989406
0.989215
0.989028
0.988843
0.988675
0.988557
0.988512
0.988538
0.988605
0.988689
0.988775
0.988857
0.98893
0.988995
0.989052
0.989102
0.989147
0.98918
0.989209
0.989233
0.989251
0.989263
0.989269
0.989269
0.989263
0.989251
0.989236
0.989216
0.989192
0.989165
0.989134
0.9891
0.989063
0.989022
0.988977
0.988929
0.988877
0.988821
0.98876
0.988696
0.988628
0.988555
0.988479
0.988398
0.988314
0.988226
0.988133
0.988037
0.987937
0.987832
0.987723
0.987609
0.987491
0.987369
0.98724
0.987101
0.986945
0.999333
0.998712
0.998154
0.997645
0.997175
0.996738
0.996328
0.995943
0.995579
0.995234
0.994906
0.994592
0.994292
0.994003
0.993725
0.993456
0.993196
0.992944
0.992698
0.99246
0.992227
0.991999
0.991777
0.991559
0.991345
0.991135
0.990927
0.990723
0.99052
0.99032
0.990121
0.989922
0.989725
0.98953
0.989338
0.989149
0.988966
0.988867
0.988995
0.989309
0.989726
0.990137
0.990481
0.990764
0.990986
0.991152
0.991272
0.991355
0.991408
0.991438
0.991447
0.991435
0.991409
0.991371
0.991324
0.99127
0.991212
0.991151
0.991088
0.991024
0.99096
0.990895
0.99083
0.990764
0.990699
0.990632
0.990565
0.990497
0.990427
0.990356
0.990283
0.990208
0.990131
0.990051
0.98997
0.989886
0.9898
0.989712
0.989622
0.98953
0.989435
0.989337
0.989237
0.989135
0.989029
0.988921
0.98881
0.988695
0.988572
0.988434
0.999342
0.998729
0.99818
0.997678
0.997214
0.996782
0.996378
0.995998
0.995639
0.995299
0.994975
0.994665
0.994369
0.994084
0.993809
0.993544
0.993287
0.993037
0.992795
0.992559
0.992328
0.992103
0.991883
0.991667
0.991455
0.991246
0.991041
0.990837
0.990635
0.990434
0.990234
0.990035
0.989836
0.989637
0.989441
0.98925
0.989079
0.989193
0.989888
0.990819
0.991626
0.992181
0.99256
0.992786
0.992904
0.992945
0.992937
0.992897
0.992837
0.992765
0.992685
0.992601
0.992514
0.992427
0.992341
0.992256
0.992173
0.992093
0.992015
0.991939
0.991866
0.991795
0.991727
0.991661
0.991594
0.991528
0.991461
0.991393
0.991324
0.991254
0.991182
0.991108
0.991033
0.990956
0.990877
0.990796
0.990714
0.990631
0.990546
0.99046
0.990373
0.990284
0.990194
0.990103
0.990009
0.989914
0.989816
0.989717
0.989612
0.989495
0.99935
0.998745
0.998202
0.997707
0.997249
0.996823
0.996424
0.996048
0.995693
0.995357
0.995037
0.994731
0.994438
0.994156
0.993884
0.993622
0.993368
0.993121
0.992881
0.992647
0.992418
0.992195
0.991976
0.991761
0.991551
0.991343
0.991138
0.990935
0.990733
0.990531
0.99033
0.990128
0.989926
0.989724
0.989522
0.989326
0.989235
0.989738
0.991474
0.992804
0.993623
0.994041
0.994167
0.994162
0.994083
0.993962
0.993822
0.993678
0.993538
0.993405
0.993282
0.993169
0.993066
0.99297
0.99288
0.992796
0.99272
0.99265
0.992584
0.99252
0.992457
0.992395
0.992333
0.992271
0.992208
0.992145
0.992081
0.992016
0.99195
0.991882
0.991813
0.991743
0.991672
0.9916
0.991526
0.991452
0.991377
0.991301
0.991226
0.99115
0.991074
0.990998
0.990922
0.990846
0.99077
0.990692
0.990613
0.990529
0.99043
0.990315
0.999357
0.998759
0.998221
0.997731
0.997278
0.996856
0.996461
0.996089
0.995738
0.995405
0.995088
0.994785
0.994495
0.994216
0.993947
0.993686
0.993434
0.993189
0.992951
0.992718
0.992491
0.992269
0.99205
0.991836
0.991625
0.991418
0.991212
0.991009
0.990806
0.990603
0.990399
0.990195
0.989989
0.989783
0.989576
0.989376
0.989282
0.989813
0.99184
0.993393
0.994403
0.994968
0.994972
0.994882
0.994743
0.994574
0.994396
0.99422
0.994052
0.993898
0.993759
0.993632
0.993516
0.993415
0.993326
0.993244
0.993168
0.993097
0.993028
0.992962
0.992896
0.992832
0.992768
0.992704
0.99264
0.992575
0.99251
0.992444
0.992377
0.992308
0.992239
0.992168
0.992096
0.992023
0.991949
0.991874
0.991799
0.991724
0.99165
0.991576
0.991504
0.991432
0.991362
0.991293
0.991225
0.991158
0.99109
0.99102
0.990937
0.990842
0.999362
0.998768
0.998236
0.997749
0.997299
0.996881
0.996489
0.99612
0.995771
0.995441
0.995126
0.994825
0.994536
0.994259
0.993991
0.993733
0.993482
0.993238
0.993
0.992769
0.992542
0.99232
0.992101
0.991887
0.991675
0.991466
0.991259
0.991054
0.990849
0.990644
0.990438
0.99023
0.990022
0.989815
0.989611
0.989418
0.989312
0.989811
0.99197
0.993673
0.994831
0.995536
0.995444
0.995286
0.995101
0.994902
0.994704
0.994514
0.994336
0.994172
0.994021
0.993884
0.993765
0.993659
0.993563
0.993475
0.993393
0.993316
0.993243
0.993173
0.993105
0.993038
0.992972
0.992907
0.992842
0.992776
0.992709
0.992641
0.992571
0.992499
0.992424
0.992347
0.992268
0.992186
0.992102
0.992017
0.991931
0.991845
0.99176
0.991676
0.991593
0.991513
0.991435
0.991361
0.99129
0.991222
0.991156
0.99109
0.991014
0.99093
0.999365
0.998775
0.998245
0.99776
0.997313
0.996896
0.996506
0.996139
0.995792
0.995462
0.995149
0.994849
0.994561
0.994284
0.994017
0.993759
0.993509
0.993265
0.993028
0.992796
0.992569
0.992346
0.992127
0.991911
0.991698
0.991486
0.991277
0.991069
0.990862
0.990654
0.990446
0.990239
0.990035
0.989841
0.989666
0.989517
0.989403
0.989806
0.991864
0.993555
0.994739
0.995488
0.995364
0.995182
0.994984
0.994784
0.994593
0.994415
0.99425
0.994099
0.99396
0.993835
0.993722
0.993618
0.993522
0.993433
0.993349
0.993271
0.993196
0.993125
0.993057
0.992991
0.992927
0.992863
0.992798
0.992732
0.992663
0.99259
0.992513
0.99243
0.992342
0.992249
0.992149
0.992043
0.991931
0.991815
0.991695
0.991574
0.991453
0.991335
0.991219
0.991105
0.990994
0.990887
0.990784
0.990687
0.990596
0.990511
0.990428
0.990343
0.999367
0.998778
0.998249
0.997765
0.997319
0.996903
0.996514
0.996147
0.995801
0.995472
0.995159
0.994859
0.994572
0.994295
0.994028
0.993769
0.993518
0.993274
0.993036
0.992803
0.992575
0.992351
0.99213
0.991913
0.991697
0.991483
0.991272
0.991062
0.990853
0.990646
0.990443
0.990248
0.99007
0.989931
0.989847
0.989823
0.989751
0.989689
0.990384
0.991285
0.992261
0.993096
0.993217
0.993291
0.993339
0.993362
0.993366
0.993355
0.993332
0.9933
0.993261
0.993216
0.993167
0.993116
0.993061
0.993005
0.992948
0.992891
0.992837
0.992783
0.992728
0.992674
0.992618
0.992559
0.992497
0.99243
0.992355
0.992272
0.992178
0.992072
0.991954
0.991828
0.991697
0.991559
0.991411
0.991251
0.991078
0.990891
0.990688
0.990461
0.990212
0.989954
0.9897
0.989465
0.989259
0.989088
0.988953
0.988851
0.988772
0.988705
0.999367
0.998778
0.998249
0.997766
0.99732
0.996904
0.996515
0.996149
0.995802
0.995474
0.99516
0.994861
0.994573
0.994296
0.994029
0.993769
0.993518
0.993273
0.993034
0.992799
0.99257
0.992344
0.992121
0.991901
0.991683
0.991468
0.991254
0.991045
0.990841
0.990646
0.990468
0.990321
0.990226
0.99022
0.990327
0.990505
0.990499
0.990418
0.990879
0.9913
0.991718
0.992108
0.991902
0.99172
0.991594
0.991527
0.99152
0.991563
0.99165
0.991761
0.991877
0.991986
0.992078
0.99215
0.992201
0.992233
0.992248
0.992249
0.992241
0.992222
0.992194
0.992157
0.992112
0.992056
0.991987
0.991906
0.991812
0.99171
0.991596
0.991466
0.991317
0.991146
0.990948
0.990715
0.990427
0.990075
0.989673
0.989247
0.988829
0.988465
0.988182
0.987988
0.987877
0.987836
0.987845
0.987885
0.987939
0.987994
0.988034
0.988048
0.999366
0.998777
0.998248
0.997764
0.997318
0.996902
0.996512
0.996146
0.995799
0.99547
0.995157
0.994857
0.99457
0.994293
0.994025
0.993766
0.993514
0.993268
0.993028
0.992793
0.992562
0.992335
0.99211
0.991888
0.991669
0.991452
0.991242
0.991044
0.990866
0.990719
0.990617
0.990583
0.990646
0.990843
0.991165
0.991456
0.991385
0.991238
0.991756
0.992214
0.992599
0.992906
0.99249
0.9921
0.99178
0.991512
0.991299
0.991143
0.991051
0.991027
0.991058
0.991125
0.99121
0.991298
0.991379
0.991447
0.991498
0.99153
0.991547
0.991546
0.99153
0.9915
0.991455
0.991395
0.991317
0.991218
0.991095
0.990945
0.990764
0.990543
0.990258
0.989897
0.989482
0.989048
0.988657
0.988362
0.988182
0.988117
0.988148
0.988248
0.98839
0.988549
0.988709
0.988858
0.988991
0.989103
0.989192
0.989256
0.989288
0.989287
0.999366
0.998775
0.998246
0.997762
0.997315
0.996898
0.996508
0.996141
0.995794
0.995465
0.995152
0.994852
0.994564
0.994287
0.994019
0.993759
0.993507
0.993262
0.993021
0.992786
0.992554
0.992326
0.9921
0.991877
0.991657
0.991443
0.99125
0.991103
0.991017
0.991002
0.991062
0.991208
0.991449
0.991792
0.992172
0.992299
0.991973
0.991568
0.992197
0.992764
0.993191
0.993442
0.992373
0.991409
0.990668
0.990201
0.989948
0.989855
0.989863
0.989938
0.990052
0.990184
0.990318
0.990446
0.990561
0.990658
0.990733
0.990782
0.990807
0.990803
0.990773
0.990716
0.990629
0.99051
0.990356
0.990159
0.989904
0.989602
0.989276
0.988962
0.988718
0.988587
0.98857
0.988649
0.988794
0.988979
0.989179
0.989378
0.989565
0.989735
0.989883
0.990008
0.990111
0.990193
0.990255
0.990298
0.990324
0.990332
0.990318
0.990279
0.999365
0.998775
0.998244
0.99776
0.997312
0.996896
0.996505
0.996138
0.995791
0.995461
0.995147
0.994847
0.994558
0.994281
0.994013
0.993753
0.9935
0.993254
0.993013
0.992777
0.992545
0.992315
0.992089
0.991866
0.991647
0.991455
0.991377
0.991421
0.991576
0.991798
0.992036
0.99229
0.992547
0.992797