/*--------------------------------*- C++ -*----------------------------------*\
| =========                 |                                                 |
| \\      /  F ield         | OpenFOAM: The Open Source CFD Toolbox           |
|  \\    /   O peration     | Version:  v2012                                 |
|   \\  /    A nd           | Website:  www.openfoam.com                      |
|    \\/     M anipulation  |                                                 |
\*---------------------------------------------------------------------------*/
FoamFile
{
    version     2.0;
    format      ascii;
    class       volScalarField;
    location    "400/air";
    object      specHum;
}
// * * * * * * * * * * * * * * * * * * * * * * * * * * * * * * * * * * * * * //

dimensions      [1 -3 0 0 0 0 0];


internalField   nonuniform List<scalar> 
287104
(
0.016
0.016
0.016
0.016
0.016
0.016
0.016
0.016
0.016
0.016
0.016
0.016
0.016
0.016
0.016
0.016
0.016
0.016
0.016
0.016
0.016
0.016
0.016
0.016
0.016
0.016
0.016
0.016
0.016
0.016
0.016
0.016
0.016
0.016
0.016
0.016
0.016
0.016
0.016
0.016
0.016
0.016
0.016
0.016
0.016
0.016
0.016
0.016
0.016
0.016
0.016
0.016
0.016
0.016
0.016
0.016
0.016
0.016
0.016
0.016
0.016
0.016
0.016
0.016
0.016
0.016
0.016
0.016
0.016
0.016
0.016
0.016
0.016
0.016
0.016
0.016
0.016
0.016
0.016
0.016
0.016
0.016
0.016
0.016
0.016
0.016
0.016
0.016
0.016
0.016
0.016
0.016
0.016
0.016
0.016
0.016
0.016
0.016
0.016
0.016
0.016
0.016
0.016
0.016
0.016
0.016
0.016
0.016
0.016
0.016
0.016
0.016
0.016
0.016
0.016
0.016
0.016
0.016
0.016
0.016
0.016
0.016
0.016
0.016
0.016
0.016
0.016
0.016
0.016
0.016
0.016
0.016
0.016
0.016
0.016
0.016
0.016
0.016
0.016
0.016
0.016
0.016
0.016
0.016
0.016
0.016
0.016
0.016
0.016
0.016
0.016
0.016
0.016
0.016
0.016
0.016
0.016
0.016
0.016
0.016
0.016
0.016
0.016
0.016
0.016
0.016
0.016
0.016
0.016
0.016
0.016
0.016
0.016
0.016
0.016
0.016
0.016
0.016
0.016
0.016
0.016
0.016
0.016
0.016
0.016
0.016
0.016
0.016
0.016
0.016
0.016
0.016
0.016
0.016
0.016
0.016
0.016
0.016
0.016
0.016
0.016
0.016
0.016
0.016
0.016
0.016
0.016
0.016
0.016
0.016
0.016
0.016
0.016
0.016
0.016
0.016
0.016
0.016
0.016
0.016
0.016
0.016
0.016
0.016
0.016
0.016
0.016
0.016
0.016
0.016
0.016
0.016
0.016
0.016
0.016
0.016
0.016
0.016
0.016
0.016
0.016
0.016
0.016
0.016
0.016
0.016
0.016
0.016
0.016
0.016
0.016
0.016
0.016
0.016
0.016
0.016
0.016
0.016
0.016
0.016
0.016
0.016
0.016
0.016
0.016
0.016
0.016
0.016
0.016
0.016
0.016
0.016
0.016
0.016
0.016
0.016
0.016
0.016
0.016
0.016
0.016
0.016
0.016
0.016
0.016
0.016
0.016
0.016
0.016
0.016
0.016
0.016
0.016
0.016
0.016
0.016
0.016
0.016
0.016
0.016
0.016
0.016
0.016
0.016
0.016
0.016
0.016
0.016
0.016
0.016
0.016
0.016
0.016
0.016
0.016
0.016
0.016
0.016
0.016
0.016
0.016
0.016
0.016
0.016
0.016
0.016
0.016
0.016
0.016
0.016
0.016
0.016
0.016
0.016
0.016
0.016
0.016
0.016
0.016
0.016
0.016
0.016
0.016
0.016
0.016
0.016
0.016
0.016
0.016
0.016
0.016
0.016
0.016
0.016
0.016
0.016
0.016
0.016
0.016
0.016
0.016
0.016
0.016
0.016
0.016
0.016
0.016
0.016
0.016
0.016
0.016
0.016
0.016
0.016
0.016
0.016
0.016
0.016
0.016
0.016
0.016
0.016
0.016
0.016
0.016
0.016
0.016
0.016
0.016
0.016
0.016
0.016
0.016
0.016
0.016
0.016
0.016
0.016
0.016
0.016
0.016
0.016
0.016
0.016
0.016
0.016
0.016
0.016
0.016
0.016
0.016
0.016
0.016
0.016
0.016
0.016
0.016
0.016
0.016
0.016
0.016
0.016
0.016
0.016
0.016
0.016
0.016
0.016
0.016
0.016
0.016
0.016
0.016
0.016
0.016
0.016
0.016
0.0160001
0.0160001
0.0160001
0.0160001
0.0160001
0.0160001
0.0160001
0.0160001
0.0160001
0.0160001
0.0160001
0.0160001
0.0160001
0.016
0.016
0.016
0.016
0.016
0.016
0.016
0.016
0.016
0.016
0.016
0.016
0.016
0.016
0.016
0.016
0.016
0.016
0.016
0.016
0.016
0.016
0.016
0.016
0.016
0.016
0.016
0.016
0.016
0.016
0.016
0.016
0.016
0.016
0.016
0.016
0.016
0.016
0.016
0.016
0.016
0.016
0.016
0.016
0.016
0.016
0.016
0.016
0.016
0.016
0.0160001
0.0160001
0.0160001
0.0160001
0.0160001
0.0160001
0.0160001
0.0160001
0.0160001
0.0160001
0.0160001
0.0160001
0.0160001
0.0160001
0.0160001
0.0160001
0.0160001
0.0160001
0.0160001
0.0160001
0.0160002
0.0160002
0.0160002
0.0160002
0.0160002
0.0160002
0.0160002
0.0160002
0.0160002
0.0160002
0.0160002
0.0160002
0.0160002
0.0160003
0.0160003
0.0160003
0.0160003
0.0160003
0.0160003
0.0160004
0.016
0.016
0.016
0.016
0.016
0.016
0.016
0.016
0.016
0.016
0.016
0.016
0.016
0.016
0.016
0.016
0.016
0.016
0.016
0.016
0.016
0.016
0.016
0.016
0.016
0.016
0.016
0.016
0.016
0.016
0.016
0.016
0.016
0.0160001
0.0160001
0.0160001
0.0160001
0.0160001
0.0160001
0.0160001
0.0160001
0.0160002
0.0160002
0.0160002
0.0160002
0.0160002
0.0160002
0.0160003
0.0160003
0.0160003
0.0160003
0.0160003
0.0160003
0.0160003
0.0160004
0.0160004
0.0160004
0.0160004
0.0160004
0.0160004
0.0160004
0.0160004
0.0160005
0.0160005
0.0160005
0.0160005
0.0160005
0.0160005
0.0160005
0.0160006
0.0160006
0.0160006
0.0160006
0.0160006
0.0160006
0.0160007
0.0160007
0.0160007
0.0160007
0.0160007
0.0160008
0.0160008
0.0160008
0.0160008
0.0160009
0.0160009
0.0160009
0.016001
0.016001
0.016001
0.016
0.016
0.016
0.016
0.016
0.016
0.016
0.016
0.016
0.016
0.016
0.016
0.016
0.016
0.016
0.016
0.016
0.016
0.016
0.016
0.0160001
0.0160001
0.0160001
0.0160001
0.0160002
0.0160002
0.0160002
0.0160003
0.0160003
0.0160004
0.0160004
0.0160005
0.0160005
0.0160006
0.0160006
0.0160007
0.0160008
0.0160008
0.0160009
0.0160009
0.016001
0.0160011
0.0160011
0.0160012
0.0160012
0.0160013
0.0160013
0.0160013
0.0160014
0.0160014
0.0160014
0.0160015
0.0160015
0.0160015
0.0160015
0.0160016
0.0160016
0.0160016
0.0160017
0.0160017
0.0160017
0.0160018
0.0160018
0.0160018
0.0160019
0.0160019
0.0160019
0.016002
0.016002
0.016002
0.0160021
0.0160021
0.0160021
0.0160022
0.0160022
0.0160022
0.0160023
0.0160023
0.0160023
0.0160024
0.0160024
0.0160024
0.0160025
0.0160025
0.0160025
0.0160025
0.0160026
0.0160026
0.0160026
0.0160026
0.016
0.016
0.016
0.016
0.016
0.016
0.016
0.016
0.016
0.016
0.016
0.016
0.0160001
0.0160001
0.0160002
0.0160003
0.0160005
0.0160006
0.0160008
0.016001
0.0160013
0.0160015
0.0160018
0.016002
0.0160023
0.0160025
0.0160028
0.0160031
0.0160034
0.0160036
0.0160039
0.0160041
0.0160043
0.0160045
0.0160047
0.0160049
0.016005
0.0160052
0.0160053
0.0160055
0.0160056
0.0160058
0.016006
0.0160062
0.0160063
0.0160065
0.0160067
0.0160068
0.016007
0.0160072
0.0160073
0.0160074
0.0160076
0.0160077
0.0160078
0.0160079
0.016008
0.0160081
0.0160082
0.0160083
0.0160084
0.0160084
0.0160085
0.0160085
0.0160086
0.0160086
0.0160086
0.0160087
0.0160087
0.0160087
0.0160087
0.0160087
0.0160087
0.0160087
0.0160087
0.0160087
0.0160087
0.0160087
0.0160086
0.0160086
0.0160086
0.0160085
0.0160085
0.0160084
0.0160084
0.0160084
0.0160083
0.0160083
0.0160083
0.0160083
0.016
0.016
0.016
0.016
0.016
0.016
0.016
0.016
0.016
0.016
0.0160005
0.0160015
0.0160029
0.0160046
0.0160066
0.0160089
0.0160113
0.0160138
0.0160164
0.0160189
0.0160214
0.0160238
0.016026
0.0160282
0.0160301
0.0160319
0.0160335
0.0160349
0.0160361
0.0160371
0.0160379
0.0160383
0.0160389
0.0160395
0.0160403
0.0160412
0.0160421
0.0160431
0.0160441
0.0160451
0.016046
0.0160468
0.0160475
0.0160481
0.0160486
0.016049
0.0160492
0.0160494
0.0160495
0.0160494
0.0160493
0.0160491
0.0160488
0.0160485
0.016048
0.0160475
0.016047
0.0160463
0.0160457
0.016045
0.0160442
0.0160435
0.0160427
0.0160419
0.0160411
0.0160402
0.0160394
0.0160386
0.0160377
0.0160369
0.016036
0.0160352
0.0160344
0.0160336
0.0160328
0.016032
0.0160312
0.0160305
0.0160297
0.016029
0.016028
0.0160271
0.0160261
0.0160252
0.0160243
0.0160235
0.0160228
0.0160221
0.0160215
0.016021
0.016
0.016
0.016
0.016
0.016
0.016
0.016
0.016
0.016
0.0160001
0.0160298
0.016059
0.0160881
0.0161172
0.0161463
0.0161753
0.0162041
0.0162325
0.0162603
0.0162872
0.0163129
0.0163374
0.0163603
0.0163817
0.0164013
0.0164193
0.0164356
0.0164504
0.0164639
0.0164763
0.0164876
0.0164982
0.0165076
0.0165159
0.0165231
0.0165294
0.0165349
0.0165394
0.0165432
0.0165461
0.0165481
0.0165494
0.01655
0.0165498
0.0165488
0.016547
0.0165445
0.0165413
0.0165375
0.0165329
0.0165278
0.0165222
0.0165161
0.0165096
0.0165026
0.0164954
0.0164878
0.01648
0.0164719
0.0164637
0.0164553
0.0164467
0.0164381
0.0164294
0.0164207
0.0164119
0.0164032
0.0163944
0.0163857
0.0163771
0.0163686
0.0163601
0.0163519
0.0163437
0.0163357
0.0163279
0.0163202
0.0163126
0.0163047
0.0162933
0.0162421
0.016203
0.0161724
0.0161479
0.0161281
0.016112
0.0160988
0.0160879
0.016079
0.0160717
0.016
0.016
0.016
0.016
0.016
0.016
0.016
0.016
0.016
0.0160001
0.0160296
0.0160587
0.0160877
0.0161169
0.0161463
0.0161757
0.016205
0.016234
0.0162625
0.0162903
0.0163169
0.0163424
0.0163663
0.0163886
0.0164091
0.0164279
0.0164449
0.0164603
0.0164742
0.0164868
0.0164984
0.0165091
0.0165191
0.0165287
0.016538
0.0165471
0.0165562
0.0165652
0.0165742
0.0165834
0.0165926
0.0166021
0.0166116
0.016621
0.0166303
0.0166396
0.0166487
0.0166576
0.0166662
0.0166746
0.0166827
0.0166903
0.0166976
0.0167043
0.0167106
0.0167163
0.0167214
0.0167258
0.0167295
0.0167324
0.0167345
0.0167357
0.016736
0.0167352
0.0167334
0.0167306
0.0167266
0.0167215
0.0167152
0.0167078
0.0166993
0.0166897
0.0166791
0.0166676
0.0166553
0.0166423
0.0166287
0.0166146
0.0166
0.0165842
0.0165104
0.0164463
0.0163907
0.0163427
0.0163012
0.0162654
0.0162346
0.016208
0.0161854
0.016166
0.016
0.016
0.016
0.016
0.016
0.016
0.016
0.016
0.016
0.0160001
0.0160294
0.0160583
0.0160871
0.0161161
0.0161452
0.0161743
0.0162034
0.0162322
0.0162604
0.0162879
0.0163143
0.0163395
0.0163631
0.0163849
0.016405
0.0164232
0.0164395
0.0164542
0.0164672
0.016479
0.0164895
0.0164992
0.0165082
0.0165166
0.0165247
0.0165327
0.0165406
0.0165483
0.016556
0.0165637
0.0165715
0.0165794
0.0165875
0.0165955
0.0166035
0.0166115
0.0166196
0.0166277
0.0166358
0.0166439
0.0166521
0.0166602
0.0166684
0.0166766
0.0166848
0.016693
0.0167014
0.0167098
0.0167183
0.0167269
0.0167357
0.0167446
0.0167536
0.0167627
0.016772
0.0167814
0.0167909
0.0168005
0.0168101
0.0168196
0.016829
0.0168382
0.016847
0.0168553
0.0168629
0.0168698
0.0168756
0.0168801
0.0168831
0.0168837
0.0168163
0.0167548
0.0166977
0.0166441
0.0165935
0.0165456
0.0165004
0.0164576
0.016417
0.0163775
0.016
0.016
0.016
0.016
0.016
0.016
0.016
0.016
0.016
0.0160001
0.0160292
0.0160578
0.0160864
0.0161151
0.016144
0.0161729
0.0162017
0.0162302
0.0162583
0.0162855
0.0163117
0.0163365
0.0163599
0.0163815
0.0164013
0.0164193
0.0164354
0.0164498
0.0164626
0.016474
0.0164843
0.0164937
0.0165024
0.0165105
0.0165184
0.016526
0.0165336
0.016541
0.0165484
0.0165557
0.0165632
0.0165707
0.0165783
0.0165859
0.0165933
0.0166008
0.0166082
0.0166155
0.0166228
0.01663
0.0166371
0.016644
0.0166506
0.0166568
0.0166628
0.0166686
0.0166741
0.0166795
0.0166847
0.0166896
0.0166944
0.016699
0.0167034
0.0167076
0.0167117
0.0167155
0.0167192
0.0167228
0.0167262
0.0167296
0.0167329
0.0167361
0.0167394
0.0167427
0.016746
0.0167495
0.0167532
0.0167568
0.0167597
0.0167572
0.0167006
0.0166571
0.0166226
0.0165944
0.0165709
0.0165508
0.0165323
0.0165153
0.0164998
0.016486
0.016
0.016
0.016
0.016
0.016
0.016
0.016
0.016
0.016
0.0160001
0.016029
0.0160574
0.0160857
0.0161142
0.0161428
0.0161715
0.0162001
0.0162283
0.0162561
0.0162831
0.016309
0.0163336
0.0163568
0.0163782
0.0163977
0.0164155
0.0164314
0.0164456
0.0164583
0.0164696
0.0164798
0.016489
0.0164976
0.0165057
0.0165134
0.016521
0.0165286
0.016536
0.0165433
0.0165507
0.0165581
0.0165657
0.0165734
0.016581
0.0165885
0.0165961
0.0166036
0.016611
0.0166184
0.0166257
0.0166329
0.01664
0.0166469
0.0166537
0.0166604
0.0166669
0.0166733
0.0166796
0.0166856
0.0166913
0.0166968
0.0167021
0.0167072
0.0167122
0.016717
0.0167215
0.0167258
0.0167298
0.0167336
0.016737
0.0167401
0.0167427
0.0167449
0.0167467
0.0167479
0.0167486
0.0167485
0.0167476
0.0167452
0.0167366
0.016676
0.0166282
0.0165889
0.0165556
0.0165268
0.0165014
0.016479
0.0164592
0.0164422
0.0164285
0.016
0.016
0.016
0.016
0.016
0.016
0.016
0.016
0.016
0.0160001
0.0160287
0.0160569
0.016085
0.0161133
0.0161417
0.0161701
0.0161984
0.0162264
0.0162539
0.0162807
0.0163064
0.0163308
0.0163536
0.0163748
0.0163942
0.0164117
0.0164275
0.0164416
0.0164541
0.0164654
0.0164755
0.0164847
0.0164932
0.0165013
0.016509
0.0165166
0.0165243
0.0165318
0.0165392
0.0165466
0.0165542
0.0165619
0.0165698
0.0165777
0.0165854
0.0165932
0.0166011
0.0166089
0.0166167
0.0166244
0.0166321
0.0166397
0.0166471
0.0166545
0.0166618
0.016669
0.0166761
0.0166832
0.0166903
0.0166973
0.0167042
0.0167112
0.0167182
0.0167252
0.0167322
0.0167393
0.0167464
0.0167535
0.0167606
0.0167678
0.016775
0.0167822
0.0167894
0.0167966
0.0168037
0.0168107
0.0168176
0.0168244
0.016831
0.016835
0.0167792
0.0167349
0.0166985
0.0166673
0.0166395
0.0166144
0.0165916
0.0165708
0.0165517
0.0165343
0.016
0.016
0.016
0.016
0.016
0.016
0.016
0.016
0.016
0.0160001
0.0160285
0.0160564
0.0160844
0.0161124
0.0161405
0.0161687
0.0161968
0.0162246
0.0162518
0.0162783
0.0163037
0.0163279
0.0163505
0.0163715
0.0163906
0.0164079
0.0164235
0.0164374
0.0164498
0.0164609
0.0164709
0.01648
0.0164884
0.0164963
0.0165039
0.0165113
0.0165188
0.0165261
0.0165333
0.0165406
0.016548
0.0165556
0.0165636
0.0165715
0.0165794
0.0165874
0.0165955
0.0166037
0.0166119
0.0166201
0.0166283
0.0166364
0.0166444
0.0166524
0.0166603
0.0166682
0.016676
0.0166839
0.0166917
0.0166996
0.0167076
0.0167156
0.0167236
0.0167318
0.01674
0.0167483
0.0167567
0.0167651
0.0167737
0.0167823
0.016791
0.0167998
0.0168086
0.0168174
0.0168261
0.0168348
0.0168435
0.016852
0.0168604
0.0168678
0.0168132
0.0167662
0.0167247
0.016687
0.0166525
0.0166206
0.0165907
0.0165627
0.0165364
0.0165114
0.016
0.016
0.016
0.016
0.016
0.016
0.016
0.016
0.016
0.0160001
0.0160283
0.016056
0.0160837
0.0161115
0.0161394
0.0161674
0.0161952
0.0162227
0.0162497
0.0162759
0.016301
0.0163248
0.016347
0.0163675
0.0163862
0.0164029
0.0164178
0.016431
0.0164427
0.016453
0.0164621
0.0164702
0.0164774
0.0164841
0.0164903
0.0164963
0.0165022
0.016508
0.0165136
0.0165194
0.0165255
0.0165319
0.0165389
0.0165461
0.0165535
0.0165611
0.016569
0.0165771
0.0165853
0.0165934
0.0166014
0.0166093
0.016617
0.0166246
0.0166319
0.0166391
0.0166462
0.0166531
0.0166598
0.0166663
0.0166727
0.0166789
0.0166849
0.0166906
0.0166962
0.0167015
0.0167065
0.0167112
0.0167157
0.0167197
0.0167234
0.0167266
0.0167294
0.0167316
0.0167334
0.0167346
0.0167351
0.0167351
0.0167344
0.016732
0.0166704
0.0166163
0.0165681
0.0165248
0.0164857
0.0164502
0.0164179
0.0163885
0.0163621
0.016338
0.016
0.016
0.016
0.016
0.016
0.016
0.016
0.016
0.016
0.0160001
0.0160281
0.0160556
0.0160831
0.0161106
0.0161383
0.016166
0.0161934
0.0162205
0.0162468
0.0162721
0.0162961
0.0163183
0.0163387
0.0163569
0.0163729
0.0163867
0.0163983
0.016408
0.016416
0.0164226
0.0164278
0.016432
0.0164353
0.0164379
0.0164401
0.016442
0.016444
0.016446
0.0164482
0.016451
0.0164546
0.0164592
0.0164648
0.0164712
0.0164782
0.016486
0.0164942
0.0165028
0.0165114
0.01652
0.0165282
0.0165361
0.0165435
0.0165504
0.0165567
0.0165625
0.0165678
0.0165724
0.0165764
0.0165798
0.0165826
0.0165849
0.0165866
0.0165878
0.0165884
0.0165886
0.0165883
0.0165876
0.0165864
0.0165847
0.0165826
0.0165802
0.0165772
0.0165739
0.0165702
0.0165661
0.0165617
0.0165567
0.0165512
0.0165409
0.0164791
0.0164282
0.0163852
0.0163484
0.0163164
0.0162884
0.0162638
0.0162423
0.0162236
0.0162072
0.016
0.016
0.016
0.016
0.016
0.016
0.016
0.016
0.016
0.0160001
0.0160278
0.0160551
0.0160822
0.016109
0.0161353
0.0161608
0.0161851
0.0162078
0.0162285
0.0162469
0.0162628
0.0162762
0.0162869
0.0162953
0.0163015
0.0163057
0.0163083
0.0163095
0.0163097
0.016309
0.0163077
0.0163059
0.0163036
0.0163012
0.0162987
0.0162964
0.0162947
0.0162934
0.0162928
0.0162935
0.0162955
0.0162991
0.0163044
0.0163111
0.016319
0.0163281
0.0163381
0.0163488
0.0163597
0.0163705
0.0163809
0.0163906
0.0163994
0.0164071
0.0164135
0.0164186
0.0164219
0.0164237
0.016424
0.0164232
0.0164215
0.0164191
0.016416
0.0164126
0.0164087
0.0164046
0.0164002
0.0163956
0.0163909
0.0163861
0.0163812
0.0163762
0.0163711
0.016366
0.0163608
0.0163555
0.01635
0.0163443
0.0163378
0.0163274
0.0162785
0.0162407
0.0162106
0.0161859
0.0161655
0.0161483
0.0161338
0.0161215
0.0161112
0.0161026
0.016
0.016
0.016
0.016
0.016
0.016
0.016
0.016
0.016
0.016
0.0160001
0.0160004
0.0160006
0.0160009
0.0160013
0.0160017
0.0160021
0.0160025
0.016003
0.0160035
0.016004
0.0160044
0.0160049
0.0160053
0.0160058
0.0160061
0.0160065
0.0160068
0.0160071
0.0160074
0.0160076
0.0160078
0.0160079
0.016008
0.0160081
0.0160082
0.0160082
0.0160083
0.0160084
0.0160084
0.0160085
0.0160087
0.0160089
0.0160092
0.0160095
0.0160099
0.0160103
0.0160107
0.0160112
0.0160118
0.0160123
0.0160129
0.0160135
0.0160141
0.0160147
0.0160153
0.0160159
0.0160165
0.0160171
0.0160176
0.0160181
0.0160186
0.0160191
0.0160195
0.0160199
0.0160202
0.0160205
0.0160208
0.0160211
0.0160213
0.0160215
0.0160217
0.0160218
0.0160219
0.016022
0.0160221
0.0160222
0.0160222
0.0160222
0.0160221
0.0160218
0.0160214
0.016021
0.0160206
0.0160202
0.0160198
0.0160194
0.0160191
0.0160188
0.0160186
0.016
0.016
0.016
0.016
0.016
0.016
0.016
0.016
0.016
0.016
0.016
0.016
0.016
0.016
0.016
0.016
0.016
0.016
0.016
0.016
0.016
0.016
0.0160001
0.0160001
0.0160001
0.0160001
0.0160001
0.0160001
0.0160001
0.0160001
0.0160001
0.0160002
0.0160002
0.0160002
0.0160002
0.0160002
0.0160002
0.0160002
0.0160002
0.0160002
0.0160002
0.0160002
0.0160002
0.0160003
0.0160003
0.0160003
0.0160003
0.0160003
0.0160004
0.0160004
0.0160004
0.0160004
0.0160005
0.0160005
0.0160006
0.0160006
0.0160006
0.0160007
0.0160007
0.0160008
0.0160008
0.0160009
0.0160009
0.016001
0.016001
0.0160011
0.0160011
0.0160012
0.0160013
0.0160013
0.0160014
0.0160015
0.0160015
0.0160016
0.0160017
0.0160018
0.0160019
0.0160019
0.016002
0.0160021
0.0160022
0.0160023
0.0160024
0.0160025
0.0160026
0.0160027
0.0160029
0.016003
0.0160031
0.0160032
0.016
0.016
0.016
0.016
0.016
0.016
0.016
0.016
0.016
0.016
0.016
0.016
0.016
0.016
0.016
0.016
0.016
0.016
0.016
0.016
0.016
0.016
0.016
0.016
0.016
0.016
0.016
0.016
0.016
0.016
0.016
0.016
0.016
0.016
0.016
0.016
0.016
0.016
0.016
0.016
0.016
0.016
0.016
0.016
0.016
0.016
0.016
0.016
0.0160001
0.0160001
0.0160001
0.0160001
0.0160001
0.0160001
0.0160001
0.0160001
0.0160001
0.0160001
0.0160002
0.0160002
0.0160002
0.0160002
0.0160002
0.0160003
0.0160003
0.0160003
0.0160004
0.0160004
0.0160004
0.0160005
0.0160005
0.0160006
0.0160006
0.0160007
0.0160007
0.0160008
0.0160009
0.0160009
0.016001
0.0160011
0.0160012
0.0160013
0.0160014
0.0160015
0.0160016
0.0160017
0.0160018
0.0160019
0.016002
0.0160021
0.016
0.016
0.016
0.016
0.016
0.016
0.016
0.016
0.016
0.016
0.016
0.016
0.016
0.016
0.016
0.016
0.016
0.016
0.016
0.016
0.016
0.016
0.016
0.016
0.016
0.016
0.016
0.016
0.016
0.016
0.016
0.016
0.016
0.016
0.016
0.016
0.016
0.016
0.016
0.016
0.016
0.016
0.0160001
0.0160001
0.0160001
0.0160002
0.0160002
0.0160002
0.0160003
0.0160003
0.0160003
0.0160003
0.0160004
0.0160004
0.0160004
0.0160005
0.0160005
0.0160006
0.0160006
0.0160007
0.0160007
0.0160008
0.0160009
0.016001
0.0160011
0.0160012
0.0160013
0.0160014
0.0160015
0.0160017
0.0160018
0.016002
0.0160021
0.0160023
0.0160024
0.0160026
0.0160028
0.0160029
0.0160031
0.0160033
0.0160034
0.0160036
0.0160037
0.0160039
0.016004
0.0160042
0.0160043
0.0160044
0.0160046
0.0160047
0.016
0.016
0.016
0.016
0.016
0.016
0.016
0.016
0.016
0.016
0.016
0.016
0.016
0.016
0.016
0.016
0.016
0.016
0.016
0.016
0.016
0.016
0.016
0.016
0.016
0.016
0.016
0.016
0.016
0.016
0.016
0.016
0.016
0.016
0.016
0.016
0.016
0.016
0.016
0.016
0.0160001
0.0160002
0.0160004
0.0160006
0.0160008
0.016001
0.0160012
0.0160014
0.0160016
0.0160018
0.016002
0.0160021
0.0160024
0.0160026
0.0160028
0.0160031
0.0160034
0.0160037
0.0160041
0.0160045
0.0160049
0.0160053
0.0160057
0.0160062
0.0160066
0.0160071
0.0160076
0.0160081
0.0160086
0.016009
0.0160095
0.01601
0.0160104
0.0160108
0.0160112
0.0160116
0.016012
0.0160124
0.0160127
0.016013
0.0160133
0.0160135
0.0160138
0.016014
0.0160141
0.0160143
0.0160144
0.0160145
0.0160146
0.0160146
0.016
0.016
0.016
0.016
0.016
0.016
0.016
0.016
0.016
0.016
0.016
0.016
0.016
0.016
0.016
0.016
0.016
0.016
0.016
0.016
0.016
0.016
0.016
0.016
0.016
0.016
0.016
0.016
0.016
0.016
0.016
0.016
0.016
0.016
0.016
0.016
0.016
0.016
0.0160001
0.0160003
0.0160008
0.0160015
0.0160025
0.0160035
0.0160047
0.0160058
0.016007
0.0160081
0.0160092
0.0160103
0.0160114
0.0160124
0.0160136
0.0160147
0.0160159
0.016017
0.0160182
0.0160193
0.0160204
0.0160215
0.0160226
0.0160236
0.0160246
0.0160256
0.0160265
0.0160274
0.0160283
0.0160291
0.0160298
0.0160306
0.0160312
0.0160319
0.0160325
0.016033
0.0160335
0.0160339
0.0160343
0.0160347
0.016035
0.0160352
0.0160354
0.0160356
0.0160357
0.0160358
0.0160359
0.0160359
0.0160359
0.0160358
0.0160357
0.0160356
0.016
0.016
0.016
0.016
0.016
0.016
0.016
0.016
0.016
0.016
0.016
0.016
0.016
0.016
0.016
0.016
0.016
0.016
0.016
0.016
0.016
0.016
0.016
0.016
0.016
0.016
0.016
0.016
0.016
0.016
0.016
0.016
0.016
0.016
0.016
0.016
0.016
0.016
0.0160004
0.0160017
0.0160043
0.0160079
0.016012
0.0160164
0.0160208
0.0160251
0.0160292
0.016033
0.0160364
0.0160396
0.0160424
0.016045
0.0160473
0.0160494
0.0160513
0.0160531
0.0160546
0.016056
0.0160573
0.0160584
0.0160595
0.0160604
0.0160613
0.0160621
0.0160628
0.0160634
0.016064
0.0160645
0.016065
0.0160654
0.0160657
0.016066
0.0160662
0.0160664
0.0160665
0.0160666
0.0160667
0.0160667
0.0160666
0.0160665
0.0160664
0.0160662
0.016066
0.0160658
0.0160656
0.0160653
0.016065
0.0160646
0.0160643
0.0160639
0.016
0.016
0.016
0.016
0.016
0.016
0.016
0.016
0.016
0.016
0.016
0.016
0.016
0.016
0.016
0.016
0.016
0.016
0.016
0.016
0.016
0.016
0.016
0.016
0.016
0.016
0.016
0.016
0.016
0.016
0.016
0.016
0.016
0.016
0.016
0.016
0.016
0.0160001
0.0160021
0.0160081
0.0160181
0.0160299
0.0160416
0.0160526
0.0160624
0.016071
0.0160783
0.0160844
0.0160895
0.0160937
0.016097
0.0160997
0.0161018
0.0161033
0.0161045
0.0161052
0.0161058
0.0161061
0.0161062
0.0161062
0.0161061
0.016106
0.0161058
0.0161055
0.0161052
0.0161048
0.0161045
0.0161041
0.0161037
0.0161033
0.0161028
0.0161023
0.0161019
0.0161014
0.0161008
0.0161003
0.0160997
0.0160992
0.0160986
0.016098
0.0160973
0.0160967
0.0160961
0.0160954
0.0160947
0.016094
0.0160933
0.0160926
0.0160919
0.0160912
0.016
0.016
0.016
0.016
0.016
0.016
0.016
0.016
0.016
0.016
0.016
0.016
0.016
0.016
0.016
0.016
0.016
0.016
0.016
0.016
0.016
0.016
0.016
0.016
0.016
0.016
0.016
0.016
0.016
0.016
0.016
0.016
0.016
0.016
0.016
0.016
0.016
0.0160003
0.0160084
0.016026
0.0160486
0.0160711
0.0160901
0.0161058
0.0161183
0.0161282
0.0161361
0.0161422
0.0161469
0.0161503
0.0161526
0.016154
0.0161545
0.0161544
0.0161539
0.0161529
0.0161518
0.0161504
0.016149
0.0161475
0.016146
0.0161445
0.016143
0.0161415
0.0161401
0.0161387
0.0161373
0.016136
0.0161347
0.0161335
0.0161323
0.0161311
0.0161299
0.0161288
0.0161277
0.0161266
0.0161255
0.0161244
0.0161234
0.0161223
0.0161212
0.0161202
0.0161191
0.016118
0.016117
0.0161159
0.0161149
0.0161138
0.0161127
0.0161117
0.016
0.016
0.016
0.016
0.016
0.016
0.016
0.016
0.016
0.016
0.016
0.016
0.016
0.016
0.016
0.016
0.016
0.016
0.016
0.016
0.016
0.016
0.016
0.016
0.016
0.016
0.016
0.016
0.016
0.016
0.016
0.016
0.016
0.016
0.016
0.016
0.0160001
0.0160005
0.0160093
0.0160287
0.0160538
0.0160784
0.0160997
0.0161174
0.0161318
0.0161434
0.0161526
0.01616
0.0161657
0.01617
0.0161731
0.0161751
0.0161762
0.0161764
0.016176
0.0161752
0.016174
0.0161725
0.0161708
0.016169
0.0161672
0.0161653
0.0161634
0.0161615
0.0161597
0.0161579
0.0161562
0.0161545
0.0161529
0.0161513
0.0161497
0.0161482
0.0161467
0.0161453
0.0161439
0.0161425
0.0161412
0.0161399
0.0161386
0.0161373
0.016136
0.0161347
0.0161335
0.0161322
0.0161309
0.0161297
0.0161284
0.0161271
0.0161259
0.0161247
0.016
0.016
0.016
0.016
0.016
0.016
0.016
0.016
0.016
0.016
0.016
0.016
0.016
0.016
0.016
0.016
0.016
0.016
0.016
0.016
0.016
0.016
0.016
0.016
0.016
0.016
0.016
0.016
0.016
0.016
0.016
0.016
0.016
0.016
0.0160001
0.0160002
0.0160004
0.0160008
0.0160088
0.0160269
0.0160508
0.0160743
0.0160946
0.0161115
0.0161252
0.0161364
0.0161456
0.0161529
0.0161588
0.0161634
0.016167
0.0161698
0.0161718
0.0161731
0.0161739
0.0161741
0.0161739
0.0161734
0.0161726
0.0161716
0.0161704
0.0161691
0.0161677
0.0161662
0.0161647
0.0161632
0.0161617
0.0161602
0.0161587
0.0161573
0.0161558
0.0161544
0.016153
0.0161517
0.0161503
0.016149
0.0161478
0.0161465
0.0161452
0.016144
0.0161428
0.0161415
0.0161403
0.0161391
0.0161378
0.0161365
0.0161353
0.016134
0.0161327
0.0161315
0.016
0.016
0.016
0.016
0.016
0.016
0.016
0.016
0.016
0.016
0.016
0.016
0.016
0.016
0.016
0.016
0.016
0.016
0.016
0.016
0.016
0.016
0.016
0.016
0.016
0.016
0.016
0.016
0.016
0.016
0.016
0.016
0.0160001
0.0160002
0.0160005
0.0160011
0.0160017
0.0160021
0.0160082
0.0160223
0.0160411
0.0160597
0.0160757
0.0160889
0.0160995
0.0161083
0.0161155
0.0161218
0.0161274
0.0161324
0.016137
0.0161411
0.0161447
0.0161479
0.0161506
0.0161528
0.0161546
0.0161559
0.0161569
0.0161575
0.0161578
0.0161579
0.0161577
0.0161574
0.0161569
0.0161563
0.0161556
0.0161548
0.016154
0.0161531
0.0161522
0.0161513
0.0161504
0.0161494
0.0161485
0.0161475
0.0161466
0.0161456
0.0161446
0.0161436
0.0161426
0.0161416
0.0161405
0.0161395
0.0161384
0.0161373
0.0161362
0.0161351
0.016134
0.0161328
0.016
0.016
0.016
0.016
0.016
0.016
0.016
0.016
0.016
0.016
0.016
0.016
0.016
0.016
0.016
0.016
0.016
0.016
0.016
0.016
0.016
0.016
0.016
0.016
0.016
0.016
0.016
0.016
0.016
0.016
0.016
0.0160001
0.0160003
0.0160009
0.0160021
0.0160045
0.0160063
0.0160072
0.0160075
0.016009
0.0160126
0.0160176
0.0160233
0.0160296
0.0160362
0.0160431
0.0160501
0.0160573
0.0160648
0.0160723
0.0160799
0.0160872
0.0160943
0.0161009
0.016107
0.0161126
0.0161175
0.0161218
0.0161255
0.0161287
0.0161314
0.0161336
0.0161354
0.0161368
0.016138
0.0161388
0.0161395
0.0161399
0.0161401
0.0161402
0.0161402
0.0161401
0.0161398
0.0161395
0.0161391
0.0161386
0.016138
0.0161373
0.0161365
0.0161355
0.0161342
0.0161326
0.0161308
0.0161289
0.016127
0.0161252
0.0161236
0.0161223
0.0161212
0.0161203
0.016
0.016
0.016
0.016
0.016
0.016
0.016
0.016
0.016
0.016
0.016
0.016
0.016
0.016
0.016
0.016
0.016
0.016
0.016
0.016
0.016
0.016
0.016
0.016
0.016
0.016
0.016
0.016
0.016
0.0160001
0.0160002
0.0160006
0.0160014
0.0160032
0.016007
0.0160146
0.0160189
0.0160211
0.016022
0.0160219
0.0160219
0.0160223
0.0160229
0.0160239
0.0160252
0.016027
0.0160294
0.0160325
0.0160365
0.0160414
0.016047
0.016053
0.0160594
0.0160659
0.0160723
0.0160785
0.0160843
0.0160897
0.0160947
0.0160992
0.0161032
0.0161068
0.0161099
0.0161127
0.016115
0.016117
0.0161188
0.0161202
0.0161213
0.0161222
0.0161229
0.0161234
0.0161236
0.0161235
0.016123
0.0161218
0.0161199
0.0161173
0.016114
0.0161104
0.0161069
0.0161035
0.0161004
0.0160978
0.0160956
0.0160939
0.0160926
0.0160917
0.016091
0.0160907
0.016
0.016
0.016
0.016
0.016
0.016
0.016
0.016
0.016
0.016
0.016
0.016
0.016
0.016
0.016
0.016
0.016
0.016
0.016
0.016
0.016
0.016
0.016
0.016
0.016
0.016
0.016
0.016
0.0160001
0.0160004
0.016001
0.0160022
0.0160046
0.0160095
0.0160191
0.0160365
0.0160422
0.0160452
0.0160468
0.0160473
0.0160473
0.0160472
0.0160473
0.0160474
0.0160476
0.0160476
0.0160475
0.0160473
0.0160474
0.0160478
0.016049
0.0160509
0.0160536
0.0160569
0.0160607
0.0160647
0.0160689
0.0160731
0.0160771
0.016081
0.0160846
0.016088
0.0160911
0.0160939
0.0160964
0.0160986
0.0161004
0.016102
0.0161033
0.0161042
0.0161046
0.0161042
0.0161031
0.0161011
0.0160987
0.016096
0.0160935
0.0160911
0.016089
0.0160873
0.0160859
0.0160849
0.0160841
0.0160834
0.016083
0.0160827
0.0160825
0.0160824
0.0160824
0.0160824
0.016
0.016
0.016
0.016
0.016
0.016
0.016
0.016
0.016
0.016
0.016
0.016
0.016
0.016
0.016
0.016
0.016
0.016
0.016
0.016
0.016
0.016
0.016
0.016
0.016
0.016
0.016
0.0160002
0.0160007
0.0160018
0.0160038
0.0160074
0.0160135
0.0160241
0.0160418
0.0160702
0.0160712
0.0160723
0.0160732
0.016074
0.016074
0.0160736
0.0160733
0.0160733
0.0160743
0.0160744
0.0160736
0.0160716
0.0160687
0.0160659
0.0160637
0.0160623
0.0160619
0.0160623
0.0160634
0.0160651
0.0160672
0.0160695
0.016072
0.0160744
0.0160768
0.0160791
0.0160813
0.0160832
0.0160849
0.0160864
0.0160875
0.0160881
0.0160882
0.0160877
0.0160868
0.0160859
0.016085
0.0160841
0.0160833
0.0160826
0.016082
0.0160815
0.016081
0.0160807
0.0160804
0.0160802
0.01608
0.0160799
0.0160798
0.0160798
0.0160797
0.0160797
0.0160798
0.0160798
0.016
0.016
0.016
0.016
0.016
0.016
0.016
0.016
0.016
0.016
0.016
0.016
0.016
0.016
0.016
0.016
0.016
0.016
0.016
0.016
0.016
0.016
0.016
0.016
0.016
0.016
0.0160002
0.0160011
0.0160034
0.0160074
0.0160134
0.0160219
0.0160337
0.01605
0.016073
0.0161017
0.0160928
0.0160915
0.0160903
0.0160887
0.0160862
0.0160822
0.016077
0.016074
0.0160717
0.0160704
0.0160701
0.0160703
0.016071
0.016072
0.0160732
0.0160746
0.016076
0.0160775
0.0160788
0.0160799
0.0160807
0.0160812
0.0160815
0.0160817
0.0160816
0.0160814
0.0160811
0.0160808
0.0160805
0.0160801
0.0160798
0.0160795
0.0160792
0.016079
0.0160788
0.0160786
0.0160784
0.0160783
0.0160782
0.0160782
0.0160781
0.0160781
0.0160781
0.0160781
0.0160782
0.0160782
0.016
0.016
0.016
0.016
0.016
0.016
0.016
0.016
0.016
0.016
0.016
0.016
0.016
0.016
0.016
0.016
0.016
0.016
0.016
0.016
0.016
0.016
0.016
0.016
0.016
0.0160001
0.0160013
0.0160058
0.0160146
0.0160266
0.0160407
0.0160565
0.0160737
0.0160923
0.0161126
0.0161294
0.0160941
0.0160935
0.0160927
0.0160919
0.016091
0.01609
0.016089
0.016088
0.0160869
0.0160855
0.0160843
0.016084
0.016084
0.0160842
0.0160842
0.0160841
0.0160839
0.0160836
0.0160832
0.0160827
0.0160822
0.0160817
0.0160812
0.0160807
0.0160802
0.0160797
0.0160793
0.0160788
0.0160785
0.0160781
0.0160778
0.0160775
0.0160773
0.0160771
0.0160769
0.0160768
0.0160767
0.0160766
0.0160766
0.0160766
0.0160766
0.0160766
0.0160767
0.0160768
0.0160768
0.0160769
0.016
0.016
0.016
0.016
0.016
0.016
0.016
0.016
0.016
0.016
0.016
0.016
0.016
0.016
0.016
0.016
0.016
0.016
0.016
0.016
0.016
0.016
0.016
0.016
0.016
0.0160002
0.0160067
0.016023
0.0160459
0.0160699
0.0160919
0.0161112
0.016128
0.0161427
0.0161555