/*--------------------------------*- C++ -*----------------------------------*\
| =========                 |                                                 |
| \\      /  F ield         | OpenFOAM: The Open Source CFD Toolbox           |
|  \\    /   O peration     | Version:  v2012                                 |
|   \\  /    A nd           | Website:  www.openfoam.com                      |
|    \\/     M anipulation  |                                                 |
\*---------------------------------------------------------------------------*/
FoamFile
{
    version     2.0;
    format      ascii;
    class       volScalarField;
    location    "400/air";
    object      TLeaf;
}
// * * * * * * * * * * * * * * * * * * * * * * * * * * * * * * * * * * * * * //

dimensions      [0 0 0 1 0 0 0];


internalField   nonuniform List<scalar> 
287104
(
310.32
310.618
310.885
311.128
311.353
311.562
311.758
311.941
312.115
312.279
312.436
312.585
312.728
312.866
312.998
313.126
313.25
313.37
313.486
313.6
313.711
313.819
313.925
314.029
314.131
314.231
314.329
314.425
314.52
314.614
314.706
314.796
314.886
314.974
315.061
315.147
315.231
315.315
315.398
315.48
315.56
315.64
315.719
315.797
315.874
315.95
316.026
316.1
316.174
316.246
316.318
316.389
316.46
316.529
316.598
316.665
316.732
316.799
316.864
316.929
316.992
317.055
317.118
317.179
317.24
317.3
317.36
317.418
317.476
317.534
317.59
317.647
317.702
317.757
317.812
317.865
317.919
317.971
318.024
318.075
318.127
318.178
318.229
318.28
318.332
318.383
318.435
318.488
318.545
318.612
310.316
310.61
310.873
311.113
311.334
311.54
311.733
311.914
312.084
312.246
312.4
312.546
312.687
312.822
312.952
313.077
313.198
313.316
313.43
313.542
313.65
313.756
313.86
313.961
314.061
314.158
314.254
314.348
314.44
314.531
314.621
314.709
314.796
314.882
314.966
315.05
315.132
315.214
315.294
315.374
315.452
315.529
315.606
315.682
315.756
315.83
315.903
315.976
316.047
316.117
316.187
316.256
316.324
316.391
316.458
316.523
316.588
316.652
316.716
316.778
316.84
316.901
316.962
317.021
317.08
317.138
317.196
317.253
317.309
317.365
317.42
317.474
317.528
317.581
317.634
317.686
317.738
317.789
317.84
317.89
317.94
317.99
318.039
318.089
318.139
318.189
318.24
318.291
318.347
318.412
310.311
310.601
310.861
311.098
311.316
311.519
311.709
311.888
312.056
312.215
312.367
312.512
312.65
312.783
312.911
313.035
313.154
313.27
313.383
313.492
313.599
313.703
313.805
313.905
314.002
314.098
314.192
314.285
314.375
314.465
314.552
314.639
314.724
314.808
314.891
314.973
315.053
315.133
315.212
315.289
315.366
315.441
315.516
315.59
315.663
315.735
315.806
315.876
315.945
316.014
316.082
316.149
316.215
316.28
316.344
316.408
316.471
316.533
316.594
316.654
316.714
316.773
316.831
316.888
316.945
317.001
317.056
317.11
317.164
317.217
317.27
317.322
317.373
317.424
317.474
317.524
317.573
317.621
317.669
317.717
317.764
317.811
317.857
317.904
317.951
317.998
318.045
318.094
318.146
318.208
310.307
310.593
310.849
311.083
311.298
311.499
311.686
311.862
312.028
312.185
312.335
312.478
312.614
312.746
312.872
312.994
313.112
313.226
313.337
313.445
313.55
313.653
313.754
313.852
313.948
314.043
314.135
314.226
314.316
314.404
314.49
314.576
314.659
314.742
314.824
314.904
314.984
315.062
315.139
315.215
315.291
315.365
315.439
315.511
315.583
315.654
315.723
315.793
315.861
315.928
315.995
316.06
316.125
316.189
316.252
316.315
316.376
316.437
316.497
316.557
316.615
316.673
316.73
316.786
316.842
316.897
316.951
317.005
317.058
317.11
317.162
317.213
317.264
317.314
317.364
317.413
317.461
317.51
317.557
317.605
317.652
317.699
317.746
317.793
317.84
317.888
317.936
317.986
318.039
318.102
310.303
310.585
310.838
311.068
311.281
311.478
311.663
311.837
312.001
312.156
312.304
312.444
312.579
312.709
312.833
312.953
313.07
313.183
313.292
313.399
313.503
313.604
313.703
313.8
313.895
313.988
314.079
314.169
314.257
314.344
314.429
314.513
314.596
314.677
314.757
314.836
314.914
314.991
315.067
315.142
315.216
315.289
315.361
315.432
315.502
315.571
315.64
315.707
315.774
315.84
315.905
315.969
316.032
316.094
316.156
316.217
316.277
316.336
316.394
316.452
316.509
316.565
316.621
316.675
316.729
316.783
316.836
316.888
316.939
316.99
317.041
317.091
317.14
317.189
317.238
317.286
317.334
317.382
317.429
317.476
317.522
317.569
317.616
317.663
317.71
317.758
317.806
317.856
317.909
317.972
310.299
310.577
310.826
311.054
311.263
311.458
311.641
311.812
311.974
312.127
312.272
312.411
312.544
312.672
312.795
312.914
313.029
313.14
313.248
313.353
313.456
313.556
313.654
313.749
313.843
313.935
314.025
314.113
314.2
314.285
314.369
314.452
314.533
314.613
314.692
314.769
314.846
314.921
314.995
315.069
315.141
315.212
315.282
315.351
315.419
315.486
315.553
315.618
315.682
315.745
315.808
315.869
315.93
315.989
316.048
316.106
316.163
316.219
316.274
316.328
316.382
316.435
316.487
316.538
316.588
316.638
316.686
316.734
316.782
316.829
316.875
316.92
316.965
317.009
317.052
317.095
317.138
317.179
317.22
317.261
317.301
317.34
317.379
317.418
317.456
317.493
317.53
317.568
317.609
317.658
310.295
310.569
310.815
311.039
311.246
311.439
311.618
311.788
311.947
312.098
312.242
312.379
312.51
312.637
312.758
312.875
312.989
313.099
313.206
313.31
313.411
313.51
313.606
313.701
313.793
313.883
313.972
314.059
314.144
314.228
314.31
314.391
314.47
314.548
314.625
314.7
314.774
314.847
314.918
314.988
315.057
315.125
315.191
315.256
315.319
315.38
315.439
315.498
315.554
315.61
315.664
315.717
315.768
315.819
315.868
315.916
315.964
316.01
316.055
316.099
316.142
316.184
316.225
316.265
316.304
316.342
316.379
316.415
316.45
316.484
316.517
316.549
316.579
316.608
316.636
316.663
316.688
316.712
316.735
316.756
316.777
316.795
316.813
316.83
316.846
316.862
316.879
316.901
316.924
316.953
310.291
310.561
310.804
311.025
311.229
311.419
311.597
311.763
311.921
312.07
312.212
312.347
312.477
312.601
312.721
312.837
312.95
313.058
313.164
313.267
313.367
313.465
313.56
313.654
313.745
313.834
313.921
314.006
314.09
314.171
314.251
314.329
314.404
314.477
314.548
314.616
314.681
314.745
314.806
314.865
314.922
314.977
315.03
315.08
315.129
315.176
315.221
315.264
315.305
315.345
315.382
315.417
315.45
315.481
315.51
315.536
315.561
315.584
315.605
315.624
315.641
315.656
315.67
315.681
315.691
315.699
315.706
315.71
315.713
315.715
315.714
315.713
315.709
315.705
315.699
315.691
315.682
315.672
315.661
315.649
315.635
315.622
315.608
315.594
315.58
315.568
315.558
315.552
315.563
315.598
310.287
310.554
310.793
311.011
311.212
311.4
311.575
311.739
311.895
312.042
312.182
312.316
312.445
312.57
312.69
312.807
312.921
313.032
313.139
313.244
313.347
313.446
313.543
313.638
313.728
313.815
313.897
313.976
314.051
314.123
314.192
314.257
314.319
314.378
314.433
314.486
314.535
314.582
314.625
314.666
314.705
314.74
314.773
314.804
314.831
314.856
314.878
314.897
314.914
314.928
314.94
314.951
314.959
314.966
314.971
314.974
314.976
314.975
314.974
314.971
314.967
314.961
314.954
314.946
314.937
314.927
314.915
314.903
314.89
314.876
314.861
314.846
314.83
314.813
314.796
314.779
314.761
314.743
314.724
314.705
314.685
314.666
314.647
314.629
314.612
314.596
314.581
314.57
314.568
314.581
310.283
310.546
310.782
310.997
311.196
311.381
311.553
311.716
311.869
312.015
312.157
312.3
312.444
312.588
312.731
312.873
313.013
313.149
313.282
313.41
313.533
313.652
313.766
313.875
313.978
314.074
314.165
314.25
314.331
314.407
314.48
314.548
314.614
314.679
314.742
314.804
314.864
314.921
314.977
315.029
315.078
315.124
315.167
315.205
315.24
315.272
315.3
315.326
315.349
315.369
315.385
315.4
315.411
315.419
315.425
315.427
315.427
315.424
315.419
315.411
315.4
315.387
315.372
315.355
315.335
315.314
315.291
315.266
315.239
315.211
315.182
315.152
315.12
315.087
315.054
315.02
314.986
314.951
314.915
314.877
314.833
314.786
314.738
314.692
314.648
314.608
314.572
314.542
314.524
314.525
310.279
310.538
310.771
310.984
311.18
311.362
311.532
311.693
311.845
311.992
314.782
314.88
315.078
315.302
315.524
315.736
315.933
316.114
316.278
316.425
316.555
316.668
316.767
316.851
316.921
316.98
317.03
317.071
317.105
317.135
317.163
317.188
317.209
317.229
317.25
317.277
317.3
317.307
317.314
317.332
317.351
317.377
317.403
317.408
317.416
317.434
317.45
317.465
317.478
317.491
317.503
317.514
317.524
317.533
317.54
317.545
317.549
317.551
317.552
317.551
317.548
317.543
317.536
317.527
317.517
317.506
317.493
317.48
317.466
317.45
317.434
317.416
317.398
317.378
317.357
317.335
317.311
317.285
317.253
317.207
316.291
316.121
315.966
315.823
315.691
315.57
315.462
315.37
315.301
315.266
310.275
310.531
310.761
310.97
311.163
311.343
311.511
311.67
311.82
311.965
314.629
314.714
314.908
315.131
315.354
315.568
315.769
315.953
316.121
316.271
316.405
316.522
316.623
316.709
316.781
316.841
316.89
316.929
316.962
316.989
317.013
317.035
317.055
317.075
317.099
317.133
317.164
317.174
317.183
317.21
317.239
317.281
317.325
317.339
317.357
317.392
317.425
317.458
317.491
317.525
317.56
317.595
317.631
317.666
317.7
317.734
317.767
317.8
317.831
317.861
317.89
317.916
317.941
317.965
317.986
318.006
318.024
318.039
318.051
318.06
318.066
318.067
318.065
318.06
318.05
318.035
318.016
317.992
317.962
317.939
317.93
317.776
317.608
317.435
317.264
317.099
316.943
316.8
316.676
316.577
310.271
310.524
310.75
310.957
311.147
311.325
311.491
311.647
311.795
311.939
314.513
314.595
314.785
315.004
315.224
315.435
315.632
315.814
315.98
316.129
316.26
316.375
316.474
316.558
316.628
316.685
316.731
316.767
316.795
316.818
316.836
316.853
316.868
316.882
316.902
316.934
316.965
316.966
316.965
316.986
317.01
317.05
317.093
317.097
317.104
317.133
317.158
317.184
317.211
317.239
317.267
317.295
317.323
317.35
317.378
317.405
317.433
317.461
317.488
317.516
317.544
317.573
317.603
317.635
317.668
317.702
317.738
317.774
317.812
317.849
317.888
317.926
317.964
318.002
318.038
318.072
318.103
318.131
318.155
318.189
318.508
318.498
318.465
318.415
318.352
318.28
318.202
318.12
318.044
317.979
310.267
310.516
310.74
310.943
311.132
311.307
311.47
311.625
311.771
311.912
314.401
314.482
314.668
314.883
315.1
315.308
315.502
315.682
315.845
315.991
316.121
316.234
316.332
316.414
316.482
316.539
316.585
316.621
316.648
316.669
316.685
316.698
316.711
316.724
316.743
316.778
316.812
316.807
316.799
316.819
316.841
316.883
316.931
316.928
316.927
316.955
316.978
317.002
317.026
317.051
317.076
317.099
317.12
317.14
317.158
317.176
317.193
317.209
317.224
317.238
317.251
317.265
317.279
317.293
317.307
317.321
317.335
317.348
317.361
317.374
317.386
317.397
317.409
317.419
317.428
317.436
317.443
317.449
317.451
317.448
317.007
316.957
316.926
316.914
316.919
316.935
316.945
316.955
316.973
317.009
310.264
310.509
310.729
310.93
311.116
311.289
311.45
311.602
311.746
311.886
314.291
314.37
314.553
314.764
314.977
315.182
315.374
315.55
315.711
315.856
315.983
316.095
316.19
316.271
316.338
316.394
316.441
316.478
316.507
316.527
316.541
316.552
316.562
316.573
316.592
316.63
316.669
316.661
316.648
316.667
316.689
316.734
316.788
316.782
316.776
316.805
316.829
316.855
316.882
316.909
316.934
316.956
316.978
316.999
317.019
317.04
317.06
317.078
317.096
317.113
317.129
317.146
317.163
317.18
317.197
317.213
317.228
317.242
317.254
317.266
317.275
317.282
317.286
317.288
317.285
317.279
317.27
317.257
317.238
317.213
316.735
316.623
316.52
316.423
316.331
316.245
316.166
316.099
316.058
316.064
310.26
310.502
310.719
310.918
311.101
311.271
311.43
311.58
311.722
311.86
314.181
314.258
314.438
314.646
314.856
315.057
315.246
315.42
315.579
315.721
315.847
315.957
316.051
316.13
316.196
316.251
316.298
316.337
316.368
316.39
316.403
316.412
316.419
316.428
316.446
316.486
316.53
316.521
316.503
316.523
316.546
316.593
316.655
316.646
316.637
316.668
316.695
316.726
316.757
316.786
316.812
316.834
316.855
316.878
316.9
316.923
316.945
316.967
316.989
317.011
317.035
317.059
317.083
317.108
317.132
317.155
317.179
317.202
317.225
317.247
317.268
317.287
317.305
317.32
317.333
317.345
317.356
317.367
317.378
317.398
317.434
317.404
317.38
317.359
317.334
317.306
317.279
317.254
317.237
317.238
310.256
310.495
310.709
310.905
311.085
311.253
311.411
311.559
311.699
311.835
314.073
314.148
314.325
314.53
314.736
314.934
315.12
315.292
315.448
315.588
315.712
315.82
315.912
315.99
316.054
316.108
316.155
316.196
316.23
316.255
316.27
316.277
316.281
316.286
316.303
316.345
316.394
316.384
316.362
316.383
316.407
316.456
316.525
316.516
316.504
316.538
316.571
316.608
316.644
316.674
316.699
316.72
316.742
316.765
316.79
316.815
316.841
316.866
316.893
316.92
316.949
316.978
317.006
317.035
317.064
317.092
317.121
317.15
317.178
317.205
317.231
317.255
317.277
317.299
317.319
317.34
317.362
317.386
317.413
317.456
317.837
317.846
317.841
317.829
317.811
317.792
317.773
317.758
317.751
317.76
310.253
310.488
310.7
310.892
311.07
311.236
311.391
311.537
311.675
311.809
313.968
314.042
314.215
314.417
314.62
314.815
314.998
315.166
315.32
315.457
315.579
315.684
315.774
315.849
315.911
315.962
316.007
316.049
316.086
316.115
316.133
316.139
316.139
316.14
316.152
316.193
316.244
316.233
316.207
316.228
316.25
316.3
316.373
316.364
316.351
316.389
316.428
316.471
316.509
316.538
316.558
316.575
316.594
316.616
316.64
316.665
316.689
316.714
316.74
316.766
316.792
316.817
316.841
316.865
316.888
316.911
316.933
316.954
316.972
316.989
317.002
317.013
317.022
317.03
317.037
317.045
317.053
317.062
317.074
317.098
317.315
317.261
317.192
317.115
317.036
316.957
316.882
316.813
316.759
316.724
310.249
310.482
310.69
310.88
311.055
311.219
311.372
311.516
311.652
311.784
313.871
313.945
314.116
314.315
314.514
314.705
314.884
315.048
315.196
315.328
315.444
315.543
315.625
315.693
315.746
315.789
315.826
315.861
315.896
315.925
315.943
315.947
315.942
315.933
315.936
315.971
316.02
316.006
315.976
315.994
316.015
316.064
316.141
316.134
316.124
316.171
316.219
316.269
316.31
316.336
316.351
316.364
316.38
316.401
316.422
316.444
316.464
316.483
316.501
316.517
316.531
316.544
316.556
316.566
316.576
316.584
316.59
316.594
316.595
316.593
316.589
316.582
316.575
316.567
316.56
316.554
316.548
316.543
316.538
316.53
316.42
316.308
316.202
316.102
316.008
315.921
315.842
315.777
315.735
315.715
310.246
310.475
310.68
310.868
311.041
311.202
311.353
311.495
311.629
311.76
313.812
313.895
314.065
314.256
314.445
314.622
314.782
314.924
315.047
315.151
315.237
315.306
315.36
315.401
315.431
315.453
315.472
315.493
315.518
315.545
315.564
315.569
315.562
315.549
315.545
315.573
315.621
315.609
315.579
315.599
315.622
315.672
315.755
315.759
315.76
315.822
315.887
315.949
315.997
316.027
316.047
316.065
316.088
316.114
316.138
316.158
316.171
316.179
316.181
316.18
316.176
316.171
316.165
316.158
316.15
316.141
316.129
316.115
316.099
316.082
316.064
316.045
316.028
316.011
315.996
315.982
315.968
315.954
315.935
315.907
315.49
315.375
315.273
315.18
315.096
315.018
314.949
314.891
314.851
314.841
310.242
310.468
310.671
310.856
311.026
311.185
311.334
311.474
311.606
311.731
311.851
311.967
312.078
312.187
312.293
312.396
312.496
312.594
312.688
312.78
312.869
312.955
313.038
313.118
313.196
313.272
313.345
313.416
313.485
313.553
313.619
313.684
313.747
313.808
313.868
313.928
313.987
314.045
314.102
314.159
314.215
314.272
314.33
314.386
314.442
314.497
314.549
314.598
314.644
314.685
314.722
314.755
314.784
314.808
314.829
314.845
314.858
314.867
314.874
314.877
314.878
314.876
314.872
314.866
314.859
314.85
314.84
314.828
314.815
314.801
314.786
314.77
314.753
314.735
314.717
314.697
314.676
314.653
314.63
314.604
314.573
314.54
314.506
314.471
314.437
314.404
314.374
314.347
314.331
314.333
310.239
310.462
310.661
310.844
311.012
311.169
311.315
311.453
311.583
311.707
311.825
311.937
312.045
312.149
312.249
312.345
312.439
312.53
312.617
312.703
312.786
312.866
312.945
313.021
313.096
313.168
313.239
313.308
313.376
313.443
313.509
313.574
313.638
313.701
313.763
313.824
313.885
313.945
314.003
314.06
314.117
314.172
314.227
314.281
314.332
314.381
314.429
314.474
314.516
314.555
314.589
314.621
314.649
314.675
314.697
314.717
314.734
314.748
314.76
314.769
314.776
314.781
314.784
314.785
314.784
314.782
314.778
314.773
314.766
314.758
314.749
314.739
314.727
314.714
314.7
314.685
314.668
314.651
314.632
314.611
314.589
314.567
314.545
314.524
314.503
314.484
314.466
314.452
314.448
314.46
310.236
310.455
310.652
310.832
310.998
311.152
311.297
311.433
311.561
311.683
311.799
311.909
312.015
312.117
312.216
312.31
312.402
312.491
312.577
312.661
312.743
312.823
312.901
312.977
313.052
313.125
313.196
313.266
313.335
313.404
313.471
313.538
313.604
313.669
313.732
313.795
313.858
313.92
313.98
314.039
314.099
314.158
314.217
314.276
314.334
314.393
314.451
314.509
314.565
314.62
314.674
314.725
314.775
314.822
314.865
314.906
314.944
314.98
315.013
315.043
315.071
315.098
315.122
315.145
315.165
315.184
315.201
315.217
315.231
315.244
315.255
315.264
315.272
315.278
315.283
315.287
315.288
315.289
315.288
315.285
315.282
315.277
315.271
315.265
315.258
315.251
315.245
315.242
315.252
315.272
310.232
310.449
310.643
310.82
310.983
311.136
311.278
311.412
311.539
311.659
311.773
311.882
311.987
312.087
312.184
312.277
312.368
312.456
312.541
312.624
312.704
312.783
312.86
312.936
313.009
313.082
313.153
313.222
313.291
313.359
313.426
313.492
313.558
313.623
313.686
313.749
313.812
313.873
313.933
313.991
314.047
314.103
314.158
314.212
314.266
314.32
314.375
314.428
314.482
314.534
314.585
314.634
314.682
314.728
314.772
314.815
314.855
314.893
314.928
314.961
314.992
315.02
315.046
315.069
315.09
315.11
315.127
315.143
315.157
315.17
315.182
315.193
315.203
315.213
315.223
315.233
315.243
315.252
315.262
315.273
315.284
315.295
315.307
315.319
315.332
315.346
315.36
315.376
315.394
315.419
310.229
310.442
310.633
310.808
310.969
311.119
311.26
311.392
311.517
311.635
311.748
311.855
311.958
312.057
312.152
312.245
312.334
312.42
312.504
312.586
312.665
312.743
312.819
312.893
312.966
313.038
313.108
313.177
313.245
313.313
313.379
313.446
313.511
313.576
313.639
313.702
313.764
313.824
313.88
313.93
313.973
314.01
314.045
314.078
314.11
314.143
314.175
314.207
314.239
314.271
314.301
314.329
314.354
314.376
314.396
314.412
314.426
314.437
314.446
314.453
314.458
314.462
314.465
314.467
314.469
314.471
314.474
314.478
314.483
314.489
314.496
314.505
314.516
314.529
314.543
314.559
314.577
314.597
314.618
314.641
314.666
314.692
314.721
314.751
314.783
314.817
314.852
314.89
314.931
314.978
310.226
310.436
310.624
310.796
310.955
311.103
311.242
311.372
311.495
311.612
311.723
311.829
311.93
312.028
312.122
312.212
312.3
312.386
312.468
312.549
312.628
312.704
312.779
312.853
312.925
312.996
313.065
313.134
313.202
313.269
313.335
313.401
313.467
313.531
313.595
313.657
313.719
313.775
313.814
313.829
313.821
313.798
313.77
313.742
313.714
313.69
313.668
313.649
313.633
313.618
313.607
313.597
313.589
313.583
313.579
313.577
313.577
313.579
313.583
313.588
313.595
313.603
313.612
313.622
313.633
313.646
313.659
313.674
313.69
313.708
313.726
313.747
313.768
313.791
313.815
313.84
313.867
313.895
313.925
313.956
313.988
314.021
314.056
314.092
314.13
314.17
314.21
314.253
314.3
314.352
310.222
310.429
310.615
310.785
310.942
311.087
311.224
311.352
311.474
311.589
311.698
311.803
311.903
311.999
312.092
312.181
312.268
312.352
312.434
312.513
312.591
312.667
312.741
312.814
312.885
312.955
313.024
313.092
313.16
313.227
313.293
313.359
313.425
313.49
313.554
313.617
313.678
313.711
313.668
313.564
313.425
313.288
313.173
313.079
313.005
312.949
312.909
312.882
312.864
312.854
312.851
312.855
312.864
312.876
312.892
312.91
312.929
312.95
312.971
312.992
313.013
313.035
313.057
313.079
313.1
313.123
313.145
313.168
313.191
313.215
313.239
313.264
313.29
313.316
313.343
313.371
313.4
313.429
313.459
313.49
313.522
313.554
313.588
313.622
313.657
313.693
313.73
313.768
313.809
313.855
310.219
310.424
310.607
310.774
310.929
311.073
311.207
311.334
311.454
311.567
311.675
311.778
311.877
311.972
312.064
312.152
312.238
312.321
312.402
312.48
312.557
312.632
312.706
312.778
312.848
312.918
312.986
313.054
313.122
313.189
313.255
313.322
313.388
313.454
313.52
313.583
313.64
313.602
313.371
313.06
312.791
312.606
312.48
312.405
312.365
312.352
312.354
312.368
312.388
312.412
312.438
312.466
312.495
312.524
312.553
312.581
312.609
312.636
312.662
312.687
312.711
312.735
312.758
312.78
312.802
312.824
312.846
312.869
312.892
312.915
312.939
312.964
312.989
313.015
313.041
313.068
313.095
313.123
313.151
313.18
313.209
313.239
313.269
313.299
313.33
313.362
313.395
313.428
313.463
313.502
310.217
310.418
310.599
310.764
310.917
311.059
311.192
311.317
311.436
311.548
311.654
311.756
311.854
311.948
312.039
312.126
312.211
312.293
312.373
312.451
312.527
312.602
312.675
312.746
312.816
312.886
312.954
313.022
313.089
313.156
313.223
313.291
313.358
313.425
313.493
313.558
313.588
313.421
312.842
312.399
312.126
311.986
311.944
311.946
311.972
312.013
312.059
312.107
312.154
312.198
312.239
312.277
312.311
312.343
312.373
312.401
312.427
312.45
312.472
312.493
312.514
312.535
312.556
312.576
312.597
312.618
312.64
312.661
312.683
312.706
312.729
312.752
312.776
312.8
312.825
312.849
312.874
312.9
312.925
312.95
312.975
313.001
313.026
313.051
313.077
313.103
313.129
313.157
313.19
313.228
310.214
310.414
310.593
310.756
310.907
311.048
311.18
311.304
311.421
311.532
311.637
311.738
311.835
311.928
312.018
312.105
312.189
312.27
312.35
312.427
312.503
312.577
312.65
312.721
312.792
312.861
312.929
312.997
313.065
313.132
313.2
313.268
313.337
313.406
313.475
313.541
313.573
313.396
312.72
312.202
311.866
311.677
311.676
311.706
311.752
311.809
311.868
311.927
311.983
312.034
312.08
312.123
312.161
312.195
312.225
312.252
312.277
312.301
312.324
312.346
312.368
312.389
312.411
312.432
312.453
312.475
312.497
312.519
312.541
312.564
312.587
312.611
312.635
312.659
312.684
312.709
312.734
312.759
312.783
312.808
312.832
312.856
312.879
312.902
312.925
312.947
312.97
312.993
313.021
313.053
310.213
310.411
310.588
310.75
310.9
311.04
311.17
311.293
311.41
311.52
311.625
311.725
311.821
311.914
312.003
312.089
312.173
312.254
312.333
312.41
312.486
312.56
312.633
312.704
312.775
312.845
312.914
312.982
313.05
313.119
313.187
313.257
313.326
313.395
313.463
313.527
313.563
313.396
312.677
312.109
311.723
311.488
311.519
311.571
311.633
311.699
311.765
311.829
311.888
311.943
311.993
312.039
312.078
312.114
312.146
312.175
312.202
312.228
312.252
312.276
312.298
312.321
312.343
312.364
312.386
312.408
312.43
312.453
312.476
312.5
312.525
312.551
312.577
312.605
312.633
312.661
312.69
312.718
312.747
312.775
312.802
312.829
312.855
312.88
312.903
312.926
312.948
312.97
312.995
313.023
310.212
310.408
310.585
310.747
310.896
311.035
311.165
311.287
311.403
311.513
311.617
311.717
311.813
311.905
311.994
312.08
312.164
312.245
312.324
312.401
312.477
312.551
312.624
312.696
312.767
312.838
312.908
312.977
313.046
313.115
313.185
313.254
313.322
313.386
313.445
313.494
313.532
313.398
312.712
312.148
311.754
311.504
311.545
311.606
311.672
311.739
311.802
311.862
311.917
311.967
312.013
312.055
312.093
312.127
312.159
312.189
312.217
312.243
312.268
312.292
312.314
312.336
312.358
312.379
312.401
312.423
312.446
312.47
312.496
312.523
312.553
312.584
312.617
312.652
312.69
312.728
312.768
312.809
312.849
312.888
312.927
312.965
313.002
313.038
313.072
313.104
313.135
313.163
313.191
313.219
310.211
310.407
310.584
310.745
310.894
311.032
311.162
311.284
311.4
311.509
311.614
311.714
311.809
311.902
311.991
312.077
312.161
312.242
312.321
312.399
312.475
312.55
312.623
312.696
312.768
312.839
312.909
312.979
313.049
313.118
313.186
313.251
313.31
313.356
313.384
313.392
313.416
313.437
313.205
312.905
312.58
312.301
312.261
312.236
312.22
312.213
312.211
312.215
312.223
312.233
312.246
312.261
312.278
312.295
312.313
312.332
312.351
312.37
312.388
312.406
312.424
312.442
312.461
312.48
312.501
312.523
312.548
312.576
312.607
312.643
312.682
312.724
312.768
312.814
312.863
312.916
312.974
313.036
313.104
313.18
313.263
313.349
313.433
313.512
313.58
313.637
313.682
313.716
313.743
313.765
310.211
310.407
310.584
310.745
310.893
311.032
311.162
311.284
311.399
311.509
311.613
311.713
311.809
311.901
311.99
312.077
312.161
312.242
312.322
312.4
312.477
312.552
312.626
312.7
312.772
312.844
312.915
312.985
313.053
313.118
313.177
313.226
313.258
313.26
313.224
313.165
313.167
313.194
313.04
312.9
312.761
312.631
312.699
312.76
312.802
312.824
312.827
312.812
312.783
312.746
312.708
312.671
312.641
312.617
312.6
312.589
312.584
312.584
312.586
312.593
312.602
312.614
312.629
312.648
312.671
312.698
312.729
312.763
312.801
312.845
312.894
312.951
313.017
313.095
313.191
313.308
313.442
313.584
313.724
313.845
313.939
314.004
314.041
314.055
314.052
314.038
314.02
314.002
313.989
313.984
310.211
310.408
310.584
310.745
310.894
311.033
311.163
311.285
311.4
311.51
311.614
311.714
311.81
311.902
311.992
312.078
312.162
312.244
312.324
312.402
312.479
312.555
312.63
312.704
312.777
312.849
312.919
312.985
313.045
313.094
313.128
313.139
313.118
313.052
312.945
312.848
312.872
312.921
312.748
312.595
312.467
312.365
312.503
312.633
312.74
312.829
312.9
312.952
312.983
312.991
312.981
312.958
312.93
312.901
312.874
312.851
312.834
312.823
312.818
312.818
312.823
312.833
312.848
312.868
312.894
312.927
312.968
313.018
313.079
313.152
313.247
313.368
313.506
313.651
313.781
313.879
313.939
313.961
313.951
313.917
313.87
313.817
313.764
313.714
313.67
313.632
313.603
313.581
313.571
313.571
310.211
310.408
310.585
310.746
310.895
311.034
311.164
311.286
311.402
311.512
311.616
311.716
311.812
311.904
311.994
312.08
312.164
312.246
312.326
312.405
312.482
312.558
312.633
312.708
312.781
312.852
312.917
312.966
312.994
312.999
312.979
312.931
312.85
312.736
312.609
312.567
312.676
312.811
312.601
312.412
312.27
312.186
312.542
312.864
313.111
313.266
313.351
313.382
313.379
313.354
313.316
313.272
313.227
313.185
313.146
313.114
313.089
313.073
313.064
313.066
313.076
313.095
313.124
313.163
313.215
313.28
313.365
313.466
313.575
313.679
313.761
313.804
313.81
313.784
313.735
313.674
313.607
313.541
313.478
313.422
313.372
313.331
313.296
313.269
313.248
313.234
313.225
313.223
313.227
313.24
310.212
310.408
310.585
310.747
310.896
311.035
311.165
311.287
311.403
311.513
311.618
311.718
311.814
311.906
311.996
312.082
312.167
312.249
312.329
312.408
312.485
312.562
312.637
312.711
312.784
312.848
312.874
312.86
312.808
312.734
312.655
312.57
312.484
312.401
312.348
312.436
313.876
313.585
313.374
313.258
313.2
313.187
313.229
313.265
313.294
313.307
313.312
313.316
313.325
313.341
313.361
313.388
313.422
313.462
313.503
313.543
313.576
313.593
313.584
313.554
313.509
313.455
313.398
313.339
313.283
313.23
313.182
313.139
313.1
313.067
313.039
313.016
312.997
312.984
312.975
312.97
312.969
312.971
312.977
312.986
313.001
313.021
310.212
310.409
310.585
310.747
310.896
311.035
311.165
311.288
311.403
311.513
311.618
311.718
311.815
311.907
311.997
312.084
312.168
312.25
312.331
312.41
312.487
312.564
312.64
312.714
312.785
312.804
312.721
312.569
312.412
312.296
312.207
312.154
312.134
312.145
312.216
312.447
313.512
313.175
312.979
312.87
312.814
312.796
312.806
312.829
312.863
312.913
312.965
313.003
313.025
313.032
313.03
313.026
313.021
313.013
313.004
312.994
312.981
312.966
312.948
312.929
312.908
312.887
312.867
312.848
312.83
312.815
312.801
312.788
312.776
312.765
312.758
312.754
312.752
312.753
312.757
312.764
312.772
312.783
312.797
312.813
312.836
312.862
310.212
310.408
310.585
310.747
310.896
311.035
311.165
311.287
311.403
311.513
311.618
311.718
311.814
311.907
311.996
312.083
312.168
312.25
312.33
312.41
312.488
312.564
312.64
312.714
312.764
312.67
312.314
312.015
311.832
311.755
311.759
311.8
311.87
311.97
312.141
312.512
313.323
312.937
312.728
312.598
312.511
312.454
312.424
312.414
312.417
312.427
312.443
312.467
312.488
312.504
312.515
312.525
312.534
312.542
312.549
312.556
312.562
312.567
312.57
312.57
312.569
312.567
312.565
312.563
312.562
312.562
312.564
312.566
312.571
312.576
312.584
312.592
312.603
312.614
312.627
312.642
312.657
312.674
312.692
312.711
312.735
312.762
310.211
310.408
310.585
310.746
310.895
311.034
311.164
311.287
311.402
311.512
311.617
311.717
311.813
311.906
311.995
312.082
312.166
312.249
312.329
312.409
312.487
312.564
312.639
312.713
312.759
312.652
312.186
311.8
311.544
311.409
311.464
311.546
311.656
311.803
312.036
312.513
313.212
312.811
312.592
312.436
312.33
312.255
312.204
312.173
312.16
312.158
312.17
312.189
312.208
312.226
312.241
312.256
312.271
312.286
312.301
312.315
312.328
312.341
312.352
312.364
312.375
312.386
312.397
312.408
312.42
312.432
312.444
312.457
312.471
312.485
312.5
312.516
312.532
312.55
312.568
312.586
312.606
312.625
312.646
312.668
312.694
312.722
310.211
310.408
310.585
310.746
310.895
311.034
311.164
311.286
311.402
311.511
311.616
311.716
311.812
311.905
311.994
312.081
312.165
312.248
312.328
312.407
312.485
312.562
312.638
312.711
312.757
312.646
312.102
311.648
311.328
311.133
311.222
311.33
311.459
311.623
311.874
312.386
313.195
312.771
312.549
312.42
312.31
312.222
312.155
312.11
312.088
312.078
312.082
312.092
312.106
312.122
312.138
312.156
312.174
312.193
312.211
312.229
312.246
312.264
312.281
312.297
312.314
312.33
312.347
312.363
312.38
312.397
312.414
312.432
312.45
312.468
312.487
312.506
312.526
312.546
312.567
312.588
312.609
312.632
312.655
312.678
312.706
312.737
310.211
310.408
310.584
310.746
310.895
311.033
311.163
311.286
311.401
311.511
311.616
311.716
311.812
311.904
311.993
312.08
312.164
312.246
312.327
312.406
312.484
312.56
312.636
312.709
312.758
312.656
312.106
311.642
311.308
311.093
311.193
311.307
311.433
311.581
311.801
312.244
313.299
312.893
312.656
312.555
312.421
312.313