/*--------------------------------*- C++ -*----------------------------------*\
| =========                 |                                                 |
| \\      /  F ield         | OpenFOAM: The Open Source CFD Toolbox           |
|  \\    /   O peration     | Version:  v2012                                 |
|   \\  /    A nd           | Website:  www.openfoam.com                      |
|    \\/     M anipulation  |                                                 |
\*---------------------------------------------------------------------------*/
FoamFile
{
    version     2.0;
    format      ascii;
    class       volScalarField;
    location    "650/asphalt";
    object      T;
}
// * * * * * * * * * * * * * * * * * * * * * * * * * * * * * * * * * * * * * //

dimensions      [0 0 0 1 0 0 0];


internalField   nonuniform List<scalar> 
1980
(
321.649
322.068
322.482
322.836
323.141
323.406
323.638
323.844
324.027
324.191
324.339
324.473
324.595
324.707
324.81
324.905
324.993
325.075
325.152
325.223
325.289
325.352
325.412
325.468
325.522
325.572
325.621
325.667
325.712
325.755
325.796
325.832
325.857
325.889
325.923
325.957
325.99
326.022
326.053
326.084
326.114
326.143
326.172
326.2
326.228
326.255
326.281
326.307
326.333
326.358
326.382
326.407
326.431
326.455
326.478
326.502
326.525
326.552
326.588
326.614
326.636
326.656
326.677
326.697
326.716
326.735
326.754
326.773
326.791
326.809
326.827
326.844
326.862
326.879
326.896
326.913
326.93
326.946
326.962
326.979
326.995
327.012
327.029
327.048
327.067
327.09
327.117
327.162
327.268
327.572
321.649
322.068
322.482
322.836
323.141
323.406
323.638
323.844
324.027
324.191
324.338
324.472
324.595
324.707
324.81
324.905
324.993
325.075
325.151
325.222
325.289
325.352
325.412
325.468
325.522
325.573
325.621
325.668
325.713
325.756
325.798
325.837
325.873
325.908
325.943
325.977
326.011
326.043
326.075
326.105
326.135
326.165
326.194
326.222
326.249
326.276
326.303
326.329
326.354
326.38
326.404
326.429
326.453
326.477
326.5
326.523
326.546
326.569
326.593
326.615
326.637
326.657
326.678
326.698
326.718
326.737
326.756
326.775
326.793
326.811
326.829
326.846
326.864
326.881
326.898
326.915
326.932
326.948
326.965
326.981
326.997
327.014
327.031
327.049
327.068
327.091
327.119
327.163
327.269
327.573
321.649
322.068
322.482
322.836
323.141
323.406
323.638
323.844
324.026
324.19
324.338
324.472
324.595
324.707
324.81
324.905
324.993
325.075
325.151
325.222
325.289
325.352
325.412
325.468
325.522
325.573
325.622
325.669
325.714
325.757
325.799
325.838
325.876
325.913
325.948
325.982
326.016
326.048
326.08
326.111
326.141
326.171
326.199
326.228
326.255
326.282
326.309
326.335
326.36
326.386
326.411
326.435
326.46
326.483
326.507
326.53
326.552
326.574
326.596
326.618
326.639
326.659
326.68
326.701
326.72
326.739
326.758
326.777
326.795
326.814
326.832
326.849
326.867
326.884
326.901
326.918
326.935
326.951
326.968
326.984
327
327.017
327.034
327.052
327.071
327.093
327.121
327.166
327.272
327.576
321.649
322.067
322.481
322.835
323.14
323.406
323.638
323.843
324.026
324.19
324.338
324.472
324.594
324.706
324.809
324.905
324.993
325.074
325.151
325.222
325.289
325.352
325.412
325.469
325.522
325.574
325.623
325.67
325.715
325.758
325.8
325.839
325.877
325.914
325.95
325.984
326.018
326.051
326.082
326.113
326.144
326.173
326.202
326.23
326.258
326.285
326.311
326.337
326.363
326.389
326.414
326.439
326.463
326.487
326.51
326.533
326.555
326.577
326.599
326.62
326.641
326.662
326.683
326.703
326.722
326.742
326.761
326.78
326.798
326.816
326.834
326.852
326.87
326.887
326.904
326.921
326.938
326.955
326.971
326.987
327.004
327.02
327.037
327.055
327.074
327.096
327.123
327.168
327.274
327.578
321.649
322.067
322.481
322.835
323.14
323.405
323.638
323.843
324.026
324.19
324.338
324.472
324.594
324.706
324.809
324.904
324.992
325.074
325.15
325.222
325.289
325.352
325.412
325.469
325.523
325.574
325.623
325.67
325.716
325.759
325.8
325.84
325.878
325.915
325.951
325.986
326.019
326.052
326.084
326.115
326.146
326.175
326.204
326.232
326.26
326.287
326.314
326.34
326.366
326.391
326.416
326.441
326.466
326.489
326.513
326.535
326.558
326.58
326.602
326.623
326.644
326.665
326.685
326.705
326.725
326.744
326.763
326.782
326.801
326.819
326.837
326.855
326.873
326.89
326.907
326.924
326.941
326.958
326.975
326.991
327.007
327.024
327.041
327.058
327.078
327.099
327.127
327.171
327.277
327.581
321.648
322.067
322.481
322.835
323.14
323.405
323.637
323.843
324.026
324.19
324.338
324.472
324.594
324.706
324.809
324.904
324.992
325.074
325.15
325.222
325.289
325.353
325.413
325.469
325.523
325.575
325.624
325.671
325.716
325.76
325.801
325.841
325.879
325.916
325.952
325.987
326.021
326.054
326.086
326.117
326.147
326.177
326.206
326.235
326.262
326.29
326.316
326.342
326.368
326.394
326.419
326.444
326.468
326.492
326.516
326.538
326.561
326.583
326.605
326.626
326.647
326.668
326.689
326.709
326.728
326.748
326.767
326.786
326.805
326.823
326.841
326.859
326.877
326.894
326.911
326.928
326.945
326.962
326.979
326.996
327.012
327.029
327.046
327.063
327.083
327.104
327.131
327.175
327.281
327.585
321.648
322.067
322.481
322.835
323.14
323.405
323.637
323.843
324.025
324.189
324.337
324.471
324.594
324.706
324.809
324.904
324.992
325.074
325.15
325.222
325.29
325.353
325.413
325.47
325.524
325.576
325.625
325.672
325.717
325.761
325.802
325.842
325.88
325.918
325.954
325.989
326.023
326.056
326.088
326.119
326.15
326.18
326.209
326.237
326.265
326.292
326.319
326.346
326.372
326.397
326.423
326.448
326.472
326.496
326.519
326.542
326.565
326.587
326.609
326.63
326.652
326.672
326.693
326.713
326.733
326.752
326.772
326.791
326.809
326.828
326.846
326.864
326.882
326.899
326.916
326.934
326.951
326.968
326.984
327.001
327.018
327.035
327.052
327.07
327.089
327.11
327.137
327.18
327.285
327.589
321.648
322.066
322.48
322.834
323.139
323.404
323.637
323.842
324.025
324.189
324.337
324.471
324.594
324.706
324.809
324.904
324.992
325.075
325.151
325.223
325.291
325.354
325.415
325.472
325.526
325.578
325.627
325.674
325.72
325.763
325.804
325.845
325.883
325.921
325.957
325.992
326.026
326.06
326.092
326.123
326.154
326.184
326.214
326.242
326.27
326.298
326.325
326.351
326.378
326.403
326.429
326.453
326.478
326.502
326.525
326.548
326.571
326.594
326.616
326.637
326.658
326.679
326.7
326.72
326.74
326.76
326.779
326.798
326.817
326.835
326.853
326.871
326.889
326.906
326.924
326.941
326.958
326.975
326.992
327.008
327.025
327.042
327.059
327.077
327.096
327.117
327.142
327.184
327.288
327.59
321.648
322.066
322.48
322.834
323.139
323.405
323.637
323.843
324.026
324.19
324.339
324.473
324.596
324.708
324.811
324.907
324.995
325.078
325.155
325.227
325.295
325.359
325.42
325.477
325.532
325.584
325.633
325.681
325.726
325.77
325.812
325.852
325.891
325.929
325.966
326.001
326.036
326.069
326.102
326.134
326.165
326.195
326.225
326.254
326.282
326.31
326.337
326.364
326.391
326.417
326.442
326.467
326.492
326.516
326.54
326.563
326.586
326.609
326.631
326.653
326.674
326.695
326.716
326.736
326.756
326.776
326.795
326.814
326.833
326.851
326.87
326.888
326.905
326.923
326.94
326.957
326.974
326.991
327.007
327.024
327.04
327.057
327.074
327.091
327.11
327.131
327.156
327.195
327.295
327.591
321.648
322.068
322.483
322.838
323.145
323.411
323.645
323.852
324.036
324.202
324.351
324.487
324.611
324.724
324.829
324.925
325.015
325.099
325.177
325.25
325.32
325.385
325.446
325.505
325.561
325.614
325.664
325.713
325.759
325.804
325.847
325.889
325.929
325.968
326.005
326.042
326.077
326.112
326.146
326.179
326.211
326.242
326.273
326.303
326.332
326.361
326.389
326.417
326.444
326.471
326.498
326.523
326.549
326.574
326.598
326.623
326.646
326.67
326.693
326.715
326.737
326.759
326.781
326.802
326.822
326.843
326.863
326.883
326.902
326.921
326.94
326.958
326.977
326.995
327.012
327.03
327.047
327.064
327.081
327.098
327.115
327.132
327.149
327.167
327.186
327.206
327.231
327.268
327.361
327.643
321.655
322.082
322.504
322.866
323.179
323.451
323.691
323.904
324.094
324.265
324.42
324.561
324.69
324.808
324.918
325.019
325.113
325.201
325.284
325.362
325.435
325.504
325.57
325.632
325.692
325.749
325.803
325.855
325.906
325.954
326.001
326.046
326.089
326.132
326.173
326.213
326.252
326.29
326.327
326.363
326.398
326.432
326.466
326.499
326.532
326.564
326.595
326.626
326.656
326.686
326.715
326.744
326.772
326.8
326.827
326.854
326.88
326.906
326.932
326.957
326.982
327.006
327.03
327.054
327.077
327.1
327.122
327.144
327.166
327.187
327.208
327.229
327.25
327.27
327.29
327.309
327.329
327.348
327.367
327.385
327.404
327.423
327.442
327.461
327.481
327.503
327.528
327.565
327.647
327.891
322.795
323.259
323.7
324.073
324.394
324.673
324.918
325.134
325.327
325.5
325.655
325.796
325.925
326.043
326.152
326.252
326.345
326.431
326.511
326.586
326.657
326.723
326.786
326.845
326.902
326.955
327.006
327.055
327.103
327.148
327.191
327.231
327.262
327.298
327.334
327.37
327.404
327.438
327.471
327.504
327.535
327.566
327.596
327.626
327.655
327.683
327.711
327.739
327.766
327.792
327.818
327.844
327.869
327.895
327.919
327.944
327.968
327.995
328.028
328.053
328.076
328.097
328.119
328.14
328.16
328.18
328.2
328.22
328.239
328.258
328.277
328.295
328.314
328.332
328.35
328.368
328.385
328.403
328.42
328.437
328.455
328.472
328.49
328.509
328.53
328.553
328.582
328.626
328.733
329.078
322.795
323.258
323.7
324.073
324.394
324.673
324.918
325.134
325.327
325.499
325.655
325.796
325.925
326.043
326.151
326.252
326.345
326.431
326.511
326.586
326.657
326.723
326.786
326.845
326.902
326.955
327.007
327.056
327.103
327.149
327.193
327.234
327.273
327.311
327.348
327.384
327.419
327.453
327.486
327.519
327.55
327.581
327.612
327.641
327.67
327.699
327.727
327.754
327.781
327.807
327.834
327.86
327.885
327.91
327.935
327.959
327.983
328.007
328.031
328.054
328.077
328.098
328.12
328.142
328.162
328.182
328.202
328.222
328.241
328.26
328.279
328.298
328.316
328.334
328.353
328.37
328.388
328.405
328.422
328.439
328.457
328.474
328.492
328.511
328.531
328.555
328.583
328.627
328.735
329.079
322.795
323.258
323.7
324.073
324.394
324.673
324.918
325.134
325.326
325.499
325.655
325.796
325.925
326.043
326.151
326.251
326.344
326.43
326.511
326.586
326.656
326.723
326.786
326.845
326.902
326.956
327.007
327.057
327.104
327.15
327.194
327.235
327.275
327.314
327.351
327.387
327.423
327.457
327.49
327.523
327.555
327.586
327.616
327.646
327.675
327.703
327.731
327.759
327.786
327.812
327.839
327.865
327.891
327.916
327.94
327.964
327.988
328.011
328.034
328.057
328.079
328.101
328.123
328.144
328.165
328.185
328.205
328.225
328.244
328.263
328.282
328.301
328.319
328.337
328.355
328.373
328.391
328.408
328.426
328.443
328.46
328.477
328.495
328.514
328.534
328.557
328.586
328.63
328.737
329.082
322.795
323.258
323.7
324.073
324.394
324.673
324.918
325.134
325.326
325.499
325.655
325.796
325.924
326.042
326.151
326.251
326.344
326.43
326.511
326.586
326.656
326.723
326.786
326.846
326.902
326.956
327.008
327.058
327.105
327.151
327.194
327.236
327.276
327.315
327.353
327.389
327.425
327.459
327.493
327.525
327.557
327.588
327.619
327.649
327.678
327.706
327.734
327.761
327.788
327.815
327.842
327.868
327.894
327.919
327.943
327.967
327.991
328.014
328.037
328.06
328.082
328.103
328.125
328.146
328.167
328.187
328.207
328.227
328.247
328.266
328.285
328.304
328.322
328.34
328.358
328.376
328.394
328.412
328.429
328.446
328.463
328.481
328.498
328.517
328.537
328.56
328.588
328.632
328.74
329.085
322.795
323.258
323.699
324.072
324.394
324.673
324.917
325.133
325.326
325.499
325.654
325.795
325.924
326.042
326.151
326.251
326.344
326.43
326.51
326.586
326.656
326.723
326.786
326.846
326.903
326.957
327.009
327.058
327.106
327.151
327.195
327.237
327.277
327.316
327.354
327.39
327.426
327.461
327.494
327.527
327.559
327.59
327.621
327.651
327.68
327.708
327.736
327.764
327.791
327.818
327.844
327.871
327.896
327.921
327.946
327.97
327.994
328.017
328.04
328.062
328.084
328.106
328.128
328.149
328.17
328.19
328.21
328.23
328.25
328.269
328.288
328.307
328.325
328.344
328.362
328.38
328.398
328.415
328.433
328.45
328.467
328.484
328.502
328.521
328.541
328.564
328.591
328.635
328.743
329.088
322.795
323.258
323.699
324.072
324.393
324.672
324.917
325.133
325.326
325.498
325.654
325.795
325.924
326.042
326.15
326.251
326.343
326.43
326.51
326.586
326.657
326.723
326.787
326.846
326.903
326.958
327.009
327.059
327.107
327.152
327.196
327.238
327.278
327.317
327.355
327.392
327.427
327.462
327.496
327.529
327.561
327.592
327.623
327.653
327.682
327.711
327.739
327.766
327.794
327.821
327.847
327.874
327.899
327.924
327.949
327.973
327.997
328.02
328.043
328.066
328.088
328.11
328.131
328.152
328.173
328.194
328.214
328.234
328.254
328.273
328.292
328.311
328.329
328.348
328.366
328.384
328.402
328.42
328.437
328.455
328.472
328.489
328.507
328.526
328.546
328.569
328.596
328.639
328.747
329.092
322.794
323.257
323.699
324.072
324.393
324.672
324.917
325.133
325.325
325.498
325.654
325.795
325.924
326.042
326.15
326.25
326.343
326.43
326.51
326.586
326.657
326.724
326.787
326.847
326.904
326.958
327.01
327.06
327.108
327.153
327.197
327.239
327.279
327.319
327.357
327.393
327.429
327.464
327.498
327.531
327.563
327.595
327.625
327.656
327.685
327.714
327.742
327.77
327.797
327.824
327.851
327.877
327.903
327.928
327.952
327.977
328.001
328.024
328.047
328.07
328.092
328.114
328.135
328.157
328.178
328.198
328.219
328.239
328.258
328.278
328.297
328.316
328.334
328.353
328.371
328.389
328.407
328.425
328.443
328.46
328.478
328.496
328.514
328.533
328.553
328.575
328.602
328.645
328.751
329.096
322.794
323.257
323.698
324.072
324.393
324.672
324.916
325.133
325.325
325.498
325.654
325.795
325.924
326.042
326.15
326.251
326.344
326.43
326.511
326.587
326.658
326.725
326.788
326.849
326.906
326.96
327.012
327.062
327.109
327.155
327.199
327.241
327.282
327.321
327.36
327.397
327.433
327.468
327.502
327.535
327.567
327.599
327.63
327.66
327.69
327.719
327.747
327.775
327.803
327.83
327.857
327.883
327.908
327.934
327.958
327.983
328.007
328.03
328.054
328.076
328.099
328.121
328.142
328.164
328.185
328.205
328.226
328.246
328.265
328.285
328.304
328.323
328.342
328.36
328.378
328.396
328.414
328.432
328.45
328.467
328.485
328.502
328.52
328.539
328.559
328.581
328.607
328.649
328.754
329.096
322.794
323.257
323.698
324.071
324.393
324.672
324.916
325.133
325.326
325.498
325.654
325.796
325.925
326.043
326.152
326.252
326.346
326.433
326.514
326.59
326.661
326.729
326.792
326.853
326.91
326.965
327.017
327.067
327.115
327.161
327.205
327.248
327.289
327.329
327.367
327.405
327.441
327.476
327.511
327.544
327.577
327.609
327.64
327.67
327.7
327.73
327.758
327.787
327.815
327.842
327.869
327.895
327.921
327.946
327.971
327.996
328.02
328.044
328.067
328.09
328.113
328.135
328.156
328.178
328.199
328.22
328.24
328.26
328.28
328.299
328.318
328.337
328.356
328.374
328.392
328.41
328.428
328.446
328.463
328.48
328.498
328.515
328.533
328.552
328.571
328.593
328.618
328.657
328.758
329.094
322.794
323.258
323.7
324.075
324.397
324.677
324.923
325.141
325.335
325.509
325.666
325.808
325.939
326.058
326.168
326.27
326.364
326.452
326.535
326.612
326.684
326.753
326.818
326.879
326.938
326.994
327.047
327.098
327.147
327.194
327.239
327.283
327.325
327.366
327.406
327.444
327.481
327.518
327.553
327.588
327.621
327.654
327.687
327.718
327.749
327.779
327.809
327.838
327.867
327.895
327.923
327.95
327.977
328.003
328.029
328.054
328.079
328.104
328.128
328.152
328.175
328.198
328.22
328.242
328.264
328.286
328.307
328.327
328.348
328.368
328.387
328.407
328.426
328.445
328.464
328.482
328.5
328.518
328.536
328.553
328.571
328.589
328.607
328.625
328.645
328.667
328.692
328.729
328.822
329.143
322.802
323.274
323.724
324.106
324.436
324.723
324.976
325.201
325.401
325.581
325.745
325.893
326.029
326.154
326.27
326.377
326.476
326.569
326.657
326.739
326.816
326.889
326.959
327.025
327.088
327.148
327.205
327.261
327.314
327.365
327.414
327.462
327.508
327.553
327.596
327.639
327.68
327.72
327.759
327.797
327.835
327.871
327.907
327.942
327.976
328.01
328.043
328.076
328.108
328.14
328.171
328.201
328.231
328.26
328.289
328.318
328.346
328.373
328.4
328.427
328.453
328.479
328.504
328.529
328.554
328.578
328.602
328.625
328.648
328.671
328.693
328.715
328.737
328.758
328.779
328.8
328.821
328.841
328.861
328.881
328.9
328.92
328.94
328.961
328.982
329.005
329.031
329.067
329.149
329.424
)
;

boundaryField
{
    inlet
    {
        type            zeroGradient;
    }
    outlet
    {
        type            zeroGradient;
    }
    side
    {
        type            zeroGradient;
    }
    asphalt_to_soil1
    {
        type            compressible::turbulentTemperatureRadCoupledMixed;
        refValue        nonuniform List<scalar> 
990
(
320.489
320.867
321.254
321.588
321.877
322.128
322.348
322.543
322.716
322.871
323.011
323.138
323.253
323.359
323.457
323.547
323.631
323.708
323.78
323.847
323.91
323.97
324.026
324.079
324.13
324.178
324.224
324.268
324.31
324.351
324.389
324.422
324.441
324.47
324.502
324.534
324.565
324.595
324.625
324.654
324.682
324.709
324.737
324.763
324.789
324.815
324.84
324.865
324.889
324.912
324.936
324.959
324.981
325.004
325.026
325.048
325.071
325.098
325.137
325.162
325.183
325.203
325.222
325.241
325.26
325.278
325.295
325.313
325.33
325.347
325.364
325.381
325.397
325.414
325.43
325.446
325.461
325.477
325.493
325.508
325.524
325.54
325.556
325.573
325.592
325.613
325.64
325.685
325.788
326.056
320.489
320.867
321.254
321.588
321.877
322.128
322.348
322.543
322.716
322.871
323.011
323.138
323.253
323.359
323.457
323.547
323.63
323.708
323.78
323.847
323.91
323.97
324.026
324.079
324.13
324.178
324.224
324.269
324.311
324.352
324.391
324.427
324.461
324.494
324.527
324.559
324.591
324.621
324.651
324.68
324.709
324.737
324.764
324.79
324.816
324.842
324.867
324.892
324.916
324.94
324.963
324.986
325.009
325.032
325.054
325.076
325.097
325.12
325.143
325.164
325.184
325.204
325.224
325.243
325.261
325.279
325.297
325.315
325.332
325.349
325.366
325.383
325.399
325.416
325.432
325.448
325.464
325.479
325.495
325.51
325.525
325.541
325.557
325.574
325.593
325.614
325.641
325.686
325.789
326.057
320.489
320.867
321.254
321.588
321.877
322.128
322.348
322.542
322.716
322.871
323.011
323.137
323.253
323.359
323.457
323.547
323.63
323.707
323.779
323.847
323.91
323.97
324.026
324.08
324.13
324.179
324.225
324.269
324.312
324.353
324.392
324.43
324.465
324.499
324.533
324.565
324.597
324.628
324.658
324.687
324.715
324.743
324.771
324.797
324.823
324.849
324.874
324.898
324.923
324.947
324.97
324.994
325.017
325.039
325.061
325.083
325.104
325.125
325.146
325.166
325.186
325.206
325.226
325.245
325.263
325.282
325.299
325.317
325.335
325.352
325.369
325.385
325.402
325.418
325.435
325.451
325.466
325.482
325.498
325.513
325.528
325.544
325.56
325.577
325.595
325.617
325.644
325.688
325.792
326.06
320.488
320.867
321.253
321.588
321.877
322.128
322.348
322.542
322.715
322.87
323.01
323.137
323.253
323.359
323.456
323.546
323.63
323.707
323.779
323.847
323.91
323.97
324.026
324.08
324.131
324.179
324.226
324.27
324.313
324.354
324.393
324.431
324.467
324.501
324.535
324.568
324.599
324.63
324.66
324.69
324.718
324.746
324.774
324.8
324.826
324.852
324.877
324.901
324.926
324.95
324.974
324.997
325.02
325.043
325.065
325.086
325.107
325.128
325.149
325.169
325.189
325.208
325.228
325.247
325.266
325.284
325.302
325.32
325.337
325.354
325.371
325.388
325.405
325.421
325.437
325.453
325.469
325.485
325.501
325.516
325.531
325.547
325.563
325.58
325.598
325.619
325.646
325.69
325.794
326.062
320.488
320.867
321.253
321.588
321.876
322.127
322.348
322.542
322.715
322.87
323.01
323.137
323.253
323.359
323.456
323.546
323.629
323.707
323.779
323.847
323.91
323.97
324.027
324.08
324.131
324.18
324.226
324.271
324.314
324.354
324.394
324.431
324.467
324.502
324.536
324.569
324.601
324.632
324.662
324.691
324.72
324.748
324.776
324.802
324.828
324.854
324.879
324.904
324.928
324.952
324.976
325
325.023
325.045
325.067
325.089
325.11
325.131
325.152
325.172
325.191
325.211
325.23
325.249
325.268
325.286
325.304
325.322
325.34
325.357
325.374
325.391
325.408
325.424
325.44
325.456
325.473
325.488
325.504
325.52
325.535
325.551
325.567
325.583
325.602
325.623
325.649
325.693
325.796
326.065
320.488
320.866
321.253
321.587
321.876
322.127
322.347
322.542
322.715
322.87
323.01
323.137
323.253
323.358
323.456
323.546
323.629
323.707
323.779
323.847
323.91
323.97
324.027
324.081
324.132
324.181
324.227
324.272
324.314
324.355
324.394
324.432
324.468
324.503
324.537
324.57
324.602
324.633
324.664
324.693
324.722
324.75
324.778
324.804
324.831
324.856
324.882
324.906
324.931
324.955
324.979
325.002
325.025
325.048
325.07
325.092
325.113
325.134
325.155
325.175
325.195
325.214
325.234
325.253
325.271
325.29
325.308
325.326
325.343
325.361
325.378
325.395
325.411
325.428
325.444
325.46
325.477
325.492
325.508
325.524
325.54
325.555
325.571
325.588
325.606
325.627
325.653
325.697
325.8
326.068
320.488
320.866
321.253
321.587
321.876
322.127
322.347
322.541
322.715
322.87
323.01
323.137
323.252
323.358
323.456
323.546
323.629
323.707
323.779
323.847
323.911
323.971
324.028
324.081
324.133
324.181
324.228
324.273
324.315
324.356
324.395
324.433
324.47
324.505
324.539
324.572
324.604
324.635
324.666
324.695
324.724
324.753
324.78
324.807
324.833
324.859
324.885
324.91
324.934
324.959
324.982
325.006
325.029
325.051
325.074
325.095
325.117
325.138
325.159
325.179
325.199
325.218
325.238
325.257
325.276
325.294
325.312
325.33
325.348
325.365
325.383
325.4
325.416
325.433
325.449
325.466
325.482
325.498
325.514
325.529
325.545
325.561
325.577
325.594
325.612
325.633
325.659
325.702
325.804
326.072
320.488
320.866
321.253
321.587
321.876
322.127
322.347
322.541
322.715
322.87
323.01
323.137
323.253
323.359
323.456
323.546
323.63
323.708
323.78
323.848
323.912
323.972
324.029
324.083
324.135
324.184
324.23
324.275
324.318
324.359
324.398
324.436
324.473
324.508
324.542
324.576
324.608
324.639
324.67
324.7
324.729
324.757
324.785
324.812
324.839
324.865
324.89
324.915
324.94
324.965
324.989
325.012
325.035
325.058
325.08
325.102
325.123
325.145
325.165
325.186
325.206
325.226
325.245
325.264
325.283
325.302
325.32
325.338
325.355
325.373
325.39
325.407
325.424
325.44
325.457
325.473
325.489
325.505
325.521
325.537
325.553
325.568
325.585
325.602
325.62
325.64
325.665
325.707
325.807
326.073
320.488
320.866
321.253
321.587
321.876
322.127
322.348
322.542
322.716
322.871
323.012
323.139
323.255
323.361
323.459
323.55
323.633
323.711
323.784
323.853
323.917
323.978
324.035
324.089
324.141
324.19
324.237
324.282
324.325
324.366
324.406
324.444
324.481
324.517
324.552
324.586
324.618
324.65
324.681
324.711
324.74
324.769
324.797
324.825
324.852
324.878
324.904
324.929
324.954
324.979
325.003
325.027
325.05
325.073
325.095
325.118
325.139
325.161
325.182
325.202
325.223
325.242
325.262
325.281
325.3
325.319
325.337
325.355
325.373
325.391
325.408
325.425
325.442
325.458
325.475
325.491
325.507
325.523
325.538
325.554
325.57
325.585
325.601
325.618
325.636
325.656
325.68
325.72
325.817
326.077
320.488
320.868
321.256
321.591
321.882
322.134
322.356
322.552
322.726
322.883
323.025
323.153
323.27
323.378
323.477
323.569
323.654
323.733
323.807
323.877
323.942
324.004
324.062
324.118
324.171
324.221
324.269
324.315
324.359
324.401
324.442
324.481
324.519
324.556
324.592
324.627
324.66
324.693
324.725
324.756
324.787
324.816
324.845
324.874
324.902
324.929
324.956
324.982
325.008
325.034
325.059
325.083
325.107
325.131
325.154
325.177
325.2
325.222
325.243
325.265
325.286
325.307
325.327
325.347
325.367
325.386
325.405
325.424
325.442
325.46
325.478
325.495
325.513
325.53
325.547
325.563
325.58
325.596
325.612
325.628
325.644
325.66
325.676
325.693
325.711
325.731
325.755
325.793
325.883
326.131
320.495
320.88
321.274
321.615
321.911
322.169
322.396
322.598
322.777
322.939
323.085
323.218
323.34
323.452
323.555
323.651
323.74
323.823
323.901
323.974
324.043
324.109
324.171
324.23
324.286
324.339
324.391
324.44
324.487
324.533
324.577
324.619
324.66
324.7
324.739
324.776
324.813
324.849
324.884
324.918
324.951
324.983
325.015
325.046
325.077
325.107
325.137
325.166
325.194
325.222
325.249
325.276
325.303
325.329
325.355
325.38
325.405
325.429
325.454
325.477
325.5
325.523
325.546
325.568
325.59
325.611
325.633
325.653
325.674
325.694
325.714
325.733
325.753
325.772
325.79
325.809
325.827
325.845
325.863
325.88
325.898
325.916
325.933
325.952
325.971
325.992
326.016
326.052
326.133
326.349
)
;
        refGradient     uniform 0;
        valueFraction   nonuniform List<scalar> 
990
(
0.495766
0.495766
0.495766
0.495766
0.495766
0.495766
0.495766
0.495766
0.495766
0.495766
0.495766
0.495766
0.495766
0.495766
0.495766
0.495766
0.495766
0.495766
0.495766
0.495766
0.495766
0.495766
0.495766
0.495766
0.495766
0.495766
0.495766
0.495766
0.495766
0.495766
0.495766
0.495766
0.495766
0.495766
0.495766
0.495766
0.495766
0.495766
0.495766
0.495766
0.495766
0.495766
0.495766
0.495766
0.495766
0.495766
0.495766
0.495766
0.495766
0.495766
0.495766
0.495766
0.495766
0.495766
0.495766
0.495766
0.495766
0.495766
0.495766
0.495766
0.495766
0.495766
0.495766
0.495766
0.495766
0.495766
0.495766
0.495766
0.495766
0.495766
0.495766
0.495766
0.495766
0.495766
0.495766
0.495766
0.495766
0.495766
0.495766
0.495766
0.495766
0.495766
0.495766
0.495766
0.495766
0.495766
0.495766
0.495766
0.495766
0.495766
0.495766
0.495766
0.495766
0.495766
0.495766
0.495766
0.495766
0.495766
0.495766
0.495766
0.495766
0.495766
0.495766
0.495766
0.495766
0.495766
0.495766
0.495766
0.495766
0.495766
0.495766
0.495766
0.495766
0.495766
0.495766
0.495766
0.495766
0.495766
0.495766
0.495766
0.495766
0.495766
0.495766
0.495766
0.495766
0.495766
0.495766
0.495766
0.495766
0.495766
0.495766
0.495766
0.495766
0.495766
0.495766
0.495766
0.495766
0.495766
0.495766
0.495766
0.495766
0.495766
0.495766
0.495766
0.495766
0.495766
0.495766
0.495766
0.495766
0.495766
0.495766
0.495766
0.495766
0.495766
0.495766
0.495766
0.495766
0.495766
0.495766
0.495766
0.495766
0.495766
0.495766
0.495766
0.495766
0.495766
0.495766
0.495766
0.495766
0.495766
0.495766
0.495766
0.495766
0.495766
0.495766
0.495766
0.495766
0.495766
0.495766
0.495766
0.495766
0.495766
0.495766
0.495766
0.495766
0.495766
0.495766
0.495766
0.495766
0.495766
0.495766
0.495766
0.495766
0.495766
0.495766
0.495766
0.495766
0.495766
0.495766
0.495766
0.495766
0.495766
0.495766
0.495766
0.495766
0.495766
0.495766
0.495766
0.495766
0.495766
0.495766
0.495766
0.495766
0.495766
0.495766
0.495766
0.495766
0.495766
0.495766
0.495766
0.495766
0.495766
0.495766
0.495766
0.495766
0.495766
0.495766
0.495766
0.495766
0.495766
0.495766
0.495766
0.495766
0.495766
0.495766
0.495766
0.495766
0.495766
0.495766
0.495766
0.495766
0.495766
0.495766
0.495766
0.495766
0.495766
0.495766
0.495766
0.495766
0.495766
0.495766
0.495766
0.495766
0.495766
0.495766
0.495766
0.495766
0.495766
0.495766
0.495766
0.495766
0.495766
0.495766
0.495766
0.495766
0.495766
0.495766
0.495766
0.495766
0.495766
0.495766
0.495766
0.495766
0.495766
0.495766
0.495766
0.495766
0.495766
0.495766
0.495766
0.495766
0.495766
0.495766
0.495766
0.495766
0.495766
0.495766
0.495766
0.495766
0.495766
0.495766
0.495766
0.495766
0.495766
0.495766
0.495766
0.495766
0.495766
0.495766
0.495766
0.495766
0.495766
0.495766
0.495766
0.495766
0.495766
0.495766
0.495766
0.495766
0.495766
0.495766
0.495766
0.495766
0.495766
0.495766
0.495766
0.495766
0.495766
0.495766
0.495766
0.495766
0.495766
0.495766
0.495766
0.495766
0.495766
0.495766
0.495766
0.495766
0.495766
0.495766
0.495766
0.495766
0.495766
0.495766
0.495766
0.495766
0.495766
0.495766
0.495766
0.495766
0.495766
0.495766
0.495766
0.495766
0.495766
0.495766
0.495766
0.495766
0.495766
0.495766
0.495766
0.495766
0.495766
0.495766
0.495766
0.495766
0.495766
0.495766
0.495766
0.495766
0.495766
0.495766
0.495766
0.495766
0.495766
0.495766
0.495766
0.495766
0.495766
0.495766
0.495766
0.495766
0.495766
0.495766
0.495766
0.495766
0.495766
0.495766
0.495766
0.495766
0.495766
0.495766
0.495766
0.495766
0.495766
0.495766
0.495766
0.495766
0.495766
0.495766
0.495766
0.495766
0.495766
0.495766
0.495766
0.495766
0.495766
0.495766
0.495766
0.495766
0.495766
0.495766
0.495766
0.495766
0.495766
0.495766
0.495766
0.495766
0.495766
0.495766
0.495766
0.495766
0.495766
0.495766
0.495766
0.495766
0.495766
0.495766
0.495766
0.495766
0.495766
0.495766
0.495766
0.495766
0.495766
0.495766
0.495766
0.495766
0.495766
0.495766
0.495766
0.495766
0.495766
0.495766
0.495766
0.495766
0.495766
0.495766
0.495766
0.495766
0.495766
0.495766
0.495766
0.495766
0.495766
0.495766
0.495766
0.495766
0.495766
0.495766
0.495766
0.495766
0.495766
0.495766
0.495766
0.495766
0.495766
0.495766
0.495766
0.495766
0.495766
0.495766
0.495766
0.495766
0.495766
0.495766
0.495766
0.495766
0.495766
0.495766
0.495766
0.495766
0.495766
0.495766
0.495766
0.495766
0.495766
0.495766
0.495766
0.495766
0.495766
0.495766
0.495766
0.495766
0.495766
0.495766
0.495766
0.495766
0.495766
0.495766
0.495766
0.495766
0.495766
0.495766
0.495766
0.495766
0.495766
0.495766
0.495766
0.495766
0.495766
0.495766
0.495766
0.495766
0.495766
0.495766
0.495766
0.495766
0.495766
0.495766
0.495766
0.495766
0.495766
0.495766
0.495766
0.495766
0.495766
0.495766
0.495766
0.495766
0.495766
0.495766
0.495766
0.495766
0.495766
0.495766
0.495766
0.495766
0.495766
0.495766
0.495766
0.495766
0.495766
0.495766
0.495766
0.495766
0.495766
0.495766
0.495766
0.495766
0.495766
0.495766
0.495766
0.495766
0.495766
0.495766
0.495766
0.495766
0.495766
0.495766
0.495766
0.495766
0.495766
0.495766
0.495766
0.495766
0.495766
0.495766
0.495766
0.495766
0.495766
0.495766
0.495766
0.495766
0.495766
0.495766
0.495766
0.495766
0.495766
0.495766
0.495766
0.495766
0.495766
0.495766
0.495766
0.495766
0.495766
0.495766
0.495766
0.495766
0.495766
0.495766
0.495766
0.495766