/*--------------------------------*- C++ -*----------------------------------*\
| =========                 |                                                 |
| \\      /  F ield         | OpenFOAM: The Open Source CFD Toolbox           |
|  \\    /   O peration     | Version:  v2012                                 |
|   \\  /    A nd           | Website:  www.openfoam.com                      |
|    \\/     M anipulation  |                                                 |
\*---------------------------------------------------------------------------*/
FoamFile
{
    version     2.0;
    format      ascii;
    class       volScalarField;
    location    "500/asphalt";
    object      T;
}
// * * * * * * * * * * * * * * * * * * * * * * * * * * * * * * * * * * * * * //

dimensions      [0 0 0 1 0 0 0];


internalField   nonuniform List<scalar> 
1980
(
321.649
322.068
322.481
322.835
323.14
323.405
323.638
323.843
324.026
324.19
324.338
324.472
324.594
324.706
324.809
324.904
324.992
325.074
325.15
325.22
325.286
325.348
325.407
325.462
325.515
325.565
325.613
325.66
325.705
325.749
325.791
325.829
325.854
325.887
325.921
325.954
325.987
326.019
326.05
326.081
326.111
326.14
326.169
326.197
326.225
326.252
326.279
326.305
326.33
326.355
326.379
326.403
326.426
326.449
326.473
326.496
326.52
326.546
326.583
326.609
326.632
326.653
326.674
326.694
326.714
326.733
326.751
326.77
326.788
326.806
326.824
326.842
326.859
326.876
326.893
326.91
326.926
326.943
326.959
326.975
326.992
327.009
327.027
327.046
327.067
327.09
327.119
327.165
327.272
327.577
321.649
322.067
322.481
322.835
323.14
323.405
323.638
323.843
324.026
324.19
324.337
324.471
324.594
324.706
324.809
324.904
324.992
325.074
325.15
325.22
325.286
325.348
325.407
325.462
325.515
325.566
325.615
325.662
325.707
325.752
325.794
325.834
325.871
325.906
325.941
325.975
326.008
326.041
326.072
326.103
326.133
326.163
326.191
326.22
326.247
326.274
326.301
326.327
326.352
326.377
326.402
326.426
326.45
326.473
326.496
326.519
326.542
326.565
326.589
326.611
326.633
326.654
326.676
326.696
326.716
326.735
326.754
326.772
326.791
326.809
326.827
326.844
326.862
326.879
326.896
326.913
326.93
326.946
326.962
326.978
326.995
327.012
327.029
327.048
327.068
327.091
327.12
327.166
327.273
327.579
321.649
322.067
322.481
322.835
323.14
323.405
323.638
323.843
324.026
324.19
324.337
324.471
324.594
324.706
324.809
324.904
324.992
325.073
325.149
325.22
325.286
325.348
325.407
325.463
325.516
325.567
325.616
325.663
325.709
325.754
325.796
325.836
325.874
325.911
325.946
325.98
326.014
326.046
326.078
326.109
326.139
326.169
326.198
326.226
326.253
326.28
326.306
326.333
326.358
326.384
326.409
326.433
326.457
326.481
326.504
326.526
326.549
326.571
326.593
326.614
326.636
326.657
326.678
326.698
326.718
326.737
326.756
326.775
326.793
326.812
326.83
326.848
326.865
326.883
326.9
326.917
326.933
326.95
326.966
326.983
326.999
327.016
327.033
327.051
327.071
327.094
327.123
327.168
327.276
327.581
321.648
322.067
322.481
322.835
323.14
323.405
323.637
323.843
324.026
324.189
324.337
324.471
324.593
324.705
324.808
324.904
324.992
325.073
325.149
325.22
325.286
325.349
325.408
325.464
325.517
325.569
325.618
325.665
325.711
325.756
325.798
325.838
325.876
325.912
325.948
325.982
326.016
326.049
326.081
326.112
326.142
326.172
326.201
326.229
326.256
326.283
326.31
326.336
326.361
326.387
326.412
326.437
326.461
326.485
326.508
326.531
326.553
326.575
326.597
326.618
326.639
326.66
326.681
326.701
326.721
326.74
326.759
326.778
326.796
326.815
326.833
326.851
326.868
326.886
326.903
326.92
326.937
326.954
326.971
326.987
327.003
327.02
327.037
327.055
327.075
327.097
327.126
327.171
327.278
327.584
321.648
322.067
322.481
322.835
323.14
323.405
323.637
323.842
324.025
324.189
324.337
324.471
324.593
324.705
324.808
324.903
324.991
325.073
325.149
325.22
325.286
325.349
325.409
325.465
325.519
325.57
325.62
325.667
325.713
325.757
325.799
325.838
325.876
325.913
325.949
325.984
326.018
326.051
326.082
326.114
326.144
326.174
326.203
326.231
326.259
326.285
326.312
326.338
326.364
326.39
326.415
326.44
326.464
326.488
326.511
326.534
326.556
326.578
326.6
326.621
326.642
326.663
326.684
326.704
326.724
326.743
326.762
326.781
326.8
326.818
326.836
326.854
326.872
326.889
326.907
326.924
326.941
326.958
326.975
326.992
327.008
327.025
327.042
327.06
327.079
327.102
327.129
327.174
327.281
327.587
321.648
322.067
322.481
322.834
323.139
323.405
323.637
323.842
324.025
324.189
324.337
324.471
324.593
324.705
324.808
324.903
324.991
325.073
325.149
325.22
325.287
325.35
325.41
325.466
325.52
325.572
325.621
325.669
325.715
325.758
325.8
325.839
325.877
325.914
325.95
325.985
326.019
326.052
326.084
326.116
326.146
326.176
326.205
326.233
326.261
326.288
326.315
326.341
326.367
326.393
326.418
326.443
326.467
326.491
326.514
326.537
326.56
326.582
326.604
326.625
326.646
326.667
326.687
326.707
326.727
326.747
326.766
326.785
326.804
326.822
326.841
326.859
326.876
326.894
326.911
326.928
326.946
326.963
326.98
326.997
327.014
327.031
327.048
327.066
327.085
327.107
327.135
327.179
327.286
327.591
321.648
322.066
322.48
322.834
323.139
323.404
323.637
323.842
324.025
324.189
324.337
324.471
324.593
324.705
324.808
324.903
324.991
325.073
325.149
325.22
325.288
325.351
325.411
325.468
325.522
325.574
325.623
325.671
325.716
325.759
325.801
325.84
325.879
325.916
325.952
325.987
326.021
326.054
326.086
326.118
326.148
326.178
326.208
326.236
326.264
326.291
326.318
326.344
326.37
326.396
326.422
326.446
326.471
326.495
326.518
326.541
326.564
326.586
326.608
326.63
326.651
326.672
326.692
326.712
326.732
326.752
326.771
326.79
326.809
326.828
326.846
326.864
326.882
326.899
326.917
326.934
326.952
326.969
326.986
327.003
327.02
327.038
327.055
327.073
327.093
327.115
327.141
327.185
327.291
327.596
321.648
322.066
322.48
322.834
323.139
323.404
323.636
323.842
324.025
324.189
324.337
324.471
324.593
324.705
324.808
324.903
324.992
325.074
325.15
325.222
325.289
325.353
325.413
325.47
325.524
325.576
325.626
325.673
325.718
325.762
325.803
325.843
325.882
325.919
325.955
325.991
326.025
326.058
326.091
326.122
326.153
326.183
326.212
326.241
326.269
326.297
326.324
326.35
326.377
326.402
326.428
326.453
326.477
326.501
326.525
326.548
326.571
326.593
326.615
326.637
326.658
326.679
326.699
326.72
326.74
326.759
326.779
326.798
326.817
326.835
326.854
326.872
326.89
326.907
326.925
326.942
326.959
326.977
326.994
327.011
327.028
327.045
327.063
327.081
327.1
327.122
327.148
327.19
327.294
327.597
321.647
322.066
322.48
322.834
323.139
323.404
323.637
323.843
324.026
324.19
324.338
324.472
324.595
324.707
324.811
324.906
324.994
325.077
325.154
325.226
325.294
325.358
325.418
325.476
325.53
325.582
325.632
325.68
325.725
325.769
325.81
325.851
325.89
325.928
325.964
326
326.034
326.068
326.101
326.133
326.164
326.194
326.224
326.253
326.281
326.309
326.337
326.363
326.39
326.416
326.441
326.467
326.491
326.515
326.539
326.563
326.586
326.608
326.631
326.652
326.674
326.695
326.716
326.736
326.756
326.776
326.795
326.814
326.833
326.852
326.87
326.889
326.906
326.924
326.941
326.959
326.976
326.993
327.01
327.027
327.044
327.061
327.078
327.096
327.116
327.137
327.162
327.202
327.302
327.599
321.648
322.068
322.483
322.838
323.144
323.411
323.645
323.851
324.036
324.201
324.351
324.486
324.61
324.723
324.828
324.925
325.014
325.098
325.176
325.25
325.319
325.384
325.446
325.504
325.56
325.613
325.663
325.712
325.758
325.803
325.846
325.887
325.928
325.966
326.004
326.041
326.076
326.111
326.145
326.178
326.21
326.241
326.272
326.302
326.331
326.36
326.389
326.416
326.444
326.471
326.497
326.523
326.548
326.573
326.598
326.622
326.646
326.67
326.693
326.715
326.738
326.759
326.781
326.802
326.823
326.843
326.863
326.883
326.903
326.922
326.941
326.96
326.978
326.996
327.014
327.032
327.049
327.067
327.084
327.101
327.119
327.136
327.154
327.172
327.192
327.213
327.238
327.276
327.369
327.652
321.655
322.082
322.503
322.865
323.178
323.451
323.691
323.904
324.094
324.265
324.42
324.56
324.689
324.808
324.917
325.018
325.113
325.201
325.283
325.361
325.434
325.504
325.569
325.632
325.691
325.748
325.802
325.855
325.905
325.953
326
326.045
326.088
326.131
326.172
326.212
326.251
326.289
326.326
326.362
326.397
326.432
326.466
326.499
326.531
326.563
326.595
326.626
326.656
326.686
326.715
326.743
326.772
326.799
326.827
326.854
326.88
326.906
326.932
326.957
326.982
327.006
327.03
327.054
327.077
327.1
327.123
327.145
327.167
327.189
327.21
327.231
327.251
327.272
327.292
327.312
327.331
327.351
327.37
327.389
327.408
327.427
327.447
327.467
327.487
327.51
327.535
327.572
327.655
327.9
322.795
323.258
323.7
324.073
324.394
324.673
324.917
325.134
325.326
325.499
325.654
325.795
325.924
326.042
326.15
326.251
326.344
326.43
326.51
326.584
326.654
326.719
326.781
326.839
326.895
326.948
326.999
327.048
327.095
327.142
327.187
327.227
327.259
327.295
327.332
327.367
327.402
327.435
327.468
327.501
327.532
327.563
327.593
327.623
327.652
327.681
327.709
327.737
327.763
327.79
327.815
327.84
327.864
327.889
327.914
327.938
327.963
327.989
328.022
328.048
328.071
328.094
328.116
328.137
328.158
328.178
328.197
328.217
328.236
328.255
328.274
328.292
328.311
328.329
328.347
328.364
328.382
328.399
328.416
328.433
328.451
328.469
328.487
328.507
328.529
328.553
328.583
328.628
328.737
329.082
322.795
323.258
323.699
324.073
324.394
324.673
324.917
325.133
325.326
325.498
325.654
325.795
325.924
326.042
326.15
326.251
326.344
326.43
326.509
326.584
326.653
326.719
326.781
326.839
326.895
326.948
327
327.049
327.097
327.144
327.189
327.231
327.271
327.309
327.345
327.381
327.416
327.451
327.484
327.516
327.548
327.579
327.609
327.639
327.668
327.696
327.724
327.752
327.779
327.805
327.831
327.857
327.882
327.906
327.931
327.955
327.979
328.003
328.027
328.05
328.073
328.095
328.118
328.139
328.16
328.18
328.2
328.219
328.239
328.258
328.277
328.295
328.314
328.332
328.35
328.368
328.385
328.402
328.419
328.436
328.454
328.471
328.49
328.509
328.53
328.554
328.584
328.629
328.738
329.084
322.795
323.258
323.699
324.072
324.394
324.673
324.917
325.133
325.326
325.498
325.654
325.795
325.924
326.042
326.15
326.25
326.343
326.429
326.509
326.584
326.653
326.719
326.781
326.84
326.896
326.95
327.001
327.051
327.1
327.146
327.191
327.233
327.273
327.312
327.349
327.385
327.421
327.455
327.488
327.521
327.553
327.584
327.614
327.644
327.673
327.701
327.729
327.757
327.784
327.81
327.837
327.863
327.888
327.913
327.937
327.961
327.985
328.008
328.031
328.053
328.076
328.098
328.12
328.142
328.162
328.182
328.202
328.222
328.242
328.261
328.28
328.299
328.317
328.335
328.354
328.372
328.389
328.407
328.424
328.441
328.458
328.475
328.493
328.513
328.534
328.557
328.586
328.632
328.741
329.087
322.795
323.258
323.699
324.072
324.393
324.672
324.917
325.133
325.326
325.498
325.654
325.795
325.924
326.041
326.15
326.25
326.343
326.429
326.509
326.583
326.653
326.719
326.782
326.841
326.897
326.951
327.003
327.053
327.102
327.148
327.192
327.234
327.275
327.313
327.351
327.387
327.423
327.457
327.491
327.524
327.555
327.587
327.617
327.647
327.676
327.704
327.732
327.759
327.787
327.813
327.84
327.866
327.892
327.917
327.941
327.965
327.989
328.012
328.035
328.057
328.079
328.101
328.123
328.144
328.165
328.185
328.205
328.225
328.245
328.264
328.283
328.302
328.321
328.339
328.357
328.375
328.393
328.411
328.428
328.445
328.463
328.48
328.498
328.517
328.537
328.561
328.589
328.634
328.743
329.09
322.794
323.257
323.699
324.072
324.393
324.672
324.917
325.133
325.325
325.498
325.653
325.795
325.923
326.041
326.15
326.25
326.343
326.429
326.509
326.583
326.654
326.72
326.782
326.842
326.899
326.953
327.005
327.055
327.103
327.149
327.193
327.235
327.275
327.314
327.352
327.388
327.424
327.459
327.493
327.525
327.557
327.589
327.619
327.649
327.678
327.706
327.734
327.762
327.789
327.816
327.843
327.869
327.895
327.92
327.944
327.968
327.992
328.015
328.038
328.06
328.082
328.104
328.126
328.147
328.168
328.188
328.208
328.228
328.248
328.268
328.287
328.306
328.324
328.343
328.361
328.379
328.397
328.415
328.433
328.45
328.468
328.485
328.503
328.522
328.542
328.565
328.593
328.638
328.746
329.093
322.794
323.257
323.699
324.072
324.393
324.672
324.916
325.133
325.325
325.498
325.653
325.794
325.923
326.041
326.15
326.25
326.342
326.428
326.509
326.584
326.654
326.721
326.784
326.843
326.9
326.955
327.007
327.057
327.105
327.151
327.194
327.236
327.276
327.315
327.353
327.39
327.426
327.461
327.494
327.527
327.559
327.591
327.621
327.651
327.681
327.709
327.737
327.765
327.792
327.819
327.846
327.872
327.898
327.923
327.948
327.972
327.996
328.019
328.042
328.064
328.086
328.108
328.13
328.151
328.172
328.192
328.213
328.233
328.252
328.272
328.291
328.31
328.329
328.347
328.365
328.384
328.402
328.42
328.438
328.456
328.473
328.491
328.509
328.528
328.548
328.571
328.599
328.643
328.751
329.097
322.794
323.257
323.698
324.071
324.393
324.672
324.916
325.132
325.325
325.497
325.653
325.794
325.923
326.041
326.149
326.25
326.342
326.428
326.509
326.584
326.655
326.722
326.785
326.845
326.902
326.956
327.008
327.058
327.106
327.152
327.195
327.237
327.278
327.317
327.355
327.392
327.428
327.463
327.496
327.53
327.562
327.593
327.624
327.654
327.684
327.712
327.74
327.768
327.796
327.823
327.849
327.876
327.901
327.927
327.951
327.976
328
328.023
328.046
328.069
328.091
328.113
328.134
328.156
328.177
328.197
328.218
328.238
328.258
328.277
328.297
328.316
328.334
328.353
328.371
328.389
328.408
328.426
328.444
328.462
328.48
328.498
328.517
328.536
328.556
328.579
328.606
328.649
328.756
329.102
322.794
323.257
323.698
324.071
324.392
324.671
324.916
325.132
325.325
325.497
325.653
325.794
325.923
326.041
326.15
326.25
326.343
326.429
326.51
326.585
326.656
326.723
326.787
326.847
326.904
326.959
327.011
327.061
327.108
327.154
327.198
327.24
327.28
327.32
327.358
327.395
327.431
327.466
327.5
327.534
327.566
327.598
327.629
327.659
327.688
327.717
327.746
327.774
327.802
327.829
327.855
327.882
327.907
327.933
327.958
327.982
328.006
328.03
328.053
328.076
328.098
328.12
328.142
328.163
328.184
328.205
328.225
328.245
328.265
328.285
328.304
328.323
328.342
328.36
328.379
328.397
328.415
328.433
328.451
328.469
328.487
328.506
328.524
328.543
328.563
328.586
328.612
328.654
328.759
329.102
322.794
323.256
323.698
324.071
324.392
324.671
324.916
325.132
325.325
325.498
325.654
325.795
325.924
326.042
326.151
326.252
326.345
326.431
326.512
326.588
326.66
326.727
326.791
326.852
326.909
326.964
327.016
327.066
327.114
327.16
327.204
327.246
327.287
327.327
327.366
327.403
327.439
327.475
327.509
327.543
327.576
327.608
327.639
327.669
327.699
327.729
327.757
327.786
327.814
327.841
327.868
327.894
327.92
327.946
327.971
327.995
328.02
328.043
328.067
328.09
328.112
328.134
328.156
328.178
328.199
328.219
328.24
328.26
328.28
328.3
328.319
328.338
328.357
328.375
328.393
328.412
328.43
328.448
328.465
328.483
328.501
328.519
328.537
328.556
328.576
328.598
328.624
328.663
328.764
329.101
322.794
323.258
323.7
324.074
324.397
324.677
324.923
325.14
325.334
325.508
325.665
325.808
325.938
326.057
326.167
326.269
326.363
326.451
326.534
326.611
326.683
326.752
326.817
326.879
326.937
326.993
327.046
327.097
327.146
327.193
327.238
327.282
327.324
327.365
327.404
327.443
327.48
327.516
327.552
327.587
327.62
327.653
327.686
327.717
327.748
327.778
327.808
327.837
327.866
327.894
327.922
327.949
327.976
328.002
328.028
328.054
328.079
328.103
328.128
328.151
328.175
328.198
328.22
328.242
328.264
328.286
328.307
328.328
328.348
328.368
328.388
328.408
328.427
328.446
328.465
328.483
328.502
328.52
328.538
328.556
328.574
328.593
328.611
328.63
328.651
328.673
328.698
328.736
328.829
329.151
322.802
323.273
323.724
324.106
324.436
324.723
324.976
325.2
325.401
325.581
325.744
325.893
326.029
326.154
326.269
326.376
326.476
326.569
326.656
326.738
326.815
326.889
326.958
327.024
327.087
327.147
327.205
327.26
327.313
327.364
327.413
327.461
327.507
327.552
327.595
327.638
327.679
327.719
327.758
327.796
327.834
327.87
327.906
327.941
327.976
328.01
328.043
328.076
328.108
328.139
328.17
328.2
328.23
328.26
328.289
328.317
328.345
328.373
328.4
328.427
328.453
328.479
328.504
328.529
328.554
328.578
328.602
328.626
328.649
328.672
328.694
328.717
328.738
328.76
328.781
328.802
328.823
328.843
328.864
328.884
328.904
328.924
328.945
328.966
328.988
329.011
329.037
329.074
329.156
329.433
)
;

boundaryField
{
    inlet
    {
        type            zeroGradient;
    }
    outlet
    {
        type            zeroGradient;
    }
    side
    {
        type            zeroGradient;
    }
    asphalt_to_soil1
    {
        type            compressible::turbulentTemperatureRadCoupledMixed;
        refValue        nonuniform List<scalar> 
990
(
320.488
320.867
321.253
321.588
321.876
322.128
322.348
322.542
322.715
322.87
323.01
323.137
323.252
323.358
323.456
323.546
323.629
323.707
323.778
323.845
323.907
323.966
324.021
324.073
324.123
324.171
324.217
324.261
324.304
324.345
324.384
324.418
324.438
324.468
324.499
324.531
324.562
324.592
324.622
324.651
324.679
324.707
324.734
324.76
324.787
324.812
324.838
324.862
324.887
324.91
324.932
324.955
324.977
324.999
325.021
325.043
325.066
325.092
325.132
325.158
325.18
325.2
325.22
325.239
325.257
325.275
325.293
325.311
325.328
325.345
325.362
325.378
325.395
325.411
325.427
325.443
325.459
325.474
325.489
325.505
325.521
325.537
325.554
325.572
325.592
325.614
325.643
325.688
325.793
326.062
320.488
320.867
321.253
321.588
321.876
322.127
322.347
322.542
322.715
322.87
323.01
323.137
323.252
323.358
323.456
323.546
323.629
323.706
323.778
323.845
323.907
323.966
324.021
324.074
324.124
324.172
324.218
324.262
324.305
324.347
324.388
324.425
324.459
324.492
324.525
324.557
324.589
324.619
324.649
324.678
324.707
324.734
324.762
324.788
324.814
324.84
324.865
324.89
324.914
324.938
324.961
324.984
325.006
325.028
325.05
325.071
325.093
325.115
325.139
325.16
325.181
325.201
325.221
325.241
325.259
325.277
325.295
325.313
325.33
325.347
325.364
325.381
325.398
325.414
325.43
325.446
325.462
325.477
325.493
325.508
325.524
325.54
325.556
325.574
325.593
325.616
325.644
325.689
325.794
326.063
320.488
320.867
321.253
321.588
321.876
322.127
322.347
322.542
322.715
322.87
323.01
323.136
323.252
323.358
323.456
323.546
323.629
323.706
323.778
323.845
323.907
323.966
324.022
324.074
324.125
324.173
324.219
324.264
324.308
324.349
324.39
324.427
324.463
324.498
324.531
324.563
324.595
324.626
324.656
324.685
324.714
324.742
324.769
324.796
324.821
324.847
324.872
324.896
324.921
324.945
324.969
324.992
325.014
325.036
325.058
325.08
325.101
325.122
325.143
325.163
325.184
325.203
325.224
325.243
325.261
325.28
325.298
325.315
325.333
325.35
325.367
325.384
325.401
325.417
325.433
325.45
325.465
325.481
325.497
325.512
325.528
325.543
325.56
325.577
325.596
325.618
325.646
325.692
325.796
326.066
320.488
320.866
321.253
321.587
321.876
322.127
322.347
322.542
322.715
322.87
323.01
323.136
323.252
323.358
323.455
323.545
323.629
323.706
323.778
323.844
323.907
323.966
324.022
324.075
324.126
324.174
324.221
324.266
324.309
324.351
324.391
324.429
324.465
324.499
324.533
324.566
324.598
324.629
324.659
324.688
324.717
324.745
324.772
324.799
324.825
324.85
324.875
324.9
324.924
324.948
324.972
324.996
325.018
325.041
325.063
325.084
325.105
325.126
325.147
325.167
325.187
325.206
325.226
325.245
325.264
325.282
325.3
325.318
325.336
325.353
325.37
325.387
325.404
325.42
325.437
325.453
325.469
325.485
325.501
325.516
325.532
325.547
325.564
325.581
325.6
325.621
325.649
325.694
325.799
326.068
320.488
320.866
321.253
321.587
321.876
322.127
322.347
322.541
322.714
322.87
323.009
323.136
323.252
323.358
323.455
323.545
323.628
323.706
323.777
323.845
323.907
323.967
324.023
324.076
324.127
324.176
324.223
324.268
324.311
324.352
324.392
324.43
324.466
324.5
324.534
324.567
324.599
324.63
324.66
324.69
324.719
324.747
324.774
324.801
324.827
324.852
324.877
324.902
324.927
324.951
324.975
324.998
325.021
325.044
325.066
325.087
325.109
325.13
325.15
325.17
325.19
325.209
325.229
325.248
325.267
325.285
325.303
325.321
325.339
325.356
325.374
325.391
325.407
325.424
325.44
325.456
325.473
325.489
325.505
325.521
325.536
325.552
325.568
325.585
325.604
325.625
325.653
325.697
325.802
326.071
320.488
320.866
321.253
321.587
321.876
322.127
322.347
322.541
322.714
322.869
323.009
323.136
323.252
323.358
323.455
323.545
323.628
323.706
323.777
323.845
323.908
323.968
324.024
324.078
324.129
324.178
324.224
324.269
324.313
324.354
324.393
324.43
324.467
324.502
324.536
324.568
324.601
324.632
324.662
324.692
324.721
324.749
324.776
324.803
324.829
324.855
324.88
324.905
324.929
324.954
324.978
325.001
325.024
325.047
325.069
325.091
325.112
325.133
325.154
325.174
325.194
325.213
325.233
325.252
325.27
325.289
325.307
325.325
325.343
325.36
325.378
325.395
325.411
325.428
325.444
325.461
325.477
325.494
325.51
325.526
325.542
325.558
325.574
325.591
325.61
325.631
325.658
325.702
325.806
326.075
320.488
320.866
321.252
321.587
321.875
322.126
322.346
322.541
322.714
322.869
323.009
323.136
323.252
323.358
323.455
323.545
323.628
323.706
323.778
323.845
323.909
323.969
324.025
324.079
324.13
324.179
324.226
324.271
324.314
324.355
324.394
324.432
324.468
324.503
324.537
324.57
324.603
324.634
324.664
324.694
324.723
324.751
324.779
324.806
324.832
324.858
324.883
324.908
324.933
324.957
324.981
325.005
325.028
325.051
325.073
325.095
325.116
325.137
325.158
325.178
325.198
325.218
325.237
325.256
325.275
325.294
325.312
325.33
325.348
325.365
325.383
325.4
325.417
325.434
325.45
325.466
325.483
325.499
325.516
325.532
325.548
325.564
325.581
325.598
325.617
325.638
325.664
325.707
325.811
326.079
320.487
320.866
321.252
321.587
321.875
322.126
322.346
322.541
322.714
322.869
323.009
323.136
323.252
323.358
323.456
323.546
323.629
323.707
323.779
323.847
323.911
323.971
324.028
324.082
324.133
324.182
324.229
324.274
324.317
324.358
324.397
324.435
324.471
324.507
324.541
324.574
324.607
324.638
324.669
324.699
324.728
324.756
324.784
324.811
324.838
324.864
324.889
324.914
324.939
324.964
324.988
325.011
325.034
325.057
325.079
325.101
325.123
325.144
325.165
325.186
325.206
325.225
325.245
325.264
325.283
325.301
325.32
325.338
325.356
325.373
325.391
325.408
325.425
325.442
325.458
325.474
325.491
325.507
325.524
325.54
325.556
325.572
325.589
325.606
325.625
325.645
325.671
325.713
325.815
326.081
320.487
320.866
321.252
321.587
321.876
322.127
322.347
322.542
322.715
322.871
323.011
323.138
323.254
323.361
323.458
323.549
323.633
323.71
323.783
323.852
323.916
323.976
324.034
324.088
324.14
324.189
324.236
324.281
324.324
324.365
324.405
324.443
324.48
324.516
324.551
324.584
324.617
324.649
324.68
324.71
324.739
324.768
324.796
324.824
324.851
324.877
324.903
324.929
324.954
324.978
325.002
325.026
325.05
325.072
325.095
325.117
325.139
325.161
325.182
325.202
325.223
325.243
325.262
325.281
325.3
325.319
325.338
325.356
325.374
325.392
325.409
325.426
325.443
325.46
325.476
325.493
325.509
325.525
325.541
325.557
325.574
325.59
325.606
325.624
325.642
325.662
325.687
325.727
325.825
326.086
320.488
320.868
321.255
321.591
321.881
322.134
322.355
322.551
322.726
322.883
323.024
323.153
323.27
323.377
323.476
323.568
323.653
323.732
323.806
323.876
323.941
324.003
324.061
324.117
324.17
324.22
324.268
324.314
324.358
324.4
324.441
324.48
324.518
324.555
324.591
324.626
324.659
324.692
324.724
324.755
324.786
324.815
324.845
324.873
324.901
324.928
324.955
324.982
325.008
325.033
325.058
325.083
325.107
325.13
325.154
325.177
325.199
325.222
325.244
325.265
325.286
325.307
325.327
325.347
325.367
325.386
325.406
325.424
325.443
325.461
325.479
325.497
325.515
325.532
325.549
325.566
325.582
325.599
325.615
325.632
325.648
325.665
325.682
325.699
325.718
325.738
325.763
325.801
325.891
326.14
320.494
320.88
321.273
321.615
321.911
322.169
322.396
322.597
322.777
322.938
323.085
323.218
323.339
323.451
323.554
323.65
323.739
323.822
323.9
323.974
324.043
324.108
324.17
324.229
324.285
324.339
324.39
324.439
324.486
324.532
324.576
324.618
324.659
324.699
324.738
324.776
324.812
324.848
324.883
324.917
324.95
324.983
325.015
325.046
325.076
325.107
325.136
325.165
325.194
325.222
325.249
325.276
325.303
325.329
325.355
325.38
325.405
325.43
325.454
325.477
325.501
325.524
325.546
325.569
325.591
325.612
325.633
325.654
325.675
325.695
325.715
325.735
325.755
325.774
325.793
325.811
325.83
325.848
325.866
325.884
325.902
325.921
325.939
325.958
325.977
325.999
326.024
326.06
326.142
326.358
)
;
        refGradient     uniform 0;
        valueFraction   nonuniform List<scalar> 
990
(
0.495766
0.495766
0.495766
0.495766
0.495766
0.495766
0.495766
0.495766
0.495766
0.495766
0.495766
0.495766
0.495766
0.495766
0.495766
0.495766
0.495766
0.495766
0.495766
0.495766
0.495766
0.495766
0.495766
0.495766
0.495766
0.495766
0.495766
0.495766
0.495766
0.495766
0.495766
0.495766
0.495766
0.495766
0.495766
0.495766
0.495766
0.495766
0.495766
0.495766
0.495766
0.495766
0.495766
0.495766
0.495766
0.495766
0.495766
0.495766
0.495766
0.495766
0.495766
0.495766
0.495766
0.495766
0.495766
0.495766
0.495766
0.495766
0.495766
0.495766
0.495766
0.495766
0.495766
0.495766
0.495766
0.495766
0.495766
0.495766
0.495766
0.495766
0.495766
0.495766
0.495766
0.495766
0.495766
0.495766
0.495766
0.495766
0.495766
0.495766
0.495766
0.495766
0.495766
0.495766
0.495766
0.495766
0.495766
0.495766
0.495766
0.495766
0.495766
0.495766
0.495766
0.495766
0.495766
0.495766
0.495766
0.495766
0.495766
0.495766
0.495766
0.495766
0.495766
0.495766
0.495766
0.495766
0.495766
0.495766
0.495766
0.495766
0.495766
0.495766
0.495766
0.495766
0.495766
0.495766
0.495766
0.495766
0.495766
0.495766
0.495766
0.495766
0.495766
0.495766
0.495766
0.495766
0.495766
0.495766
0.495766
0.495766
0.495766
0.495766
0.495766
0.495766
0.495766
0.495766
0.495766
0.495766
0.495766
0.495766
0.495766
0.495766
0.495766
0.495766
0.495766
0.495766
0.495766
0.495766
0.495766
0.495766
0.495766
0.495766
0.495766
0.495766
0.495766
0.495766
0.495766
0.495766
0.495766
0.495766
0.495766
0.495766
0.495766
0.495766
0.495766
0.495766
0.495766
0.495766
0.495766
0.495766
0.495766
0.495766
0.495766
0.495766
0.495766
0.495766
0.495766
0.495766
0.495766
0.495766
0.495766
0.495766
0.495766
0.495766
0.495766
0.495766
0.495766
0.495766
0.495766
0.495766
0.495766
0.495766
0.495766
0.495766
0.495766
0.495766
0.495766
0.495766
0.495766
0.495766
0.495766
0.495766
0.495766
0.495766
0.495766
0.495766
0.495766
0.495766
0.495766
0.495766
0.495766
0.495766
0.495766
0.495766
0.495766
0.495766
0.495766
0.495766
0.495766
0.495766
0.495766
0.495766
0.495766
0.495766
0.495766
0.495766
0.495766
0.495766
0.495766
0.495766
0.495766
0.495766
0.495766
0.495766
0.495766
0.495766
0.495766
0.495766
0.495766
0.495766
0.495766
0.495766
0.495766
0.495766
0.495766
0.495766
0.495766
0.495766
0.495766
0.495766
0.495766
0.495766
0.495766
0.495766
0.495766
0.495766
0.495766
0.495766
0.495766
0.495766
0.495766
0.495766
0.495766
0.495766
0.495766
0.495766
0.495766
0.495766
0.495766
0.495766
0.495766
0.495766
0.495766
0.495766
0.495766
0.495766
0.495766
0.495766
0.495766
0.495766
0.495766
0.495766
0.495766
0.495766
0.495766
0.495766
0.495766
0.495766
0.495766
0.495766
0.495766
0.495766
0.495766
0.495766
0.495766
0.495766
0.495766
0.495766
0.495766
0.495766
0.495766
0.495766
0.495766
0.495766
0.495766
0.495766
0.495766
0.495766
0.495766
0.495766
0.495766
0.495766
0.495766
0.495766
0.495766
0.495766
0.495766
0.495766
0.495766
0.495766
0.495766
0.495766
0.495766
0.495766
0.495766
0.495766
0.495766
0.495766
0.495766
0.495766
0.495766
0.495766
0.495766
0.495766
0.495766
0.495766
0.495766
0.495766
0.495766
0.495766
0.495766
0.495766
0.495766
0.495766
0.495766
0.495766
0.495766
0.495766
0.495766
0.495766
0.495766
0.495766
0.495766
0.495766
0.495766
0.495766
0.495766
0.495766
0.495766
0.495766
0.495766
0.495766
0.495766
0.495766
0.495766
0.495766
0.495766
0.495766
0.495766
0.495766
0.495766
0.495766
0.495766
0.495766
0.495766
0.495766
0.495766
0.495766
0.495766
0.495766
0.495766
0.495766
0.495766
0.495766
0.495766
0.495766
0.495766
0.495766
0.495766
0.495766
0.495766
0.495766
0.495766
0.495766
0.495766
0.495766
0.495766
0.495766
0.495766
0.495766
0.495766
0.495766
0.495766
0.495766
0.495766
0.495766
0.495766
0.495766
0.495766
0.495766
0.495766
0.495766
0.495766
0.495766
0.495766
0.495766
0.495766
0.495766
0.495766
0.495766
0.495766
0.495766
0.495766
0.495766
0.495766
0.495766
0.495766
0.495766
0.495766
0.495766
0.495766
0.495766
0.495766
0.495766
0.495766
0.495766
0.495766
0.495766
0.495766
0.495766
0.495766
0.495766
0.495766
0.495766
0.495766
0.495766
0.495766
0.495766
0.495766
0.495766
0.495766
0.495766
0.495766
0.495766
0.495766
0.495766
0.495766
0.495766
0.495766
0.495766
0.495766
0.495766
0.495766
0.495766
0.495766
0.495766
0.495766
0.495766
0.495766
0.495766
0.495766
0.495766
0.495766
0.495766
0.495766
0.495766
0.495766
0.495766
0.495766
0.495766
0.495766
0.495766
0.495766
0.495766
0.495766
0.495766
0.495766
0.495766
0.495766
0.495766
0.495766
0.495766
0.495766
0.495766
0.495766
0.495766
0.495766
0.495766
0.495766
0.495766
0.495766
0.495766
0.495766
0.495766
0.495766
0.495766
0.495766
0.495766
0.495766
0.495766
0.495766
0.495766
0.495766
0.495766
0.495766
0.495766
0.495766
0.495766
0.495766
0.495766
0.495766
0.495766
0.495766
0.495766
0.495766
0.495766
0.495766
0.495766
0.495766
0.495766
0.495766
0.495766
0.495766
0.495766
0.495766
0.495766
0.495766
0.495766
0.495766
0.495766
0.495766
0.495766
0.495766
0.495766
0.495766
0.495766
0.495766
0.495766
0.495766
0.495766
0.495766
0.495766
0.495766
0.495766
0.495766
0.495766
0.495766
0.495766
0.495766
0.495766
0.495766
0.495766
0.495766
0.495766
0.495766
0.495766
0.495766
0.495766
0.495766
0.495766
0.495766
0.495766
0.495766
0.495766
0.495766
0.495766
0.495766
0.495766
0.495766
0.495766