/*--------------------------------*- C++ -*----------------------------------*\
| =========                 |                                                 |
| \\      /  F ield         | OpenFOAM: The Open Source CFD Toolbox           |
|  \\    /   O peration     | Version:  v2012                                 |
|   \\  /    A nd           | Website:  www.openfoam.com                      |
|    \\/     M anipulation  |                                                 |
\*---------------------------------------------------------------------------*/
FoamFile
{
    version     2.0;
    format      ascii;
    class       volScalarField;
    location    "300/soil2";
    object      T;
}
// * * * * * * * * * * * * * * * * * * * * * * * * * * * * * * * * * * * * * //

dimensions      [0 0 0 1 0 0 0];


internalField   nonuniform List<scalar> 
10496
(
328.015
328.675
329.283
329.797
330.22
330.566
330.865
331.143
331.41
331.661
331.889
332.093
332.276
332.444
332.598
332.741
332.873
332.995
333.11
333.217
333.319
333.415
333.506
333.592
333.674
333.753
333.828
333.9
333.969
334.036
334.1
334.162
334.222
334.28
334.337
334.392
334.445
334.497
334.548
334.598
334.647
334.695
334.742
334.788
334.834
334.879
334.924
334.967
335.01
335.052
335.094
335.135
335.176
335.217
335.258
335.298
335.337
335.376
335.413
335.449
335.485
335.52
335.555
335.591
335.626
335.662
335.699
335.736
335.773
335.811
335.848
335.883
335.918
335.953
335.992
336.039
336.096
336.164
336.24
336.321
336.407
336.498
336.589
336.673
336.742
336.799
336.857
336.937
337.092
337.508
327.758
328.4
328.992
329.491
329.9
330.233
330.52
330.787
331.043
331.283
331.502
331.696
331.871
332.03
332.177
332.312
332.437
332.552
332.66
332.761
332.855
332.945
333.03
333.11
333.186
333.259
333.328
333.395
333.458
333.52
333.578
333.635
333.69
333.743
333.794
333.843
333.891
333.939
333.985
334.03
334.074
334.116
334.158
334.201
334.242
334.282
334.322
334.361
334.4
334.438
334.475
334.512
334.548
334.584
334.62
334.656
334.691
334.725
334.759
334.791
334.823
334.855
334.886
334.918
334.95
334.982
335.015
335.048
335.082
335.116
335.149
335.18
335.211
335.243
335.278
335.322
335.376
335.44
335.512
335.59
335.673
335.761
335.848
335.928
335.994
336.047
336.101
336.18
336.347
336.805
327.49
328.122
328.704
329.195
329.597
329.924
330.205
330.466
330.717
330.954
331.168
331.358
331.529
331.685
331.829
331.961
332.083
332.195
332.3
332.398
332.49
332.577
332.659
332.737
332.811
332.881
332.949
333.013
333.074
333.133
333.19
333.244
333.297
333.347
333.396
333.443
333.489
333.535
333.579
333.622
333.663
333.704
333.743
333.784
333.823
333.861
333.899
333.936
333.973
334.008
334.044
334.079
334.113
334.147
334.181
334.214
334.247
334.279
334.311
334.342
334.372
334.401
334.431
334.46
334.49
334.52
334.551
334.582
334.613
334.645
334.676
334.705
334.733
334.763
334.796
334.837
334.888
334.95
335.02
335.096
335.176
335.262
335.347
335.424
335.488
335.539
335.59
335.669
335.838
336.295
327.222
327.845
328.419
328.904
329.3
329.621
329.898
330.156
330.403
330.636
330.847
331.035
331.203
331.357
331.498
331.628
331.748
331.859
331.962
332.058
332.149
332.234
332.315
332.392
332.464
332.533
332.599
332.662
332.722
332.78
332.835
332.889
332.94
332.989
333.037
333.082
333.127
333.172
333.215
333.256
333.297
333.336
333.374
333.413
333.452
333.489
333.525
333.561
333.597
333.632
333.666
333.7
333.733
333.766
333.798
333.831
333.862
333.894
333.924
333.954
333.983
334.012
334.04
334.069
334.098
334.127
334.157
334.187
334.218
334.248
334.278
334.306
334.334
334.362
334.394
334.434
334.485
334.546
334.616
334.691
334.771
334.855
334.94
335.018
335.08
335.131
335.183
335.261
335.431
335.882
326.956
327.571
328.138
328.616
329.006
329.323
329.595
329.849
330.093
330.322
330.531
330.716
330.882
331.034
331.173
331.301
331.419
331.528
331.63
331.725
331.814
331.899
331.978
332.054
332.125
332.193
332.258
332.32
332.379
332.436
332.49
332.542
332.593
332.641
332.688
332.732
332.776
332.819
332.861
332.901
332.941
332.979
333.016
333.054
333.092
333.127
333.163
333.198
333.232
333.266
333.3
333.333
333.365
333.397
333.428
333.459
333.49
333.52
333.55
333.579
333.607
333.635
333.663
333.691
333.719
333.747
333.776
333.805
333.835
333.865
333.894
333.921
333.948
333.975
334.007
334.047
334.097
334.158
334.227
334.301
334.382
334.466
334.552
334.629
334.692
334.743
334.795
334.873
335.041
335.487
326.695
327.301
327.86
328.332
328.716
329.028
329.297
329.547
329.787
330.014
330.219
330.402
330.566
330.715
330.852
330.979
331.096
331.203
331.303
331.397
331.486
331.569
331.647
331.722
331.792
331.859
331.923
331.984
332.042
332.098
332.151
332.203
332.252
332.3
332.345
332.389
332.431
332.473
332.514
332.553
332.591
332.628
332.665
332.701
332.737
332.772
332.806
332.839
332.872
332.905
332.937
332.968
332.999
333.03
333.06
333.09
333.119
333.148
333.176
333.204
333.231
333.257
333.284
333.31
333.336
333.363
333.391
333.419
333.447
333.475
333.502
333.529
333.554
333.58
333.61
333.648
333.697
333.756
333.824
333.897
333.976
334.06
334.143
334.219
334.279
334.328
334.378
334.452
334.611
335.039
326.436
327.034
327.586
328.052
328.431
328.738
329.002
329.249
329.486
329.709
329.911
330.09
330.252
330.399
330.535
330.66
330.775
330.882
330.981
331.074
331.161
331.244
331.321
331.395
331.464
331.53
331.593
331.653
331.71
331.765
331.818
331.868
331.916
331.962
332.007
332.05
332.091
332.13
332.169
332.206
332.243
332.279
332.314
332.347
332.38
332.412
332.444
332.475
332.506
332.535
332.564
332.593
332.621
332.648
332.675
332.702
332.728
332.754
332.779
332.804
332.828
332.851
332.874
332.897
332.92
332.944
332.968
332.992
333.017
333.042
333.066
333.088
333.11
333.131
333.157
333.191
333.235
333.29
333.352
333.421
333.495
333.574
333.652
333.721
333.775
333.817
333.86
333.923
334.061
334.443
326.182
326.771
327.316
327.775
328.149
328.452
328.712
328.955
329.188
329.406
329.6
329.773
329.931
330.076
330.21
330.334
330.449
330.556
330.655
330.748
330.835
330.918
330.995
331.069
331.138
331.204
331.266
331.325
331.381
331.435
331.486
331.535
331.581
331.626
331.669
331.71
331.749
331.784
331.818
331.851
331.884
331.918
331.949
331.977
332.005
332.033
332.06
332.086
332.112
332.137
332.161
332.184
332.207
332.229
332.25
332.271
332.291
332.311
332.33
332.348
332.365
332.381
332.397
332.413
332.429
332.444
332.461
332.477
332.494
332.51
332.526
332.54
332.553
332.566
332.583
332.609
332.644
332.691
332.745
332.806
332.874
332.946
333.018
333.081
333.128
333.164
333.201
333.258
333.374
333.688
325.931
326.512
327.049
327.502
327.871
328.169
328.425
328.664
328.891
329.096
329.258
329.411
329.557
329.697
329.831
329.958
330.077
330.189
330.293
330.392
330.485
330.572
330.655
330.732
330.804
330.871
330.934
330.993
331.048
331.1
331.149
331.195
331.238
331.279
331.319
331.358
331.393
331.421
331.448
331.477
331.505
331.535
331.563
331.584
331.604
331.627
331.648
331.669
331.688
331.707
331.724
331.742
331.758
331.775
331.79
331.805
331.819
331.832
331.845
331.856
331.868
331.878
331.888
331.898
331.908
331.918
331.928
331.939
331.95
331.96
331.97
331.979
331.986
331.994
332.006
332.026
332.056
332.098
332.148
332.207
332.28
332.358
332.432
332.496
332.542
332.576
332.612
332.666
332.766
333.013
325.683
326.256
326.786
327.233
327.596
327.89
328.142
328.375
328.59
328.745
328.65
328.663
328.748
328.873
329.019
329.174
329.33
329.482
329.628
329.767
329.897
330.018
330.129
330.231
330.324
330.407
330.483
330.551
330.613
330.67
330.724
330.773
330.821
330.864
330.905
330.947
330.983
331.009
331.033
331.062
331.092
331.124
331.155
331.173
331.191
331.213
331.234
331.253
331.271
331.288
331.304
331.319
331.333
331.347
331.359
331.37
331.381
331.39
331.398
331.405
331.411
331.417
331.421
331.425
331.429
331.433
331.436
331.44
331.444
331.447
331.449
331.45
331.45
331.45
331.454
331.465
331.487
331.52
331.562
331.625
331.765
331.903
332.021
332.113
332.177
332.222
332.267
332.33
332.436
332.678
325.439
326.003
326.527
326.968
327.326
327.615
327.863
328.09
328.28
328.239
325.491
324.948
325.043
325.347
325.713
326.085
326.439
326.763
327.056
327.317
327.545
327.742
327.909
328.049
328.164
328.256
328.33
328.389
328.435
328.473
328.505
328.533
328.559
328.583
328.607
328.635
328.66
328.673
328.685
328.706
328.729
328.759
328.788
328.802
328.817
328.841
328.863
328.884
328.904
328.922
328.94
328.956
328.971
328.984
328.995
329.003
329.01
329.014
329.016
329.016
329.014
329.01
329.004
328.996
328.986
328.974
328.961
328.946
328.93
328.912
328.892
328.87
328.845
328.82
328.798
328.78
328.769
328.763
328.759
328.811
329.816
330.598
331.157
331.543
331.8
331.97
332.095
332.216
332.377
332.681
325.199
325.754
326.271
326.706
327.059
327.344
327.588
327.809
327.988
327.907
325.021
324.428
324.515
324.827
325.209
325.599
325.97
326.312
326.621
326.896
327.137
327.344
327.52
327.665
327.784
327.878
327.952
328.007
328.05
328.082
328.107
328.129
328.148
328.167
328.191
328.222
328.253
328.269
328.287
328.319
328.356
328.405
328.457
328.488
328.523
328.57
328.617
328.666
328.715
328.765
328.817
328.869
328.92
328.971
329.021
329.07
329.118
329.165
329.21
329.254
329.295
329.335
329.372
329.406
329.437
329.465
329.49
329.511
329.528
329.541
329.549
329.551
329.548
329.54
329.532
329.525
329.522
329.523
329.531
329.603
330.454
331.121
331.599
331.932
332.153
332.298
332.405
332.525
332.72
333.106
324.961
325.509
326.018
326.448
326.796
327.076
327.316
327.534
327.707
327.619
324.756
324.16
324.242
324.551
324.929
325.316
325.685
326.025
326.333
326.606
326.846
327.052
327.225
327.369
327.484
327.575
327.644
327.694
327.73
327.754
327.772
327.785
327.796
327.808
327.824
327.851
327.878
327.884
327.891
327.916
327.946
327.991
328.04
328.061
328.084
328.125
328.166
328.208
328.251
328.296
328.342
328.388
328.435
328.481
328.528
328.576
328.624
328.673
328.723
328.774
328.826
328.88
328.934
328.991
329.049
329.108
329.17
329.233
329.298
329.364
329.43
329.496
329.561
329.626
329.693
329.765
329.843
329.927
330.02
330.176
330.981
331.599
332.037
332.341
332.546
332.682
332.788
332.918
333.156
333.646
324.728
325.266
325.77
326.193
326.536
326.812
327.049
327.263
327.433
327.344
324.518
323.928
324.008
324.312
324.685
325.067
325.432
325.768
326.072
326.343
326.58
326.783
326.954
327.095
327.209
327.298
327.366
327.415
327.449
327.471
327.485
327.494
327.501
327.509
327.523
327.55
327.577
327.578
327.578
327.6
327.628
327.672
327.722
327.737
327.753
327.791
327.828
327.867
327.907
327.948
327.988
328.028
328.066
328.102
328.138
328.172
328.205
328.238
328.27
328.302
328.333
328.365
328.397
328.429
328.462
328.496
328.531
328.567
328.604
328.643
328.682
328.722
328.763
328.806
328.853
328.906
328.968
329.04
329.125
329.27
330.061
330.662
331.082
331.375
331.584
331.743
331.891
332.076
332.37
332.907
324.497
325.028
325.524
325.942
326.28
326.552
326.784
326.995
327.163
327.076
324.289
323.707
323.785
324.085
324.453
324.829
325.189
325.521
325.821
326.088
326.322
326.523
326.691
326.83
326.942
327.029
327.097
327.147
327.181
327.202
327.214
327.22
327.224
327.229
327.242
327.271
327.301
327.299
327.293
327.314
327.341
327.387
327.441
327.453
327.465
327.503
327.542
327.583
327.626
327.668
327.709
327.747
327.784
327.82
327.856
327.892
327.927
327.961
327.993
328.024
328.054
328.082
328.11
328.137
328.163
328.189
328.215
328.24
328.264
328.287
328.309
328.329
328.347
328.364
328.383
328.408
328.439
328.478
328.523
328.613
329.38
329.944
330.331
330.595
330.776
330.907
331.027
331.18
331.43
331.886
324.27
324.792
325.282
325.694
326.027
326.295
326.524
326.731
326.897
326.811
324.064
323.49
323.567
323.862
324.225
324.597
324.952
325.279
325.575
325.839
326.069
326.267
326.433
326.569
326.679
326.765
326.832
326.883
326.919
326.942
326.952
326.956
326.957
326.96
326.971
327.002
327.034
327.03
327.021
327.042
327.069
327.117
327.177
327.188
327.198
327.239
327.282
327.329
327.376
327.422
327.464
327.502
327.54
327.578
327.616
327.655
327.693
327.73
327.765
327.8
327.834
327.867
327.9
327.932
327.964
327.995
328.026
328.057
328.087
328.117
328.146
328.173
328.197
328.22
328.245
328.274
328.311
328.354
328.404
328.496
329.233
329.775
330.147
330.401
330.574
330.697
330.809
330.951
331.186
331.624
324.046
324.56
325.043
325.449
325.777
326.041
326.266
326.471
326.635
326.55
323.842
323.277
323.354
323.645
324.003
324.37
324.72
325.043
325.335
325.594
325.821
326.016
326.179
326.312
326.419
326.503
326.569
326.621
326.66
326.685
326.697
326.699
326.697
326.696
326.706
326.737
326.771
326.765
326.752
326.771
326.8
326.851
326.917
326.93
326.941
326.988
327.038
327.092
327.146
327.195
327.237
327.276
327.316
327.357
327.4
327.443
327.485
327.526
327.566
327.606
327.646
327.685
327.725
327.764
327.803
327.842
327.881
327.921
327.96
328
328.038
328.076
328.113
328.149
328.19
328.236
328.292
328.358
328.436
328.575
329.326
329.882
330.263
330.524
330.702
330.829
330.944
331.088
331.327
331.803
323.825
324.331
324.808
325.208
325.532
325.791
326.012
326.214
326.377
326.295
323.628
323.074
323.151
323.438
323.791
324.152
324.497
324.814
325.101
325.355
325.577
325.767
325.925
326.054
326.155
326.235
326.298
326.349
326.389
326.417
326.431
326.431
326.425
326.419
326.423
326.45
326.482
326.472
326.451
326.468
326.496
326.55
326.623
326.64
326.655
326.709
326.768
326.832
326.891
326.941
326.982
327.02
327.06
327.103
327.147
327.192
327.235
327.277
327.318
327.36
327.402
327.444
327.486
327.529
327.573
327.618
327.663
327.709
327.756
327.804
327.851
327.898
327.944
327.992
328.043
328.101
328.168
328.246
328.336
328.489
329.246
329.817
330.218
330.497
330.691
330.833
330.956
331.105
331.353
331.85
323.607
324.105
324.576
324.971
325.289
325.545
325.763
325.962
326.124
326.052
323.438
322.902
322.981
323.265
323.612
323.965
324.3
324.608
324.884
325.126
325.334
325.509
325.652
325.765
325.851
325.915
325.964
326.004
326.037
326.061
326.072
326.068
326.054
326.037
326.028
326.043
326.066
326.048
326.019
326.031
326.058
326.115
326.196
326.222
326.248
326.317
326.394
326.472
326.541
326.595
326.638
326.678
326.72
326.764
326.807
326.848
326.885
326.92
326.954
326.987
327.019
327.052
327.084
327.117
327.15
327.184
327.218
327.253
327.287
327.322
327.355
327.387
327.417
327.446
327.477
327.512
327.554
327.603
327.661
327.777
328.55
329.142
329.561
329.853
330.052
330.19
330.301
330.428
330.636
331.048
323.393
323.883
324.347
324.737
325.051
325.302
325.517
325.715
325.883
325.848
323.427
322.952
323.038
323.308
323.631
323.953
324.251
324.517
324.746
324.938
325.095
325.22
325.315
325.385
325.433
325.465
325.488
325.509
325.53
325.55
325.561
325.558
325.541
325.518
325.501
325.508
325.529
325.51
325.478
325.489
325.516
325.571
325.656
325.688
325.726
325.815
325.915
326.015
326.102
326.171
326.23
326.287
326.345
326.401
326.45
326.49
326.521
326.545
326.564
326.578
326.589
326.598
326.606
326.613
326.619
326.626
326.633
326.64
326.647
326.654
326.659
326.663
326.665
326.666
326.669
326.676
326.69
326.71
326.735
326.805
327.637
328.275
328.729
329.045
329.26
329.406
329.518
329.636
329.811
330.144
323.182
323.664
324.122
324.506
324.815
325.063
325.274
325.472
325.656
325.792
325.746
325.802
325.915
326.046
326.181
326.311
326.434
326.548
326.652
326.749
326.837
326.917
326.989
327.053
327.11
327.161
327.21
327.262
327.321
327.385
327.443
327.484
327.504
327.509
327.516
327.554
327.614
327.621
327.604
327.627
327.649
327.688
327.749
327.735
327.722
327.77
327.827
327.873
327.899
327.907
327.912
327.926
327.951
327.981
328.01
328.034
328.055
328.073
328.089
328.104
328.117
328.129
328.14
328.15
328.16
328.169
328.178
328.187
328.196
328.206
328.214
328.222
328.228
328.235
328.246
328.265
328.294
328.334
328.384
328.451
328.581
328.708
328.819
328.907
328.971
329.016
329.06
329.123
329.238
329.488
322.974
323.447
323.899
324.278
324.582
324.825
325.034
325.23
325.42
325.593
325.734
325.867
325.996
326.119
326.235
326.344
326.445
326.539
326.626
326.707
326.783
326.854
326.92
326.981
327.037
327.087
327.135
327.186
327.246
327.314
327.381
327.435
327.467
327.478
327.491
327.542
327.632
327.662
327.66
327.688
327.694
327.707
327.749
327.714
327.684
327.728
327.778
327.811
327.82
327.814
327.812
327.825
327.85
327.879
327.906
327.929
327.949
327.967
327.985
328.002
328.018
328.032
328.046
328.059
328.07
328.082
328.092
328.103
328.114
328.124
328.133
328.141
328.148
328.155
328.166
328.185
328.215
328.256
328.305
328.364
328.434
328.51
328.583
328.645
328.69
328.722
328.755
328.807
328.906
329.143
322.766
323.232
323.678
324.051
324.351
324.59
324.795
324.989
325.178
325.357
325.518
325.662
325.793
325.914
326.027
326.132
326.228
326.318
326.402
326.481
326.554
326.624
326.689
326.75
326.807
326.859
326.907
326.955
327.01
327.076
327.147
327.208
327.247
327.266
327.288
327.362
327.488
327.547
327.563
327.589
327.561
327.532
327.549
327.498
327.457
327.501
327.548
327.573
327.574
327.569
327.574
327.597
327.631
327.667
327.698
327.725
327.75
327.774
327.797
327.819
327.84
327.859
327.878
327.895
327.911
327.926
327.941
327.955
327.969
327.983
327.995
328.006
328.016
328.026
328.041
328.063
328.096
328.139
328.192
328.252
328.318
328.389
328.46
328.522
328.568
328.601
328.635
328.688
328.796
329.077
322.56
323.017
323.457
323.825
324.12
324.355
324.557
324.748
324.936
325.114
325.277
325.421
325.552
325.672
325.783
325.886
325.981
326.07
326.152
326.23
326.303
326.371
326.436
326.497
326.556
326.61
326.66
326.707
326.758
326.819
326.887
326.951
326.995
327.02
327.055
327.155
327.316
327.401
327.441
327.457
327.381
327.294
327.271
327.208
327.157
327.198
327.236
327.249
327.243
327.238
327.249
327.277
327.312
327.346
327.374
327.4
327.425
327.45
327.474
327.496
327.517
327.537
327.557
327.575
327.592
327.609
327.626
327.643
327.659
327.676
327.692
327.707
327.721
327.736
327.755
327.783
327.821
327.87
327.928
327.994
328.065
328.141
328.218
328.285
328.337
328.376
328.414
328.472
328.591
328.897
322.354
322.804
323.237
323.6
323.891
324.122
324.32
324.508
324.693
324.87
325.031
325.174
325.304
325.422
325.532
325.634
325.728
325.816
325.898
325.975
326.047
326.115
326.179
326.241
326.301
326.358
326.413
326.463
326.513
326.569
326.634
326.696
326.742
326.771
326.814
326.93
327.113
327.216
327.258
327.254
327.122
326.958
326.891
326.811
326.744
326.772
326.793
326.787
326.769
326.759
326.766
326.786
326.807
326.824
326.838
326.851
326.864
326.877
326.89
326.903
326.916
326.929
326.943
326.958
326.975
326.992
327.011
327.032
327.054
327.077
327.101
327.125
327.149
327.173
327.203
327.241
327.29
327.35
327.419
327.493
327.573
327.658
327.743
327.818
327.877
327.922
327.966
328.028
328.151
328.448
322.151
322.593
323.021
323.378
323.664
323.891
324.086
324.271
324.454
324.628
324.787
324.929
325.057
325.174
325.283
325.384
325.477
325.564
325.645
325.722
325.794
325.862
325.926
325.987
326.047
326.107
326.167
326.223
326.277
326.334
326.395
326.456
326.502
326.53
326.571
326.685
326.87
326.986
327.104
327.048
326.825
326.534
326.266
326.129
326.017
326.005
325.986
325.944
325.898
325.868
325.854
325.849
325.844
325.841
325.843
325.851
325.864
325.882
325.903
325.927
325.954
325.984
326.017
326.052
326.088
326.127
326.167
326.208
326.25
326.292
326.334
326.375
326.415
326.455
326.498
326.549
326.609
326.678
326.756
326.838
326.925
327.015
327.102
327.178
327.236
327.278
327.318
327.376
327.486
327.738
321.954
322.387
322.809
323.161
323.443
323.667
323.858
324.04
324.22
324.392
324.55
324.69
324.816
324.932
325.04
325.14
325.232
325.318
325.399
325.476
325.548
325.616
325.679
325.739
325.797
325.856
325.919
325.982
326.045
326.107
326.171
326.233
326.282
326.31
326.342
326.441
326.612
326.706
326.445
326.169
325.721
325.227
325.038
324.831
324.673
324.635
324.608
324.575
324.553
324.552
324.57
324.597
324.63
324.67
324.719
324.775
324.834
324.895
324.955
325.015
325.075
325.135
325.195
325.254
325.313
325.37
325.427
325.483
325.538
325.591
325.642
325.691
325.737
325.781
325.828
325.881
325.942
326.012
326.087
326.167
326.251
326.336
326.419
326.491
326.543
326.579
326.612
326.66
326.751
326.956
321.767
322.193
322.61
322.957
323.234
323.454
323.642
323.822
323.999
324.17
324.325
324.463
324.588
324.703
324.81
324.909
325.001
325.086
325.167
325.243
325.316
325.385
325.448
325.505
325.558
325.614
325.674
325.74
325.811
325.883
325.955
326.024
326.082
326.12
326.153
326.234
326.387
326.465
326.745
325.936
325.095
324.394
323.314
323.145
323.095
323.172
323.262
323.349
323.44
323.539
323.638
323.734
323.829
323.925
324.022
324.118
324.208
324.293
324.372
324.446
324.518
324.587
324.652
324.715
324.775
324.833
324.888
324.94
324.991
325.039
325.083
325.125
325.164
325.2
325.238
325.282
325.334
325.394
325.46
325.532
325.607
325.685
325.761
325.826
325.872
325.903
325.93
325.972
326.053
326.228
321.6
322.019
322.43
322.773
323.047
323.263
323.449
323.625
323.801
323.969
324.122
324.259
324.383
324.497
324.603
324.702
324.793
324.878
324.959
325.035
325.109
325.178
325.242
325.297
325.345
325.395
325.45
325.514
325.589
325.67
325.749
325.825
325.9
325.968
326.03
326.105
326.217
326.002
323.689
322.302
321.487
321.116
321.741
321.926
322.091
322.33
322.549
322.75
322.936
323.103
323.249
323.378
323.498
323.613
323.721
323.821
323.91
323.99
324.063
324.13
324.193
324.252
324.306
324.357
324.403
324.447
324.488
324.526
324.562
324.595
324.626
324.653
324.679
324.704
324.731
324.765
324.809
324.861
324.92
324.986
325.056
325.13
325.203
325.265
325.309
325.338
325.365
325.405
325.479
325.635
321.46
321.873
322.281
322.62
322.891
323.105
323.288
323.463
323.636
323.803
323.955
324.09
324.213
324.326
324.431
324.529
324.62
324.705
324.786
324.863
324.937
325.007
325.071
325.127
325.177
325.227
325.278
325.339
325.413
325.492
325.571
325.65
325.743
325.857
325.975
326.062
326.118
325.463
318.371
316.959
316.379
316.439
321.036
321.55
321.762
322.008
322.229
322.451
322.662
322.851
323.016
323.166
323.304
323.431
323.545
323.644
323.73
323.806
323.874
323.936
323.993
324.045
324.092
324.134
324.171
324.204
324.233
324.259
324.282
324.302
324.32
324.335
324.349
324.362
324.38
324.404
324.438
324.482
324.535
324.594
324.658
324.727
324.795
324.854
324.896
324.923
324.949
324.987
325.057
325.201
321.356
321.765
322.17
322.506
322.775
322.987
323.169
323.343
323.515
323.681
323.832
323.967
324.089
324.202
324.307
324.404
324.495
324.58
324.66
324.737
324.811
324.882
324.948
325.012
325.076
325.136
325.194
325.256
325.321
325.388
325.455
325.526
325.633
325.797
325.979
326.083
326.098
325.066
313.995
312.644
312.301
312.735
320.7
321.463
321.672
321.882
322.063
322.266
322.469
322.657
322.83
322.992
323.146
323.288
323.417
323.53
323.629
323.718
323.799
323.871
323.936
323.994
324.045
324.087
324.122
324.151
324.172
324.189
324.201
324.209
324.214
324.215
324.215
324.214
324.217
324.229
324.25
324.283
324.325
324.374
324.431
324.492
324.555
324.608
324.646
324.67
324.692
324.727
324.793
324.929
321.291
321.697
322.1
322.435
322.702
322.914
323.095
323.268
323.441
323.608
323.759
323.895
324.018
324.131
324.236
324.334
324.425
324.51
324.591
324.667
324.74
324.81
324.883
324.964
325.057
325.14
325.214
325.281
325.33
325.373
325.419
325.472
325.575
325.773
325.994
326.095
326.083
324.883
312.177
310.865
310.654
311.311
320.863
321.714
321.865
322.003
322.103
322.247
322.408
322.567
322.725
322.887
323.049
323.206
323.351
323.484
323.606
323.719
323.834
323.931
324.016
324.092
324.157
324.213
324.257
324.292
324.317
324.334
324.341
324.342
324.335
324.322
324.305
324.286
324.27
324.262
324.265
324.28
324.305
324.339
324.381
324.431
324.482
324.526
324.555
324.572
324.587
324.616
324.678
324.81
321.261
321.666
322.067
322.401
322.668
322.879
323.06
323.234
323.407
323.574
323.727
323.865
323.989
324.105
324.212
324.312
324.405
324.492
324.574
324.651
324.723
324.794
324.877
324.988
325.122
325.236
325.33
325.397
325.415
325.421
325.438
325.462
323.973
324.091
324.191
324.281
324.365
324.44
324.507
324.563
324.607
324.639
324.659
324.668
324.667
324.656
324.634
324.605
324.572
324.54
324.516
324.502
324.5
324.509
324.529
324.558
324.59
324.617
324.631
324.635
324.639
324.658
324.713
324.843
321.257
321.662
322.063
322.397
322.663
322.873
323.053
323.226
323.399
323.566
323.72
323.858
323.983
324.1
324.21
324.313
324.409
324.5
324.585
324.665
324.739
324.815
324.914
325.059
325.239
325.386
325.507
325.566
325.538
325.485
325.456
325.447
324.217
324.325
324.428
324.536
324.645
324.751
324.848
324.932
324.999
325.047
325.075
325.082
325.071
325.044
325.005
324.96
324.915
324.876
324.848
324.833
324.83
324.835
324.849
324.869
324.888
324.899
324.895
324.878
324.864
324.868
324.912
325.041
321.268
321.673
322.075
322.408
322.674
322.884
323.064
323.236
323.408
323.573
323.725
323.862
323.987
324.103
324.213
324.317
324.415
324.507
324.595
324.678
324.755
324.837
324.952
325.127
325.343
325.519
325.648
325.695
325.617
325.487
325.401
325.331
324.436
324.612
324.784
324.94
325.063
325.147
325.196
325.222
325.232
325.233
325.226
325.213
325.193
325.167
325.135
325.1
325.067
325.04
325.023
325.018
325.023
325.037
325.058
325.086
325.115
325.136
325.141
325.133
325.125
325.134
325.182
325.326
321.282
321.688
322.09
322.425
322.691
322.901
323.081
323.253
323.425
323.589
323.74
323.876
323.999
324.114
324.222
324.325
324.421
324.514
324.602
324.685
324.764
324.849
324.97
325.155
325.385
325.586
325.805
325.831
325.693
325.453
325.159
324.988
325.113
325.193
325.207
325.206
325.204
325.202
325.2
325.198
325.196
325.195
325.192
325.188
325.181
325.169
325.153
325.136
325.12
325.109
325.108
325.117
325.133
325.157
325.186
325.219
325.253
325.276
325.284
325.279
325.274
325.286
325.341
325.494
321.292
321.698
322.101
322.436
322.703
322.914
323.095
323.268
323.44
323.605
323.757
323.893
324.016
324.131
324.239
324.341
324.438
324.53
324.618
324.702
324.783
324.869
324.986
325.161
325.383
325.577
325.473
325.38
325.107
324.711
324.515
324.267
325.125
325.108
325.08
325.058
325.045
325.037
325.036
325.038
325.043
325.05
325.057
325.063
325.068
325.069
325.068
325.065
325.064
325.069
325.083
325.106
325.136
325.17
325.209
325.251
325.29
325.319
325.331
325.328
325.324
325.336
325.389
325.528
321.294
321.701
322.103
322.438
322.706
322.917
323.098
323.272
323.445
323.611
323.764
323.9
324.025
324.141
324.25
324.353
324.451
324.544
324.634
324.721
324.806
324.894
325.003
325.157
325.358
325.564
326.201
325.794
325.226
324.629
323.479
323.276
324.847
324.834
324.816
324.806
324.804
324.808
324.816
324.828
324.842
324.858
324.876
324.892
324.905
324.916
324.923
324.929
324.937
324.95
324.972
325.002
325.04
325.083
325.131
325.181
325.23
325.267
325.286
325.29
325.292
325.308
325.362
325.486
321.29
321.696
322.099
322.434
322.701
322.912
323.093
323.266
323.439
323.605
323.758
323.895
324.02
324.136
324.246
324.35
324.448
324.542
324.634
324.724
324.814
324.905
325.005
325.13
325.268
325.204
323.53
322.511
321.867
321.567
322.199
322.406
324.563
324.575
324.582
324.595
324.612
324.633
324.656
324.679
324.703
324.728
324.753
324.776
324.795
324.811
324.823
324.833
324.844
324.861
324.885
324.918
324.958
325.003
325.053
325.106
325.158
325.198
325.22
325.227
325.233
325.251
325.302
325.416
321.283
321.689
322.091
322.426
322.692
322.903
323.083
323.256
323.429
323.595
323.747
323.884
324.009
324.125
324.235
324.339
324.438
324.533
324.625
324.717
324.809
324.901
324.994
325.084
325.121
324.587
317.99
316.799
316.334
316.487
321.449
322.07
324.435
324.469
324.494
324.52
324.547
324.574
324.602
324.631
324.66
324.689
324.718
324.744
324.766
324.785
324.799
324.811
324.824
324.84
324.865
324.897
324.935
324.978
325.026
325.077
325.126
325.165
325.186
325.192
325.197
325.214
325.262
325.37
321.276
321.681
322.083
322.418
322.684
322.895
323.075
323.247
323.419
323.585
323.737
323.873
323.998
324.114
324.223
324.327
324.426
324.521
324.613
324.705
324.798
324.89
324.978
325.043
324.978
323.984
313.105
311.836
311.577
312.157
320.912
321.875
324.49
324.54
324.571
324.596
324.616
324.634
324.657
324.683
324.712
324.742
324.77
324.796
324.82
324.84
324.856
324.87
324.884
324.902
324.927
324.958
324.994
325.034
325.077
325.122
325.166
325.198
325.213
325.214
325.213
325.227
325.271
325.377
321.271
321.676
322.079
322.413
322.679
322.89
323.069
323.242
323.413
323.579
323.73
323.867
323.991
324.106
324.215
324.318
324.416
324.509
324.601
324.691
324.782
324.873
324.958
325.009
324.882
323.62
310.774
309.458
309.32
310.18
320.791
321.907
324.716
324.777
324.796
324.797
324.793
324.786
324.788
324.805
324.829
324.854
324.879
324.904
324.927
324.948
324.967
324.985
325.005
325.029
325.06
325.096
325.134
325.173
325.214
325.256
325.295
325.323
325.333
325.329
325.323
325.33
325.371
325.479
321.269
321.675
322.077
322.412
322.678
322.889
323.069
323.241
323.413
323.579
323.73
323.867
323.99
324.106
324.214
324.316
324.412
324.504
324.593
324.681
324.769
324.856
324.935
324.974
324.824
323.521
310.24
308.857
308.769
309.827
321.561
322.578
325.045
325.108
325.093
325.048
325.004
324.963
324.935
324.936
324.948
324.963
324.982
325.004
325.028
325.051
325.075
325.098
325.125
325.159
325.2
325.248
325.299
325.351
325.403
325.454
325.498
325.527
325.534
325.524
325.51
325.509
325.545
325.658
321.272
321.677
322.08
322.414
322.681
322.891
323.071
323.244
323.416
323.582
323.734
323.871
323.994
324.109
324.217
324.319
324.414
324.505
324.593
324.679
324.764
324.846
324.917
324.945
324.785
323.493
310.187
308.781
308.702
309.873
322.462
323.491
325.388
325.44
325.37
325.255
325.152
325.072
325.011
324.991
324.986
324.987
324.995
325.011
325.033
325.058
325.086
325.116
325.151
325.193
325.245
325.305
325.372
325.441
325.511
325.58
325.642
325.688
325.709
325.708
325.698
325.698
325.735
325.861
321.277
321.683
322.085
322.42
322.686
322.896
323.077
323.25
323.422
323.588
323.74
323.876
324
324.115
324.222
324.323
324.418
324.507
324.594
324.678
324.76
324.838
324.904
324.925
324.76
323.484
310.243
308.859
308.793
310.017
323.059
324.197
325.64
325.658
325.507
325.291
325.122
324.998
324.899
324.853
324.829
324.818
324.82
324.832
324.852