/*--------------------------------*- C++ -*----------------------------------*\
| =========                 |                                                 |
| \\      /  F ield         | OpenFOAM: The Open Source CFD Toolbox           |
|  \\    /   O peration     | Version:  v2012                                 |
|   \\  /    A nd           | Website:  www.openfoam.com                      |
|    \\/     M anipulation  |                                                 |
\*---------------------------------------------------------------------------*/
FoamFile
{
    version     2.0;
    format      ascii;
    class       volScalarField;
    location    "200/air";
    object      alphat;
}
// * * * * * * * * * * * * * * * * * * * * * * * * * * * * * * * * * * * * * //

dimensions      [1 -1 -1 0 0 0 0];


internalField   nonuniform List<scalar> 
287104
(
0.00647926
0.0060024
0.00563558
0.00534305
0.00510417
0.0049056
0.00473819
0.00459533
0.0044722
0.00436511
0.00427126
0.00418844
0.00411492
0.00404927
0.00399037
0.00393727
0.00388919
0.00384549
0.0038056
0.00376908
0.00373551
0.00370457
0.00367596
0.00364942
0.00362474
0.00360171
0.00358018
0.00355998
0.00354098
0.00352307
0.00350614
0.00349008
0.00347482
0.00346026
0.00344635
0.003433
0.00342015
0.00340775
0.00339574
0.00338407
0.00337268
0.00336153
0.00335058
0.00333978
0.00332908
0.00331845
0.00330784
0.00329721
0.00328653
0.00327575
0.00326484
0.00325377
0.00324251
0.00323102
0.0032193
0.00320733
0.00319509
0.0031826
0.00316985
0.00315687
0.00314369
0.00313035
0.00311689
0.00310339
0.00308991
0.00307653
0.00306335
0.00305044
0.00303792
0.00302588
0.0030144
0.00300359
0.00299353
0.00298428
0.0029759
0.00296844
0.00296191
0.00295632
0.00295165
0.00294786
0.00294489
0.00294266
0.00294105
0.00293994
0.00293913
0.00293839
0.00293741
0.00293537
0.0029322
0.00291807
0.00647921
0.00600228
0.00563538
0.0053428
0.00510386
0.00490525
0.0047378
0.00459492
0.00447176
0.00436465
0.0042708
0.00418798
0.00411446
0.00404883
0.00398996
0.00393689
0.00388884
0.00384517
0.00380533
0.00376885
0.00373533
0.00370444
0.00367587
0.00364939
0.00362476
0.00360179
0.00358032
0.00356019
0.00354126
0.00352343
0.00350658
0.00349062
0.00347545
0.003461
0.0034472
0.00343396
0.00342124
0.00340896
0.00339708
0.00338554
0.00337429
0.00336327
0.00335244
0.00334176
0.00333117
0.00332064
0.00331012
0.00329957
0.00328894
0.00327821
0.00326732
0.00325626
0.00324499
0.00323348
0.00322172
0.0032097
0.0031974
0.00318484
0.00317202
0.00315897
0.00314573
0.00313233
0.00311884
0.00310531
0.00309182
0.00307846
0.00306531
0.00305247
0.00304004
0.00302811
0.00301677
0.00300612
0.00299624
0.00298718
0.002979
0.00297173
0.0029654
0.00295999
0.00295549
0.00295185
0.002949
0.00294684
0.00294529
0.00294418
0.00294336
0.00294257
0.00294151
0.00293939
0.00293612
0.00292213
0.00647924
0.00600232
0.00563542
0.00534282
0.00510387
0.00490525
0.00473777
0.00459487
0.0044717
0.00436458
0.00427072
0.00418791
0.00411439
0.00404878
0.00398992
0.00393687
0.00388886
0.00384522
0.0038054
0.00376895
0.00373547
0.00370461
0.00367609
0.00364965
0.00362507
0.00360215
0.00358073
0.00356066
0.0035418
0.00352404
0.00350727
0.0034914
0.00347632
0.00346197
0.00344827
0.00343516
0.00342256
0.00341041
0.00339866
0.00338726
0.00337614
0.00336527
0.00335458
0.00334404
0.0033336
0.00332321
0.00331283
0.00330241
0.00329192
0.00328131
0.00327055
0.00325961
0.00324845
0.00323706
0.00322542
0.00321351
0.00320134
0.0031889
0.00317622
0.00316332
0.00315024
0.00313702
0.00312373
0.00311042
0.00309718
0.00308409
0.00307125
0.00305874
0.00304667
0.00303514
0.00302424
0.00301405
0.00300466
0.00299613
0.0029885
0.00298182
0.00297608
0.00297129
0.00296741
0.0029644
0.00296218
0.00296066
0.00295973
0.00295924
0.00295904
0.00295888
0.00295847
0.00295705
0.00295455
0.0029419
0.00647927
0.00600234
0.00563542
0.00534278
0.0051038
0.00490513
0.00473761
0.00459466
0.00447144
0.00436429
0.0042704
0.00418757
0.00411405
0.00404844
0.00398959
0.00393656
0.00388856
0.00384493
0.00380514
0.00376871
0.00373524
0.0037044
0.0036759
0.00364948
0.00362492
0.00360203
0.00358065
0.00356062
0.00354181
0.0035241
0.0035074
0.00349159
0.0034766
0.00346234
0.00344874
0.00343573
0.00342325
0.00341122
0.00339961
0.00338834
0.00337736
0.00336662
0.00335608
0.00334567
0.00333536
0.0033251
0.00331484
0.00330453
0.00329414
0.00328362
0.00327294
0.00326207
0.00325097
0.00323963
0.00322802
0.00321615
0.00320399
0.00319157
0.0031789
0.00316601
0.00315293
0.00313972
0.00312643
0.00311313
0.0030999
0.00308684
0.00307403
0.00306157
0.00304956
0.0030381
0.0030273
0.00301723
0.00300798
0.00299962
0.0029922
0.00298574
0.00298027
0.00297577
0.00297221
0.00296955
0.00296771
0.00296659
0.00296609
0.00296607
0.00296636
0.00296674
0.00296692
0.0029662
0.00296445
0.00295303
0.0064793
0.00600238
0.00563544
0.00534279
0.00510377
0.00490507
0.0047375
0.00459451
0.00447125
0.00436405
0.00427013
0.00418728
0.00411375
0.00404815
0.00398931
0.00393629
0.00388831
0.00384471
0.00380494
0.00376853
0.00373508
0.00370426
0.00367578
0.00364938
0.00362485
0.003602
0.00358065
0.00356066
0.0035419
0.00352426
0.00350762
0.00349189
0.00347699
0.00346283
0.00344934
0.00343645
0.0034241
0.00341221
0.00340074
0.00338962
0.00337879
0.00336821
0.00335782
0.00334757
0.00333741
0.00332729
0.00331716
0.00330698
0.00329671
0.0032863
0.00327572
0.00326494
0.00325392
0.00324265
0.0032311
0.00321928
0.00320717
0.00319479
0.00318216
0.0031693
0.00315625
0.00314307
0.00312982
0.00311656
0.00310338
0.00309037
0.00307762
0.00306524
0.00305332
0.00304196
0.00303128
0.00302136
0.00301229
0.00300413
0.00299694
0.00299075
0.00298557
0.00298141
0.00297822
0.00297594
0.0029745
0.00297379
0.00297369
0.00297407
0.00297476
0.00297554
0.00297614
0.00297589
0.00297466
0.00296421
0.00647934
0.00600241
0.00563546
0.00534277
0.00510371
0.00490495
0.00473732
0.00459426
0.00447093
0.00436368
0.00426972
0.00418687
0.00411336
0.00404778
0.00398897
0.00393598
0.00388802
0.00384444
0.00380468
0.00376828
0.00373484
0.00370403
0.00367556
0.00364917
0.00362466
0.00360182
0.0035805
0.00356056
0.00354185
0.00352427
0.00350771
0.00349208
0.00347729
0.00346326
0.00344991
0.00343718
0.003425
0.0034133
0.00340202
0.0033911
0.00338049
0.00337013
0.00335996
0.00334993
0.00333998
0.00333007
0.00332015
0.00331017
0.00330009
0.00328986
0.00327945
0.00326882
0.00325795
0.00324681
0.00323539
0.00322368
0.00321169
0.00319941
0.00318688
0.00317412
0.00316118
0.0031481
0.00313496
0.00312181
0.00310875
0.00309587
0.00308327
0.00307105
0.00305933
0.0030482
0.00303778
0.00302817
0.00301944
0.00301168
0.00300493
0.00299922
0.00299456
0.00299091
0.00298822
0.00298642
0.00298539
0.00298504
0.00298526
0.00298591
0.00298685
0.00298787
0.00298872
0.00298877
0.00298789
0.00297832
0.00647937
0.00600244
0.00563547
0.00534275
0.00510363
0.00490481
0.0047371
0.00459394
0.00447049
0.00436312
0.00426908
0.00418617
0.00411264
0.00404707
0.00398828
0.00393532
0.00388739
0.00384383
0.00380409
0.00376771
0.00373428
0.00370348
0.00367502
0.00364865
0.00362416
0.00360136
0.00358008
0.0035602
0.00354157
0.00352408
0.00350764
0.00349215
0.00347753
0.00346369
0.00345056
0.00343807
0.00342615
0.00341474
0.00340376
0.00339317
0.0033829
0.00337289
0.00336307
0.0033534
0.00334382
0.00333427
0.0033247
0.00331507
0.00330533
0.00329544
0.00328535
0.00327505
0.00326449
0.00325367
0.00324256
0.00323116
0.00321948
0.00320752
0.00319531
0.00318288
0.00317028
0.00315757
0.00314482
0.0031321
0.00311951
0.00310715
0.00309515
0.00308366
0.00307275
0.00306253
0.00305311
0.00304455
0.00303691
0.00303021
0.00302448
0.00301969
0.00301582
0.00301282
0.00301063
0.00300915
0.00300828
0.00300793
0.00300802
0.00300844
0.00300909
0.0030098
0.00301034
0.00301021
0.00300933
0.00300075
0.0064794
0.00600247
0.00563548
0.00534271
0.00510354
0.00490463
0.00473682
0.00459355
0.00446997
0.00436249
0.0042684
0.00418552
0.00411207
0.00404656
0.00398783
0.00393489
0.00388696
0.00384338
0.00380358
0.00376712
0.00373361
0.00370271
0.00367416
0.00364769
0.00362312
0.00360026
0.00357896
0.00355907
0.00354048
0.00352308
0.00350676
0.00349143
0.00347702
0.00346344
0.00345061
0.00343844
0.00342687
0.00341582
0.00340524
0.00339506
0.00338522
0.00337564
0.00336626
0.00335702
0.00334785
0.00333871
0.00332954
0.00332029
0.00331093
0.0033014
0.00329169
0.00328175
0.00327158
0.00326114
0.00325045
0.00323948
0.00322826
0.00321681
0.00320516
0.00319333
0.0031814
0.00316941
0.00315744
0.00314556
0.00313386
0.00312243
0.00311136
0.00310075
0.00309068
0.00308126
0.00307254
0.0030646
0.00305749
0.00305124
0.00304588
0.0030414
0.00303779
0.003035
0.00303297
0.00303161
0.00303082
0.0030305
0.00303061
0.00303108
0.00303181
0.00303266
0.00303348
0.00303388
0.00303396
0.00302807
0.00647943
0.0060025
0.00563548
0.00534266
0.0051034
0.00490438
0.0047364
0.00459288
0.00446894
0.00436101
0.00426711
0.00418517
0.00411297
0.00404866
0.00399082
0.00393835
0.00389043
0.00384646
0.00380595
0.00376854
0.00373392
0.00370186
0.00367213
0.00364456
0.00361898
0.00359525
0.00357322
0.00355278
0.0035338
0.00351615
0.00349973
0.00348443
0.00347014
0.00345678
0.00344424
0.00343246
0.00342135
0.00341082
0.0034008
0.00339119
0.00338188
0.00337279
0.00336385
0.003355
0.00334619
0.00333735
0.00332847
0.00331952
0.00331043
0.0033012
0.00329177
0.00328212
0.00327224
0.00326211
0.00325172
0.00324107
0.00323018
0.00321907
0.00320777
0.00319632
0.00318479
0.00317322
0.0031617
0.0031503
0.0031391
0.00312821
0.00311771
0.00310769
0.00309824
0.00308945
0.00308138
0.0030741
0.00306764
0.00306205
0.00305733
0.00305349
0.00305049
0.00304831
0.00304686
0.00304602
0.0030456
0.00304555
0.00304589
0.00304656
0.00304751
0.0030486
0.00304975
0.00305068
0.00305176
0.00304922
0.00647946
0.00600253
0.00563548
0.00534261
0.00510327
0.00490413
0.00473598
0.00459224
0.00446797
0.00435981
0.00432509
0.00430655
0.00427995
0.00424084
0.00419132
0.00413508
0.00407551
0.00401526
0.00395622
0.00389965
0.00384635
0.0037968
0.0037512
0.00370961
0.00367191
0.00363794
0.00360746
0.00358014
0.0035556
0.00353342
0.00351314
0.00349431
0.00347646
0.00345908
0.00344271
0.00342872
0.0034165
0.00340555
0.00339548
0.00338603
0.003377
0.00336821
0.00335953
0.00335095
0.00334258
0.00333441
0.00332637
0.00331841
0.00331043
0.00330236
0.00329414
0.00328573
0.00327707
0.00326814
0.00325893
0.00324943
0.00323964
0.00322959
0.00321931
0.00320886
0.00319829
0.00318766
0.00317705
0.00316654
0.00315623
0.00314621
0.00313657
0.00312741
0.00311882
0.00311087
0.00310366
0.00309723
0.00309163
0.0030869
0.00308305
0.00308009
0.00307799
0.00307671
0.00307621
0.00307633
0.00307238
0.00306804
0.00306449
0.00306194
0.00306027
0.00305925
0.0030586
0.00305784
0.00305699
0.00305174
0.00647949
0.00600255
0.00563547
0.00534253
0.00510308
0.00490375
0.00473526
0.00459087
0.00446481
0.00436312
0.00768548
0.0084058
0.00839251
0.00813407
0.00780955
0.0074867
0.00719027
0.00692797
0.00670076
0.00650707
0.00634445
0.00621018
0.00610147
0.00601548
0.00594932
0.00590009
0.00586487
0.00584084
0.00582531
0.00581584
0.00581029
0.00580687
0.00580418
0.00580119
0.00579737
0.00579335
0.00578972
0.00578648
0.00578345
0.00578046
0.00577737
0.00577403
0.0057702
0.00576574
0.0057605
0.00575454
0.00574814
0.0057415
0.00573476
0.00572801
0.00572128
0.00571457
0.00570789
0.00570126
0.00569467
0.00568816
0.00568171
0.00567531
0.00566896
0.00566263
0.00565636
0.00565014
0.00564403
0.00563805
0.00563229
0.0056268
0.00562169
0.00561706
0.00561302
0.00560969
0.00560718
0.00560561
0.0056051
0.0056058
0.00560789
0.00561163
0.00561753
0.00562648
0.00564273
0.00565972
0.00458817
0.00396201
0.00358038
0.00334158
0.00318986
0.00309258
0.00302964
0.0029877
0.0029577
0.00292862
0.00647953
0.00600258
0.00563547
0.00534248
0.00510295
0.00490351
0.00473486
0.00459025
0.00446388
0.00436189
0.00768608
0.00840818
0.00839318
0.0081305
0.00780022
0.00747069
0.00716711
0.00689752
0.00666314
0.00646263
0.00629371
0.00615384
0.00604041
0.0059507
0.00588192
0.00583118
0.00579555
0.00577209
0.00575795
0.00575051
0.00574741
0.00574668
0.00574667
0.00574613
0.0057441
0.00573994
0.00573323
0.00572375
0.00571137
0.005696
0.00567766
0.00565651
0.00563289
0.00560697
0.00557891
0.00554896
0.00551732
0.00548424
0.00545002
0.00541483
0.00537884
0.00534225
0.00530524
0.00526806
0.00523092
0.00519407
0.00515772
0.00512211
0.00508745
0.00505396
0.00502183
0.00499122
0.00496228
0.00493512
0.00490982
0.00488644
0.00486501
0.00484555
0.00482804
0.00481248
0.00479883
0.00478709
0.00477725
0.00476932
0.00476338
0.00475957
0.00475833
0.00476009
0.00476858
0.00477438
0.00399433
0.00352567
0.00323277
0.00304454
0.00292122
0.00283911
0.00278334
0.00274328
0.00271237
0.00267303
0.00647956
0.00600261
0.00563547
0.00534243
0.00510282
0.00490327
0.00473445
0.0045896
0.00446287
0.00436039
0.00767941
0.00840214
0.00838884
0.00812773
0.00779858
0.00746966
0.00716621
0.00689638
0.00666156
0.00646054
0.00629123
0.00615123
0.00603805
0.00594909
0.00588167
0.00583292
0.00579991
0.00577965
0.00576922
0.00576588
0.0057672
0.00577107
0.00577581
0.00578011
0.005783
0.00578378
0.00578199
0.00577739
0.00576984
0.00575928
0.00574572
0.0057292
0.00570984
0.00568775
0.00566307
0.00563594
0.00560654
0.00557499
0.00554139
0.005506
0.00546896
0.00543039
0.00539044
0.00534924
0.00530694
0.0052637
0.0052197
0.00517512
0.00513018
0.00508511
0.00504017
0.00499561
0.00495171
0.00490873
0.00486695
0.00482661
0.00478793
0.00475113
0.00471637
0.00468408
0.00465448
0.00462761
0.00460349
0.00458216
0.00456369
0.00454817
0.00453591
0.00452717
0.00452507
0.00452037
0.00382177
0.00342527
0.00319272
0.00305199
0.00296384
0.00290623
0.00286631
0.00283556
0.00280912
0.00277076
0.00647959
0.00600264
0.00563548
0.00534241
0.00510275
0.00490312
0.00473421
0.00458925
0.00446239
0.0043598
0.00767762
0.00840068
0.00838783
0.00812695
0.0077978
0.00746869
0.00716493
0.00689472
0.00665952
0.00645816
0.00628858
0.00614842
0.00603523
0.00594643
0.00587934
0.00583114
0.00579889
0.00577958
0.0057703
0.00576829
0.00577109
0.00577659
0.00578309
0.00578925
0.00579408
0.00579689
0.0057972
0.00579473
0.00578929
0.00578077
0.00576915
0.00575442
0.00573669
0.00571609
0.00569282
0.00566714
0.00563931
0.00560963
0.00557835
0.00554567
0.00551181
0.005477
0.00544141
0.00540523
0.00536863
0.00533177
0.00529483
0.00525801
0.0052215
0.00518553
0.00515034
0.00511618
0.00508329
0.00505195
0.00502239
0.00499485
0.00496953
0.00494661
0.00492628
0.00490843
0.00489319
0.00488068
0.00487097
0.00486412
0.00486016
0.00485919
0.00486156
0.00486809
0.00488436
0.00491433
0.00419737
0.00380252
0.00357231
0.00343071
0.00333869
0.00327514
0.00322762
0.00318794
0.00315417
0.00311623
0.00647962
0.00600267
0.0056355
0.0053424
0.00510269
0.00490301
0.00473402
0.00458898
0.00446201
0.00435929
0.00767523
0.008398
0.00838524
0.00812454
0.00779555
0.00746653
0.00716276
0.00689248
0.00665716
0.00645566
0.00628595
0.00614572
0.00603252
0.00594382
0.00587695
0.0058291
0.00579731
0.0057786
0.00577004
0.00576885
0.00577257
0.0057791
0.00578671
0.00579408
0.00580022
0.00580442
0.00580619
0.00580517
0.00580111
0.00579382
0.00578318
0.00576915
0.00575176
0.00573116
0.00570759
0.00568133
0.00565274
0.00562215
0.00558985
0.00555618
0.0055214
0.00548579
0.00544958
0.00541301
0.0053763
0.00533965
0.00530328
0.00526741
0.00523228
0.00519812
0.0051652
0.00513382
0.00510503
0.00507885
0.00505521
0.00503409
0.00501556
0.00499972
0.00498668
0.00497644
0.00496888
0.00496399
0.00496169
0.00496189
0.00496458
0.00496982
0.00497799
0.00498984
0.00500989
0.00504198
0.00430035
0.00389443
0.00365976
0.00351675
0.00342462
0.00336146
0.00331467
0.00327582
0.00323562
0.00318716
0.00647965
0.00600271
0.00563552
0.0053424
0.00510268
0.00490296
0.00473393
0.00458884
0.00446183
0.00435905
0.00767379
0.00839614
0.0083831
0.00812215
0.00779293
0.00746368
0.00715971
0.00688926
0.00665379
0.0064522
0.00628245
0.00614225
0.00602916
0.00594066
0.00587407
0.00582656
0.0057952
0.00577697
0.00576894
0.00576834
0.0057727
0.00577993
0.00578832
0.00579657
0.00580368
0.00580897
0.00581189
0.00581205
0.0058091
0.00580274
0.0057927
0.00577885
0.00576115
0.00573976
0.00571496
0.00568711
0.00565668
0.00562411
0.0055898
0.00555415
0.00551748
0.00548006
0.00544216
0.00540399
0.00536578
0.00532774
0.00529011
0.0052531
0.00521695
0.00518189
0.00514818
0.00511608
0.00508587
0.00505778
0.00503205
0.00500879
0.00498903
0.00497283
0.00495981
0.00494976
0.00494253
0.00493807
0.00493629
0.00493713
0.00494054
0.0049465
0.00495525
0.00496757
0.00498813
0.00502119
0.00428836
0.00388727
0.00365511
0.00351329
0.0034216
0.00335848
0.00331149
0.00327231
0.0032319
0.00318855
0.00647968
0.00600274
0.00563556
0.00534243
0.00510269
0.00490297
0.00473394
0.00458885
0.00446185
0.00435908
0.0076734
0.00839523
0.00838157
0.00811998
0.00779012
0.0074603
0.00715584
0.00688501
0.00664929
0.00644757
0.00627784
0.00613779
0.00602498
0.00593686
0.00587073
0.00582375
0.00579291
0.0057752
0.00576765
0.0057675
0.0057723
0.00577997
0.00578887
0.00579774
0.00580564
0.00581189
0.00581596
0.00581738
0.00581567
0.00581032
0.00580089
0.00578702
0.00576859
0.00574575
0.00571885
0.0056884
0.005655
0.00561925
0.00558171
0.0055428
0.0055029
0.00546228
0.00542123
0.00538
0.00533884
0.005298
0.00525766
0.00521806
0.0051794
0.00514191
0.00510586
0.00507151
0.00503911
0.00500894
0.00498121
0.00495613
0.00493386
0.00491453
0.00489819
0.00488487
0.00487454
0.00486715
0.00486262
0.00486087
0.00486174
0.00486523
0.00487176
0.00488312
0.00490362
0.0049376
0.0042256
0.003836
0.00361027
0.0034721
0.00338248
0.00332049
0.00327396
0.00323498
0.00320119
0.003165
0.00647971
0.00600278
0.00563559
0.00534247
0.00510273
0.00490301
0.004734
0.00458893
0.00446195
0.00435917
0.00767214
0.00839271
0.00837803
0.00811575
0.00778549
0.00745551
0.00715108
0.00688042
0.00664501
0.00644372
0.00627458
0.00613529
0.00602344
0.00593646
0.00587164
0.00582604
0.0057966
0.00578024
0.00577395
0.00577498
0.00578091
0.00578978
0.00580003
0.00581053
0.00582043
0.00582906
0.00583584
0.00584014
0.00584116
0.005838
0.00582977
0.0058158
0.00579584
0.00577013
0.00573928
0.00570417
0.00566576
0.00562497
0.00558254
0.00553917
0.00549533
0.00545112
0.00540657
0.00536185
0.00531719
0.00527279
0.00522888
0.00518563
0.00514326
0.00510194
0.00506193
0.0050235
0.00498692
0.00495246
0.00492037
0.00489084
0.00486403
0.00484001
0.0048189
0.00480077
0.00478567
0.00477357
0.00476439
0.00475804
0.00475455
0.0047539
0.00475621
0.00476156
0.00477296
0.00478269
0.00408145
0.00369382
0.00346862
0.00333635
0.00325501
0.00320214
0.00316512
0.00313624
0.00311089
0.0030777
0.00647974
0.00600282
0.00563564
0.00534253
0.00510282
0.00490315
0.00473423
0.00458931
0.0044626
0.0043602
0.00767609
0.00839531
0.00837846
0.00811415
0.00778235
0.00745157
0.00714727
0.00687788
0.00664506
0.00644786
0.00628439
0.00615232
0.00604903
0.00597162
0.00591692
0.00588153
0.00586198
0.00585492
0.00585726
0.00586629
0.0058798
0.00589605
0.00591374
0.00593192
0.00594981
0.0059667
0.00598174
0.0059938
0.00600138
0.00600261
0.00599564
0.00597915
0.00595269
0.00591685
0.00587307
0.00582327
0.00576954
0.00571383
0.00565776
0.00560235
0.00554808
0.00549597
0.00544551
0.00539628
0.00534797
0.00530028
0.005253
0.00520603
0.00515939
0.00511334
0.00506846
0.00502513
0.00498374
0.0049447
0.00490838
0.00487506
0.00484495
0.00481829
0.00479519
0.00477573
0.00475985
0.00474748
0.00473854
0.00473294
0.00473061
0.00473152
0.00473589
0.00474395
0.00475898
0.00477296
0.00403878
0.00362204
0.00337691
0.00322805
0.00313476
0.00307429
0.0030334
0.00300377
0.00298014
0.00295078
0.00647977
0.00600286
0.00563569
0.00534259
0.0051029
0.00490327
0.00473443
0.00458963
0.00446311
0.00436083
0.00767126
0.00838757
0.00837209
0.0081117
0.0077872
0.00746903
0.00718385
0.0069405
0.00674021
0.00658092
0.00645895
0.00636984
0.00630878
0.00627092
0.00625165
0.00624675
0.00625258
0.00626613
0.00628499
0.00630739
0.00633201
0.00635799
0.00638475
0.00641189
0.00643904
0.00646572
0.00649109
0.00651375
0.00653155
0.00654139
0.00653972
0.00652337
0.00649027
0.0064399
0.00637321
0.00629229
0.0062
0.0060997
0.00599498
0.00588955
0.00578693
0.0056907
0.00560468
0.0055312
0.00546949
0.00541756
0.00537314
0.00533369
0.00530013
0.00527202
0.00524837
0.0052284
0.00521145
0.00519703
0.00518481
0.00517439
0.00516542
0.00515795
0.0051522
0.00514839
0.00514667
0.00514718
0.00515002
0.00515532
0.00516319
0.00517376
0.00518739
0.00520467
0.00522953
0.00525458
0.00432167
0.00378646
0.00346695
0.0032713
0.00314959
0.00307309
0.00302477
0.00299429
0.00297414
0.00295311
0.00647981
0.00600291
0.00563575
0.00534267
0.00510304
0.00490353
0.00473496
0.00459072
0.00446592
0.00435709
0.0042815
0.00421618
0.00414936
0.00408457
0.00402414
0.00396778
0.00391536
0.0038668
0.00382197
0.00378071
0.00374285
0.00370821
0.00367659
0.00364779
0.00362159
0.00359782
0.00357627
0.00355677
0.00353918
0.00352334
0.00350914
0.0034965
0.00348536
0.00347568
0.00346747
0.00346075
0.00345554
0.00345183
0.00344951
0.0034483
0.00344771
0.00344714
0.00344599
0.00344374
0.00344004
0.00343467
0.00342756
0.00341874
0.0034083
0.00339633
0.0033829
0.00336786
0.00335489
0.00334212
0.00332836
0.00331284
0.0032951
0.00327626
0.0032575
0.00323883
0.00322021
0.0032016
0.00318297
0.00316436
0.00314583
0.00312765
0.00311028
0.00309401
0.00307905
0.00306551
0.00305343
0.0030428
0.00303362
0.00302588
0.00301955
0.00301462
0.00301105
0.00300876
0.00300771
0.00300781
0.00300527
0.00300285
0.00300144
0.00300116
0.0030018
0.00300306
0.00300456
0.00300566
0.00300537
0.00299885
0.00647984
0.00600295
0.0056358
0.00534273
0.00510312
0.00490365
0.00473514
0.00459101
0.00446639
0.00435769
0.00426242
0.00417849
0.004104
0.00403742
0.00397755
0.00392343
0.00387427
0.00382943
0.00378839
0.0037507
0.00371602
0.00368405
0.00365453
0.00362726
0.00360206
0.00357877
0.00355727
0.00353746
0.00351924
0.00350256
0.00348737
0.00347364
0.00346138
0.00345063
0.00344147
0.00343401
0.00342839
0.00342471
0.00342295
0.00342282
0.00342368
0.00342473
0.00342519
0.00342443
0.00342203
0.00341777
0.00341166
0.00340377
0.00339435
0.00338352
0.00337144
0.00335821
0.00334397
0.00332886
0.00331297
0.00329638
0.0032792
0.00326153
0.00324351
0.00322527
0.00320695
0.00318869
0.00317063
0.0031529
0.00313566
0.00311902
0.00310307
0.00308789
0.00307357
0.00306019
0.00304785
0.00303665
0.00302668
0.00301796
0.00301052
0.0030044
0.0029996
0.0029961
0.00299387
0.00299277
0.00299262
0.00299329
0.00299475
0.00299695
0.00299975
0.00300301
0.0030065
0.00300984
0.00301255
0.00301054
0.00647987
0.00600299
0.00563584
0.00534279
0.0051032
0.00490377
0.00473535
0.00459136
0.00446698
0.0043586
0.00426352
0.00417955
0.00410491
0.00403813
0.00397803
0.00392368
0.00387428
0.00382919
0.00378788
0.00374991
0.00371491
0.00368259
0.00365269
0.003625
0.00359935
0.00357558
0.00355358
0.00353324
0.00351448
0.00349726
0.00348152
0.00346727
0.00345453
0.00344339
0.00343398
0.00342653
0.00342133
0.00341866
0.00341872
0.00342117
0.00342508
0.00342925
0.00343247
0.00343384
0.0034329
0.00342947
0.00342359
0.00341547
0.00340538
0.00339355
0.0033802
0.00336557
0.00334983
0.00333316
0.00331572
0.00329764
0.00327907
0.00326013
0.00324095
0.00322167
0.00320243
0.00318332
0.0031645
0.00314616
0.00312845
0.0031115
0.00309545
0.00308041
0.00306647
0.00305374
0.00304228
0.00303215
0.00302339
0.00301603
0.00301006
0.00300542
0.00300206
0.0029999
0.00299887
0.00299891
0.0029999
0.0030018
0.00300456
0.00300814
0.00301246
0.00301741
0.00302277
0.00302821
0.00303351
0.00303471
0.0064799
0.00600303
0.00563588
0.00534282
0.00510322
0.0049038
0.00473537
0.00459138
0.00446699
0.00435856
0.00426334
0.00417915
0.00410423
0.00403715
0.00397677
0.00392212
0.00387242
0.00382703
0.00378542
0.00374713
0.00371181
0.00367915
0.0036489
0.00362086
0.00359484
0.0035707
0.00354833
0.00352762
0.00350848
0.00349088
0.00347476
0.00346012
0.00344702
0.00343555
0.00342592
0.00341849
0.00341377
0.00341239
0.00341507
0.00342159
0.00343066
0.00344035
0.00344861
0.00345403
0.00345599
0.00345432
0.0034492
0.00344105
0.00343048
0.00341782
0.0034034
0.00338748
0.00337029
0.00335205
0.00333294
0.00331313
0.00329281
0.00327213
0.00325127
0.00323039
0.00320967
0.00318926
0.00316934
0.00315007
0.0031316
0.00311407
0.00309763
0.00308239
0.00306845
0.00305591
0.00304484
0.00303527
0.00302724
0.00302068
0.00301604
0.00301341
0.00301271
0.00301388
0.0030169
0.00302169
0.00302815
0.0030362
0.00304571
0.00305659
0.00306867
0.00308178
0.00309562
0.00310977
0.00312349
0.00313317
0.00647993
0.00600306
0.00563591
0.00534284
0.00510323
0.00490379
0.00473535
0.00459134
0.00446693
0.00435847
0.00426317
0.00417883
0.00410371
0.00403638
0.0039757
0.00392072
0.00387067
0.0038249
0.00378287
0.00374416
0.0037084
0.00367528
0.00364457
0.00361606
0.00358958
0.00356499
0.00354216
0.003521
0.00350142
0.00348336
0.00346677
0.00345164
0.00343799
0.00342596
0.00341578
0.00340796
0.00340327
0.00340306
0.00340971
0.00342438
0.00344567
0.00346965
0.00349164
0.00350882
0.00352002
0.00352509
0.00352443
0.00351834
0.00350944
0.00349821
0.00348507
0.00347035
0.00345429
0.0034371
0.00341896
0.00340002
0.00338046
0.00336045
0.00334018
0.00331985
0.00329968
0.00327987
0.00326064
0.00324221
0.00322477
0.00320852
0.00319363
0.00318024
0.0031685
0.0031585
0.00315039
0.00314525
0.00314295
0.00314345
0.00314618
0.00315105
0.0031581
0.00316733
0.00317858
0.00319169
0.00320652
0.00322285
0.00324046
0.00325908
0.0032784
0.00329811
0.00331779
0.00333701
0.00335475
0.0033687
0.00647996
0.0060031
0.00563593
0.00534284
0.00510321
0.00490373
0.00473524
0.00459116
0.00446667
0.00435809
0.00426262
0.00417807
0.00410268
0.00403506
0.00397405
0.00391871
0.00386827
0.00382209
0.00377963
0.00374046
0.00370422
0.00367061
0.00363939
0.00361036
0.00358336
0.00355824
0.0035349
0.00351324
0.00349315
0.00347456
0.00345742
0.00344167
0.00342733
0.00341447
0.00340333
0.00339456
0.00338921
0.00339005
0.00340742
0.00345097
0.0035188
0.00359605
0.00366745
0.00372716
0.0037736
0.00380756
0.00383069
0.00384476
0.00384936
0.00384857
0.00384423
0.00383605
0.00382385
0.00380769
0.00378782
0.0037647
0.00373894
0.00371121
0.00368222
0.00365266
0.00362319
0.00359438
0.00356675
0.00354072
0.00351668
0.0034949
0.00347562
0.0034589
0.00344613
0.00343714
0.00343173
0.00342889
0.00342864
0.00343102
0.00343613
0.00344385
0.00345385
0.00346582
0.00347945
0.00349477
0.00351176
0.00352967
0.00354792
0.00356605
0.00358367
0.00360046
0.00361602
0.00363003
0.003641
0.00364829
0.00647999
0.00600313
0.00563595
0.00534284
0.00510317
0.00490364
0.00473509
0.00459094
0.00446634
0.00435763
0.004262
0.00417725
0.00410162
0.00403371
0.00397236
0.00391665
0.00386579
0.00381914
0.00377619
0.00373648
0.00369967
0.00366545
0.00363361
0.00360395
0.00357631
0.00355056
0.00352661
0.00350433
0.00348364
0.00346443
0.00344662
0.00343012
0.00341486
0.00340082
0.00338808
0.00337733
0.00336966
0.00337146
0.00343946
0.00361939
0.003878
0.00413608
0.00434614
0.00450327
0.00461159
0.00467943
0.00471484
0.00472469
0.00471443
0.00468606
0.00464329
0.00459081
0.00453219
0.00446951
0.00440469
0.00433943
0.00427516
0.004213
0.00415382
0.0040983
0.00404688
0.00399989
0.00395751
0.00391984
0.00388689
0.00385862
0.00383524
0.00381721
0.0038032
0.00379271
0.0037872
0.00378558
0.00378698
0.00379078
0.00379636
0.00380322
0.00381098
0.00381931
0.00382796
0.00383668
0.00384525
0.00385351
0.00386131
0.00386851
0.00387499
0.00388062
0.00388517
0.00388854
0.00388941
0.00388814
0.00648002
0.00600316
0.00563597
0.00534282
0.00510311
0.00490352
0.00473489
0.00459064
0.00446592
0.00435706
0.00426124
0.00417625
0.00410034
0.00403211
0.00397039
0.00391426
0.00386294
0.00381578
0.00377227
0.00373195
0.00369449
0.00365959
0.00362702
0.00359662
0.00356824
0.00354176
0.00351709
0.00349412
0.00347275
0.00345286
0.00343435
0.00341709
0.00340093
0.00338573
0.00337126
0.00335812
0.00334681
0.00335628
0.00369005
0.00436947
0.00506514
0.00555947
0.00583564
0.00595094
0.00595466
0.0058878
0.00577986
0.00565078
0.00551337
0.00537553
0.00524148
0.00511403
0.00499476
0.00488493
0.00478495
0.00469467
0.00461373
0.0045417
0.00447803
0.00442253
0.00437413
0.0043343
0.0043009
0.00427258
0.00424849
0.0042281
0.00421071
0.00419575
0.00418332
0.00417305
0.00416461
0.0041577
0.00415206
0.00414734
0.00414322
0.00413963
0.00413643
0.0041335
0.00413067
0.00412781
0.00412482
0.0041216
0.00411808
0.00411419
0.00410987
0.00410506
0.00409961
0.00409351
0.00408552
0.00407667
0.00648004
0.00600318
0.00563598
0.0053428
0.00510303
0.00490338
0.00473467
0.00459031
0.00446546
0.00435643
0.00426041
0.00417519
0.004099
0.00403042
0.00396832
0.00391175
0.00385992
0.00381219
0.00376804
0.00372702
0.00368879
0.00365307
0.00361964
0.00358835
0.00355907
0.00353172
0.0035062
0.00348242
0.00346027
0.00343963
0.00342037
0.00340235
0.00338535
0.00336909
0.00335276
0.00333641
0.00331759
0.00336133
0.00460012
0.00603118
0.00695143
0.00734125
0.00735444
0.00715814
0.00686717
0.00655029
0.0062444
0.00596657
0.00572282
0.00551347
0.00533618
0.00518745
0.00506389
0.00496223
0.00487951
0.00481357
0.00476434
0.00472561
0.00469365
0.00466621
0.00464187
0.00461974
0.00459922
0.00457997
0.0045618
0.00454457
0.00452821
0.00451246
0.00449703
0.004482
0.00446739
0.00445323
0.00443975
0.00442677
0.00441408
0.00440148
0.00438887
0.00437626
0.00436369
0.00435111
0.00433848
0.00432579
0.00431301
0.00430015
0.00428719
0.00427413
0.00426084
0.00424744
0.00423268
0.00421805
0.00648006
0.0060032
0.00563598
0.00534276
0.00510295
0.00490322
0.00473442
0.00458995
0.00446495
0.00435575
0.00425952
0.00417403
0.00409753
0.0040286
0.00396608
0.00390902
0.00385663
0.00380826
0.00376338
0.00372156
0.00368244
0.00364575
0.0036113
0.00357895
0.0035486
0.0035202
0.0034937
0.003469
0.003446
0.00342458
0.00340464
0.00338617
0.00336909
0.00335341
0.00333841
0.00332417
0.003307
0.00335513
0.00469703
0.00621842
0.00718468
0.00755223
0.0075466
0.00732769
0.0070063
0.00665482
0.00631475
0.00600671
0.00573875
0.00551202
0.00532428
0.0051721
0.00505286
0.00496667
0.00490714
0.004867
0.00484054
0.00482323
0.00481155
0.00480284
0.00479527
0.00478761
0.00477914
0.00476951
0.0047586
0.00474644
0.00473314