/*--------------------------------*- C++ -*----------------------------------*\
| =========                 |                                                 |
| \\      /  F ield         | OpenFOAM: The Open Source CFD Toolbox           |
|  \\    /   O peration     | Version:  v2012                                 |
|   \\  /    A nd           | Website:  www.openfoam.com                      |
|    \\/     M anipulation  |                                                 |
\*---------------------------------------------------------------------------*/
FoamFile
{
    version     2.0;
    format      ascii;
    class       volScalarField;
    location    "200/air";
    object      epsilon;
}
// * * * * * * * * * * * * * * * * * * * * * * * * * * * * * * * * * * * * * //

dimensions      [0 2 -3 0 0 0 0];


internalField   nonuniform List<scalar> 
287104
(
0.0965184
0.0769305
0.0638132
0.0544934
0.0475945
0.0423252
0.0381979
0.0348969
0.0322096
0.0299888
0.0281294
0.0265548
0.0252081
0.0240459
0.0230348
0.0221489
0.0213674
0.0206738
0.0200549
0.0194997
0.0189992
0.0185461
0.018134
0.0177579
0.0174131
0.017096
0.0168033
0.0165321
0.0162801
0.0160451
0.0158252
0.0156189
0.0154245
0.0152409
0.0150668
0.0149011
0.0147428
0.0145911
0.0144451
0.0143041
0.0141673
0.0140341
0.0139037
0.0137756
0.0136492
0.0135239
0.0133992
0.0132746
0.0131496
0.0130238
0.0128967
0.0127681
0.0126377
0.0125054
0.0123709
0.0122344
0.0120958
0.0119555
0.0118137
0.0116708
0.0115275
0.0113842
0.0112417
0.0111009
0.0109625
0.0108276
0.010697
0.0105717
0.0104526
0.0103406
0.0102363
0.0101404
0.0100536
0.00997611
0.00990824
0.00985
0.00980128
0.00976184
0.00973124
0.00970884
0.00969383
0.00968529
0.00968203
0.00968259
0.00968521
0.00968748
0.00968639
0.00967427
0.00965052
0.00952175
0.0965128
0.0769203
0.0638
0.0544783
0.0475781
0.0423081
0.0381802
0.0348789
0.0321915
0.0299706
0.0281113
0.026537
0.0251905
0.0240287
0.0230182
0.0221328
0.0213518
0.0206589
0.0200406
0.019486
0.0189861
0.0185336
0.0181222
0.0177466
0.0174025
0.0170861
0.0167941
0.0165237
0.0162725
0.0160383
0.0158194
0.015614
0.0154208
0.0152383
0.0150653
0.0149009
0.0147439
0.0145936
0.014449
0.0143093
0.0141739
0.0140419
0.0139128
0.0137858
0.0136604
0.013536
0.013412
0.0132879
0.0131632
0.0130375
0.0129104
0.0127816
0.0126508
0.0125178
0.0123827
0.0122453
0.012106
0.0119648
0.0118221
0.0116785
0.0115345
0.0113907
0.0112479
0.011107
0.0109688
0.0108342
0.0107042
0.0105798
0.0104617
0.0103509
0.010248
0.0101537
0.0100685
0.00999277
0.00992657
0.00986992
0.00982269
0.00978453
0.00975496
0.00973328
0.00971873
0.00971027
0.00970671
0.00970662
0.00970829
0.00970937
0.00970686
0.00969328
0.0096681
0.00954002
0.0965104
0.076916
0.0637944
0.0544717
0.0475707
0.0422999
0.0381716
0.0348698
0.032182
0.0299609
0.0281015
0.0265272
0.0251809
0.0240194
0.0230091
0.022124
0.0213435
0.020651
0.0200331
0.0194789
0.0189794
0.0185274
0.0181164
0.0177414
0.0173978
0.0170819
0.0167905
0.0165207
0.0162703
0.0160369
0.0158189
0.0156145
0.0154223
0.0152409
0.0150691
0.014906
0.0147504
0.0146014
0.0144582
0.01432
0.0141861
0.0140556
0.0139279
0.0138024
0.0136785
0.0135554
0.0134328
0.0133099
0.0131865
0.0130619
0.0129359
0.0128081
0.0126783
0.0125463
0.0124122
0.0122758
0.0121374
0.0119973
0.0118559
0.0117136
0.011571
0.0114289
0.011288
0.0111491
0.0110132
0.0108813
0.0107541
0.0106328
0.0105182
0.0104111
0.0103122
0.0102223
0.0101416
0.0100707
0.0100095
0.00995804
0.00991616
0.00988348
0.00985943
0.00984335
0.00983436
0.00983142
0.00983332
0.00983867
0.0098458
0.00985237
0.00985554
0.00984814
0.00982955
0.00971257
0.0965081
0.0769114
0.0637878
0.0544635
0.0475611
0.0422892
0.0381598
0.0348571
0.0321685
0.0299469
0.0280872
0.0265128
0.0251666
0.0240052
0.0229953
0.0221106
0.0213304
0.0206382
0.0200206
0.0194667
0.0189676
0.0185158
0.0181051
0.0177304
0.0173871
0.0170716
0.0167806
0.0165114
0.0162615
0.0160289
0.0158116
0.0156081
0.0154168
0.0152365
0.015066
0.0149041
0.0147499
0.0146024
0.0144608
0.0143241
0.0141917
0.0140628
0.0139367
0.0138127
0.0136901
0.0135684
0.013447
0.0133252
0.0132028
0.013079
0.0129537
0.0128265
0.0126971
0.0125654
0.0124314
0.0122951
0.0121567
0.0120166
0.011875
0.0117325
0.0115898
0.0114475
0.0113065
0.0111676
0.0110317
0.0108999
0.010773
0.0106522
0.0105381
0.0104318
0.010334
0.0102453
0.0101663
0.0100971
0.0100381
0.00998912
0.00995003
0.00992043
0.00989978
0.00988734
0.00988223
0.00988338
0.00988962
0.00989957
0.00991158
0.00992343
0.00993239
0.00993164
0.00992032
0.00981485
0.0965061
0.0769073
0.0637822
0.0544565
0.047553
0.0422799
0.0381495
0.0348458
0.0321564
0.029934
0.0280738
0.0264992
0.0251531
0.023992
0.0229824
0.0220981
0.0213183
0.0206265
0.0200093
0.0194558
0.018957
0.0185055
0.0180951
0.0177207
0.0173778
0.0170627
0.0167722
0.0165035
0.0162542
0.0160223
0.0158058
0.0156033
0.0154131
0.015234
0.0150648
0.0149043
0.0147516
0.0146057
0.0144657
0.0143308
0.0142001
0.014073
0.0139486
0.0138262
0.0137052
0.013585
0.013465
0.0133445
0.0132232
0.0131005
0.012976
0.0128496
0.0127208
0.0125896
0.012456
0.01232
0.0121818
0.0120418
0.0119003
0.011758
0.0116153
0.0114732
0.0113323
0.0111936
0.0110581
0.0109267
0.0108004
0.0106802
0.0105671
0.0104619
0.0103655
0.0102784
0.0102013
0.0101344
0.0100781
0.0100321
0.00999635
0.00997039
0.00995359
0.00994512
0.00994396
0.00994899
0.00995894
0.00997245
0.00998793
0.0100033
0.0100159
0.0100194
0.0100127
0.00991598
0.096504
0.0769031
0.0637762
0.0544489
0.0475439
0.0422693
0.0381375
0.0348324
0.0321419
0.0299187
0.0280581
0.0264837
0.0251381
0.0239776
0.0229686
0.0220849
0.0213056
0.0206142
0.0199973
0.0194439
0.0189453
0.0184939
0.0180837
0.0177094
0.0173667
0.0170519
0.0167618
0.0164936
0.016245
0.0160139
0.0157985
0.0155972
0.0154084
0.0152308
0.0150633
0.0149048
0.0147542
0.0146105
0.0144728
0.0143402
0.014212
0.0140873
0.0139654
0.0138455
0.0137269
0.013609
0.0134911
0.0133727
0.0132532
0.0131322
0.0130094
0.0128843
0.0127568
0.0126267
0.0124941
0.012359
0.0122216
0.0120823
0.0119415
0.0117998
0.0116578
0.0115163
0.0113762
0.0112383
0.0111037
0.0109734
0.0108484
0.0107297
0.0106185
0.0105155
0.0104216
0.0103376
0.010264
0.010201
0.0101488
0.0101073
0.010076
0.0100544
0.0100416
0.0100367
0.0100385
0.010046
0.0100579
0.0100729
0.0100897
0.0101064
0.0101205
0.0101261
0.0101221
0.0100327
0.096502
0.076899
0.0637703
0.0544413
0.0475346
0.0422583
0.0381245
0.0348174
0.0321247
0.0298995
0.0280376
0.0264627
0.0251173
0.0239574
0.0229491
0.0220661
0.0212876
0.0205967
0.0199803
0.0194274
0.018929
0.0184779
0.018068
0.017694
0.0173517
0.0170374
0.0167479
0.0164805
0.016233
0.0160031
0.0157892
0.0155896
0.0154029
0.0152277
0.0150629
0.0149073
0.0147599
0.0146196
0.0144855
0.0143567
0.0142324
0.0141116
0.0139937
0.0138777
0.0137631
0.013649
0.0135349
0.0134201
0.0133041
0.0131865
0.0130669
0.0129449
0.0128204
0.0126932
0.0125634
0.0124311
0.0122964
0.0121598
0.0120218
0.0118828
0.0117438
0.0116055
0.0114687
0.0113346
0.0112043
0.0110789
0.0109597
0.0108478
0.0107438
0.0106488
0.0105633
0.0104877
0.0104221
0.0103666
0.0103209
0.0102847
0.0102574
0.0102384
0.0102269
0.010222
0.0102225
0.0102276
0.0102363
0.0102478
0.0102609
0.010274
0.010285
0.0102889
0.0102851
0.0102045
0.0965
0.0768949
0.0637643
0.0544335
0.0475248
0.0422464
0.0381104
0.034801
0.032106
0.0298789
0.0280167
0.0264429
0.0250991
0.0239407
0.0229337
0.0220514
0.021273
0.0205819
0.0199648
0.0194108
0.0189113
0.0184589
0.0180477
0.0176725
0.0173292
0.0170142
0.0167244
0.0164571
0.0162102
0.0159814
0.0157691
0.0155717
0.0153876
0.0152157
0.0150546
0.0149029
0.0147595
0.0146234
0.0144936
0.0143693
0.0142495
0.0141332
0.0140196
0.0139079
0.0137972
0.0136869
0.0135764
0.0134649
0.0133522
0.0132376
0.0131209
0.0130018
0.0128803
0.0127561
0.0126295
0.0125006
0.0123697
0.0122372
0.0121037
0.0119698
0.0118363
0.011704
0.0115737
0.0114464
0.0113231
0.0112046
0.011092
0.0109861
0.0108876
0.0107973
0.0107156
0.0106431
0.0105799
0.010526
0.0104815
0.010446
0.0104192
0.0104004
0.0103889
0.0103836
0.0103835
0.0103876
0.0103954
0.0104063
0.0104192
0.0104328
0.0104457
0.0104542
0.0104599
0.0104058
0.096498
0.0768907
0.0637581
0.0544251
0.047514
0.0422327
0.0380928
0.0347784
0.0320764
0.0298411
0.0279841
0.0264289
0.0251084
0.023971
0.0229786
0.0221031
0.0213241
0.020626
0.019997
0.0194282
0.018912
0.0184424
0.0180145
0.0176239
0.017267
0.0169404
0.0166412
0.0163668
0.0161148
0.015883
0.0156694
0.0154721
0.0152895
0.0151198
0.0149618
0.0148142
0.0146757
0.0145451
0.0144213
0.0143028
0.0141883
0.0140767
0.0139672
0.0138587
0.0137507
0.0136424
0.0135336
0.0134238
0.0133127
0.0131998
0.0130848
0.0129675
0.0128477
0.0127255
0.012601
0.0124743
0.0123457
0.0122158
0.0120851
0.0119543
0.0118241
0.0116954
0.011569
0.0114459
0.011327
0.0112132
0.0111056
0.0110048
0.0109116
0.0108266
0.0107504
0.0106832
0.0106253
0.0105767
0.0105372
0.0105066
0.0104844
0.0104702
0.010463
0.0104613
0.0104634
0.0104687
0.0104773
0.0104887
0.0105024
0.0105171
0.0105317
0.010544
0.0105581
0.0105354
0.0964961
0.0768866
0.0637519
0.0544168
0.0475033
0.0422191
0.0380756
0.0347567
0.0320482
0.0298092
0.0291327
0.0287893
0.0282886
0.0275495
0.0266243
0.0255941
0.0245298
0.0234824
0.0224845
0.0215549
0.0207028
0.0199312
0.0192387
0.0186214
0.0180741
0.0175905
0.0171644
0.0167888
0.0164565
0.0161601
0.0158925
0.0156466
0.0154156
0.0151925
0.0149817
0.014804
0.0146505
0.014514
0.0143895
0.0142731
0.0141622
0.0140543
0.0139478
0.0138426
0.0137399
0.0136395
0.0135407
0.0134426
0.0133442
0.0132446
0.0131433
0.0130396
0.0129333
0.0128241
0.0127121
0.0125972
0.0124799
0.0123606
0.0122399
0.0121185
0.0119973
0.0118771
0.0117589
0.0116438
0.0115326
0.0114264
0.0113261
0.0112327
0.0111468
0.0110692
0.0110004
0.0109407
0.0108904
0.0108496
0.0108181
0.0107956
0.010782
0.0107764
0.0107785
0.0107864
0.0107517
0.0107124
0.0106806
0.0106585
0.010645
0.0106375
0.0106333
0.0106276
0.010621
0.0105687
0.0964941
0.0768825
0.0637455
0.0544079
0.0474911
0.0422023
0.038051
0.0347184
0.0319731
0.0298709
0.163579
0.214487
0.213942
0.195205
0.173127
0.152842
0.135659
0.12157
0.110185
0.101064
0.0938097
0.0880935
0.0836446
0.0802393
0.0776897
0.0758346
0.0745331
0.0736612
0.0731098
0.0727836
0.0726018
0.0724974
0.0724179
0.0723255
0.0721992
0.0720619
0.0719379
0.0718276
0.071724
0.0716201
0.0715108
0.0713899
0.071248
0.0710792
0.070878
0.0706483
0.0703995
0.0701396
0.069874
0.0696062
0.0693371
0.0690674
0.0687978
0.0685292
0.0682624
0.067998
0.0677362
0.0674767
0.0672193
0.0669645
0.0667129
0.0664658
0.0662247
0.0659917
0.0657691
0.0655601
0.0653678
0.0651958
0.0650477
0.0649272
0.0648376
0.0647826
0.0647659
0.0647916
0.0648655
0.064996
0.0652012
0.0655105
0.0660769
0.0666415
0.0356102
0.0229914
0.0170057
0.01385
0.0120641
0.011004
0.010352
0.00993225
0.00964476
0.00936979
0.0964922
0.0768785
0.0637396
0.0543998
0.0474807
0.0421891
0.0380343
0.0346973
0.0319462
0.0298384
0.163569
0.214595
0.21391
0.194864
0.172428
0.151791
0.134287
0.119916
0.108288
0.0989608
0.0915353
0.0856804
0.0811243
0.0776431
0.0750487
0.073179
0.0718918
0.0710601
0.0705708
0.070324
0.0702334
0.0702262
0.0702436
0.0702395
0.0701796
0.0700406
0.069808
0.0694738
0.069034
0.0684877
0.0678364
0.0670886
0.0662577
0.0653502
0.0643748
0.0633419
0.0622607
0.0611424
0.0599981
0.0588351
0.0576614
0.0564845
0.0553126
0.0541537
0.0530156
0.0519054
0.0508295
0.0497939
0.0488038
0.0478639
0.0469775
0.0461472
0.0453745
0.0446603
0.0440045
0.0434066
0.0428655
0.0423796
0.0419471
0.0415664
0.0412355
0.0409529
0.0407175
0.0405291
0.0403888
0.0403001
0.0402735
0.0403196
0.0405338
0.040672
0.0238653
0.0164624
0.0127351
0.0106731
0.00945452
0.00869836
0.0082084
0.0078674
0.00761072
0.00729087
0.0964904
0.0768746
0.0637337
0.0543919
0.0474704
0.0421759
0.0380173
0.0346754
0.0319173
0.0298007
0.1631
0.214066
0.213502
0.194588
0.172245
0.151657
0.134169
0.119793
0.10815
0.0988061
0.0913698
0.0855143
0.0809723
0.0775229
0.0749803
0.0731836
0.0719903
0.0712725
0.0709146
0.0708137
0.0708803
0.0710386
0.071227
0.0713975
0.0715143
0.0715521
0.071494
0.0713301
0.0710557
0.0706698
0.0701738
0.069571
0.0688663
0.0680652
0.0671746
0.0662025
0.0651576
0.0640463
0.062877
0.0616604
0.0604047
0.0591176
0.0578064
0.0564789
0.0551426
0.0538051
0.0524739
0.0511566
0.0498606
0.0485935
0.0473622
0.0461734
0.0450334
0.0439474
0.04292
0.0419548
0.0410542
0.0402202
0.0394537
0.0387632
0.0381475
0.0376042
0.0371312
0.0367265
0.0363897
0.0361207
0.0359263
0.0358111
0.0358477
0.0358207
0.021715
0.0157004
0.0127725
0.0112031
0.010296
0.00973447
0.00935985
0.00907937
0.00884287
0.00851068
0.0964885
0.0768708
0.0637282
0.0543848
0.0474616
0.0421652
0.0380046
0.0346606
0.0319002
0.0297815
0.162941
0.213888
0.21335
0.194456
0.172119
0.151528
0.13403
0.119642
0.10799
0.0986383
0.0911978
0.0853424
0.080805
0.0773655
0.0748385
0.0730636
0.0718987
0.0712158
0.0708994
0.0708463
0.0709666
0.071184
0.0714363
0.0716749
0.0718635
0.071976
0.071995
0.0719086
0.0717099
0.0713962
0.0709669
0.0704238
0.0697714
0.0690155
0.0681654
0.0672329
0.0662303
0.0651703
0.0640636
0.0629201
0.0617502
0.0605634
0.0593683
0.0581727
0.0569839
0.0558089
0.0546545
0.0535275
0.0524344
0.051382
0.0503767
0.0494244
0.0485311
0.0477018
0.0469408
0.0462515
0.0456366
0.0450978
0.0446359
0.0442445
0.043926
0.0436804
0.0435075
0.0434066
0.0433782
0.0434254
0.0435602
0.0438099
0.0443002
0.0451437
0.0281285
0.0209226
0.0173586
0.0153848
0.014188
0.0134006
0.0128333
0.0123729
0.0119684
0.0115442
0.0964867
0.0768672
0.063723
0.0543781
0.0474535
0.0421556
0.0379934
0.0346475
0.0318851
0.0297643
0.162745
0.213617
0.213079
0.194208
0.171897
0.151326
0.133843
0.119463
0.107815
0.0984661
0.091028
0.0851758
0.0806435
0.0772117
0.0746956
0.0729352
0.0717887
0.0711281
0.0708378
0.0708146
0.0709684
0.0712229
0.0715162
0.0717999
0.0720374
0.0722024
0.0722761
0.072244
0.0720966
0.0718278
0.0714338
0.0709141
0.0702719
0.0695129
0.0686481
0.067691
0.0666567
0.06556
0.064414
0.0632323
0.0620274
0.0608103
0.0595916
0.0583805
0.0571856
0.0560148
0.0548756
0.0537751
0.0527202
0.0517177
0.0507746
0.0499057
0.0491283
0.0484379
0.0478296
0.0473007
0.0468508
0.0464803
0.0461888
0.0459732
0.0458289
0.0457532
0.0457429
0.0457947
0.0459084
0.0460856
0.046338
0.0466878
0.0472656
0.0481776
0.0299005
0.0222117
0.0184341
0.0163551
0.0151008
0.0142787
0.0136895
0.0132146
0.0127397
0.0122005
0.096485
0.0768637
0.0637181
0.0543721
0.0474464
0.0421476
0.0379845
0.0346377
0.0318744
0.0297525
0.16261
0.213409
0.212842
0.193963
0.171652
0.151085
0.133606
0.119233
0.107592
0.0982507
0.0908209
0.0849782
0.0804566
0.0770368
0.0745343
0.0727891
0.0716593
0.071017
0.0707467
0.0707452
0.0709225
0.0712029
0.0715251
0.0718414
0.0721158
0.0723222
0.0724404
0.0724536
0.0723486
0.0721147
0.0717434
0.0712304
0.0705764
0.0697876
0.0688769
0.0678618
0.0667621
0.0655961
0.0643812
0.0631336
0.0618668
0.0605927
0.0593216
0.058063
0.0568256
0.0556173
0.0544456
0.0533175
0.0522396
0.0512182
0.0502594
0.0493691
0.0485527
0.0478144
0.0471586
0.0465945
0.0461351
0.0457692
0.0454873
0.045283
0.0451525
0.0450924
0.0450992
0.0451707
0.0453041
0.0454984
0.0457637
0.0461238
0.0467111
0.0476424
0.0296754
0.0221006
0.0183695
0.0163099
0.015063
0.0142426
0.0136525
0.0131752
0.0126997
0.0122142
0.0964833
0.0768603
0.0637135
0.0543667
0.0474404
0.0421412
0.0379779
0.0346311
0.031868
0.0297462
0.162542
0.213275
0.212653
0.193733
0.171395
0.150811
0.133325
0.118951
0.107315
0.097983
0.0905666
0.0847401
0.0802373
0.0768379
0.0743567
0.072633
0.0715241
0.0709016
0.0706496
0.070665
0.0708587
0.071156
0.0714976
0.0718376
0.0721422
0.0723863
0.072549
0.0726111
0.0725538
0.0723592
0.0720109
0.0714978
0.0708173
0.0699759
0.0689896
0.0678822
0.0666789
0.0654048
0.0640822
0.062729
0.0613601
0.0599877
0.0586233
0.0572778
0.0559605
0.0546792
0.0534409
0.0522517
0.0511174
0.0500439
0.0490368
0.0481016
0.0472433
0.0464659
0.0457724
0.0451649
0.0446437
0.044208
0.0438563
0.043586
0.0433943
0.0432777
0.0432326
0.0432558
0.0433428
0.0434981
0.0437403
0.0440963
0.0446836
0.0456239
0.0285809
0.0213732
0.0178115
0.0158389
0.0146402
0.0138482
0.0132747
0.0128094
0.01241
0.0120009
0.0964816
0.076857
0.0637092
0.0543617
0.0474351
0.0421358
0.0379726
0.0346261
0.0318634
0.0297413
0.162419
0.213019
0.212312
0.193358
0.171019
0.150454
0.132995
0.118653
0.107049
0.0977515
0.0903709
0.0845833
0.0801231
0.0767703
0.0743387
0.0726659
0.0716076
0.0710337
0.0708274
0.0708861
0.0711225
0.0714651
0.0718582
0.0722604
0.0726408
0.0729752
0.073241
0.0734117
0.0734566
0.0733425
0.0730361
0.0725143
0.071771
0.0708166
0.0696794
0.0683977
0.0670115
0.065558
0.0640669
0.0625663
0.0610703
0.0595833
0.0581108
0.056661
0.0552425
0.0538628
0.0525285
0.0512456
0.0500192
0.0488538
0.0477545
0.0467268
0.0457756
0.0449052
0.0441188
0.0434181
0.0428029
0.0422709
0.0418214
0.0414528
0.0411628
0.0409485
0.0408057
0.0407306
0.0407238
0.0407825
0.0409099
0.0411099
0.0414625
0.0418328
0.0260374
0.0193329
0.0160266
0.0142357
0.0132049
0.0125647
0.0121318
0.0118048
0.0115257
0.0111746
0.0964799
0.0768539
0.0637053
0.0543575
0.0474311
0.0421328
0.0379715
0.0346282
0.0318707
0.0297555
0.162628
0.213154
0.212274
0.193173
0.170743
0.150149
0.132719
0.118459
0.10699
0.0978777
0.0907315
0.0852229
0.0810785
0.0780679
0.0759923
0.074677
0.0739674
0.0737266
0.0738364
0.0741965
0.0747254
0.0753593
0.0760501
0.0767622
0.0774666
0.0781359
0.0787363
0.0792196
0.0795238
0.0795746
0.079298
0.0786443
0.0776025
0.0762032
0.0745139
0.0726215
0.0706148
0.0685718
0.0665534
0.0645935
0.0627183
0.0609462
0.0592589
0.0576433
0.0560884
0.0545853
0.0531287
0.051716
0.050348
0.04903
0.0477796
0.0466053
0.0455154
0.0445169
0.0436151
0.0428126
0.0421097
0.0415075
0.0410048
0.0405988
0.040285
0.0400586
0.0399154
0.039852
0.0398657
0.0399553
0.0401265
0.040386
0.0408196
0.0412252
0.0250362
0.0181134
0.0147234
0.012893
0.011829
0.0111713
0.0107398
0.0104332
0.0101925
0.00990288
0.0964783
0.0768508
0.0637014
0.0543534
0.0474272
0.0421296
0.0379699
0.0346287
0.0318749
0.0297619
0.162282
0.212508
0.211728
0.192934
0.170993
0.151127
0.134673
0.121611
0.11152
0.103908
0.0983258
0.0943836
0.0917527
0.090157
0.0893651
0.089185
0.0894596
0.0900633
0.0908983
0.0918912
0.0929887
0.0941539
0.0953623
0.0965967
0.0978416
0.0990755
0.100259
0.101325
0.102167
0.102636
0.10256
0.101791
0.100242
0.0979074
0.094867
0.0912591
0.0872534
0.0830313
0.0787698
0.0746307
0.0707457
0.0672731
0.0643056
0.0618473
0.0598257
0.0581478
0.0567271
0.0554841
0.0544091
0.0535131
0.0527722
0.0521637
0.0516638
0.0512537
0.0509197
0.0506478
0.050425
0.0502504
0.0501295
0.0500678
0.0500696
0.0501379
0.0502759
0.0504868
0.0507743
0.0511425
0.0516036
0.0521762
0.0529818
0.0538035
0.0300427
0.0202831
0.0156226
0.01316
0.0117686
0.0109468
0.0104489
0.0101427
0.00994357
0.00974033
0.0964767
0.0768479
0.0636979
0.05435
0.0474249
0.0421299
0.0379761
0.0346469
0.0319285
0.0296778
0.0281855
0.0269392
0.0257009
0.0245335
0.0234775
0.0225206
0.0216549
0.0208731
0.0201686
0.0195349
0.0189657
0.018455
0.0179973
0.0175874
0.0172206
0.0168924
0.016599
0.0163369
0.0161031
0.015895
0.0157107
0.0155482
0.0154064
0.0152845
0.0151823
0.0150998
0.0150373
0.0149944
0.0149695
0.0149589
0.0149561
0.0149533
0.0149424
0.0149167
0.0148715
0.0148043
0.0147141
0.0146016
0.0144682
0.0143156
0.0141453
0.0139799
0.0138321
0.0136808
0.0135129
0.0133214
0.0131024
0.0128573
0.0126213
0.012393
0.0121709
0.0119542
0.0117423
0.0115353
0.011334
0.0111411
0.0109609
0.0107965
0.0106493
0.0105199
0.0104078
0.0103125
0.0102332
0.0101693
0.01012
0.0100847
0.0100626
0.0100528
0.0100547
0.0100672
0.0100526
0.0100381
0.0100328
0.0100376
0.0100508
0.0100695
0.01009
0.0101061
0.0101081
0.010049
0.0964751
0.0768449
0.0636941
0.0543458
0.0474209
0.0421266
0.0379741
0.034647
0.0319321
0.0296836
0.0278024
0.0262131
0.024855
0.0236823
0.0226604
0.0217629
0.0209688
0.0202621
0.0196296
0.019061
0.0185478
0.0180833
0.0176618
0.0172786
0.0169297
0.0166118
0.0163221
0.0160585
0.0158189
0.015602
0.0154067
0.0152321
0.0150778
0.0149439
0.0148311
0.0147406
0.0146742
0.0146328
0.0146161
0.0146201
0.0146365
0.0146549
0.014665
0.0146589
0.0146315
0.0145794
0.0145027
0.0144031
0.0142832
0.0141455
0.0139918
0.0138244
0.0136452
0.0134563
0.0132592
0.0130554
0.0128463
0.0126336
0.0124194
0.0122057
0.0119945
0.0117875
0.0115864
0.0113927
0.0112078
0.0110329
0.0108687
0.0107156
0.0105743
0.010445
0.0103285
0.0102254
0.010136
0.0100603
0.00999831
0.00994983
0.00991464
0.00989229
0.0098821
0.00988273
0.00989216
0.00990921
0.00993355
0.0099646
0.0100013
0.0100422
0.0100852
0.0101266
0.0101618
0.0101507
0.0964735
0.0768419
0.0636903
0.0543416
0.0474169
0.0421234
0.0379726
0.0346483
0.0319382
0.0296957
0.0278173
0.0262265
0.0248649
0.023688
0.0226618
0.0217601
0.020962
0.0202512
0.0196147
0.0190418
0.0185242
0.0180549
0.0176282
0.0172396
0.0168849
0.016561
0.0162651
0.015995
0.0157489
0.0155255
0.0153238
0.0151431
0.0149833
0.0148451
0.0147298
0.0146403
0.0145799
0.0145522
0.0145594
0.0145971
0.0146533
0.0147124
0.0147586
0.0147803
0.0147712
0.0147293
0.0146553
0.0145521
0.0144233
0.0142722
0.0141022
0.0139166
0.0137183
0.0135099
0.0132937
0.0130721
0.012847
0.0126205
0.0123944
0.0121705
0.0119508
0.0117364
0.0115292
0.011331
0.0111435
0.010968
0.0108053
0.0106564
0.0105218
0.0104019
0.0102969
0.010207
0.0101319
0.0100715
0.0100251
0.00999193
0.00997133
0.00996247
0.00996471
0.00997731
0.00999939
0.0100303
0.0100699
0.0101179
0.0101734
0.0102356
0.0103023
0.0103704
0.0104377
0.0104646
0.0964719
0.0768387
0.063686
0.0543367
0.0474115
0.0421177
0.0379667
0.0346423
0.0319319
0.0296884
0.0278073
0.0262124
0.024846
0.0236644
0.0226337
0.0217276
0.0209253
0.0202105
0.0195699
0.018993
0.0184713
0.0179978
0.0175669
0.0171739
0.0168149
0.0164868
0.0161866
0.0159123
0.015662
0.0154343
0.0152283
0.0150433
0.0148794
0.0147376
0.0146202
0.0145315
0.0144778
0.0144671
0.0145082
0.0145983
0.0147212
0.014852
0.0149637
0.0150379
0.0150657
0.0150454
0.0149792
0.0148735
0.0147359
0.0145714
0.0143846
0.0141796
0.0139601
0.0137291
0.0134897
0.0132446
0.0129964
0.0127475
0.0125005
0.0122575
0.0120206
0.0117918
0.0115729
0.0113656
0.0111713
0.0109913
0.0108264
0.0106776
0.0105452
0.0104298
0.0103314
0.0102499
0.0101853
0.0101377
0.0101109
0.0101042
0.0101167
0.0101479
0.0101975
0.0102648
0.0103489
0.0104489
0.0105639
0.010693
0.0108348
0.0109876
0.0111482
0.0113127
0.0114728
0.0115911
0.0964703
0.0768355
0.0636817
0.0543315
0.0474056
0.0421112
0.0379599
0.0346351
0.0319243
0.02968
0.0277975
0.0261999
0.0248301
0.0236443
0.022609
0.0216979
0.0208904
0.0201702
0.019524
0.0189414
0.0184139
0.0179345
0.0174978
0.0170992
0.0167347
0.0164011
0.0160958
0.0158164
0.015561
0.0153283
0.015117
0.0149264
0.0147564
0.0146081
0.0144843
0.0143914
0.0143389
0.0143432
0.0144345
0.0146284
0.0149084
0.0152258
0.0155192
0.0157498
0.0158998
0.0159659
0.0159529
0.0158673
0.0157428
0.0155864
0.0154045
0.015202
0.0149831
0.0147512
0.0145093
0.0142605
0.0140077
0.0137535
0.013501
0.0132529
0.013012
0.0127808
0.0125619
0.0123573
0.012169
0.0119986
0.0118474
0.0117164
0.0116065
0.0115182
0.0114572
0.0114293
0.0114324
0.0114641
0.0115191
0.0115978
0.0117006
0.0118266
0.0119744
0.0121427
0.01233
0.0125342
0.012753
0.0129835
0.0132226
0.0134669
0.0137114
0.013951
0.0141734
0.0143507
0.0964687
0.0768323
0.0636771
0.0543257
0.0473988
0.0421034
0.0379508
0.0346247
0.0319122
0.0296657
0.0277803
0.0261792
0.0248051
0.0236147
0.0225744
0.0216581
0.0208452
0.0201194
0.0194675
0.018879
0.0183454
0.0178599
0.0174169
0.017012
0.0166414
0.0163018
0.0159907
0.0157057
0.0154447
0.0152062
0.0149887
0.0147912
0.0146132
0.0144554
0.0143204
0.0142163
0.014156
0.0141733
0.0143982
0.0149607
0.01586
0.0169238
0.0179447
0.0188253
0.0195246
0.0200407
0.0203896
0.0205911
0.0206384
0.0206075
0.0205189
0.0203691
0.0201575
0.0198869
0.0195641
0.0191985
0.0188016
0.0183853
0.0179612
0.0175401
0.0171311
0.016742
0.016379
0.0160467
0.0157487
0.0154873
0.0152639
0.0150831
0.0149556
0.0148775
0.0148403
0.0148361
0.0148645
0.0149264
0.0150224
0.0151493
0.0153036
0.0154822
0.0156831
0.015909
0.0161509
0.0164014
0.016654
0.0169036
0.0171456
0.0173759
0.017589
0.0177808
0.0179305
0.0180294
0.0964671
0.076829
0.0636725
0.0543198
0.0473916
0.0420949
0.0379409
0.0346132
0.0318989
0.0296502
0.027762
0.0261575
0.0247795
0.0235846
0.0225393
0.0216176
0.0207988
0.0200667
0.0194081
0.0188125
0.0182716
0.0177786
0.0173279
0.0169153
0.0165371
0.0161903
0.0158721
0.0155803
0.0153127
0.0150674
0.0148426
0.0146367
0.0144483
0.0142769
0.0141229
0.0139952
0.0139069
0.0139337
0.014791
0.0172235
0.0211635
0.0256508
0.029731
0.0330413
0.0354477
0.0369975
0.0378051
0.0380034
0.037717
0.0369938
0.0359501
0.034718
0.0333843
0.0320048
0.030627
0.0292882
0.0280157
0.0268281
0.0257366
0.0247469
0.0238607
0.0230767
0.0223918
0.0218018
0.0213017
0.0208867
0.0205603
0.0203172
0.0201396
0.0200271
0.0199825
0.01999
0.0200375
0.0201163
0.0202175
0.0203346
0.0204621
0.020596
0.0207324
0.0208682
0.0210003
0.0211263
0.0212438
0.0213511
0.0214461
0.0215269
0.02159
0.021634
0.0216383
0.0216092
0.0964656
0.0768259
0.0636679
0.0543138
0.0473842
0.0420859
0.0379302
0.0346005
0.0318839
0.0296324
0.027741
0.0261327
0.0247504
0.0235506
0.0224999
0.0215722
0.020747
0.0200079
0.0193419
0.0187385
0.0181893
0.0176876
0.0172281
0.0168067
0.0164197
0.0160644
0.0157382
0.0154388
0.0151639
0.0149113
0.0146791
0.0144651
0.0142668
0.0140824
0.0139086
0.0137528
0.0136207
0.0137339
0.0182209
0.030182
0.0469247
0.0619748
0.0715991
0.0758589
0.0759399
0.0733586
0.0693551
0.0647792
0.0601451
0.05573
0.0516597
0.0479828
0.0447147
0.0418504
0.0393607
0.0372089
0.0353572
0.0337714
0.0324226
0.0312851
0.0303395
0.0295744
0.0289432
0.028417
0.0279771
0.0276108
0.0272987
0.0270355
0.0268189
0.0266408
0.0264945
0.0263739
0.0262741
0.0261867
0.0261088
0.0260387
0.0259741
0.0259122
0.0258506
0.0257872
0.0257206
0.0256491
0.0255717
0.0254876
0.0253956
0.0252953
0.0251839
0.0250619
0.0249081
0.0247407
0.0964642
0.076823
0.0636635
0.054308
0.0473769
0.042077
0.0379194
0.0345876
0.0318685
0.0296142
0.0277194
0.0261073
0.0247205
0.0235157
0.0224593
0.0215252
0.0206929
0.0199461
0.0192716
0.0186591
0.0181001
0.0175882
0.0171181
0.016686
0.0162885
0.0159231
0.0155875
0.0152793
0.0149961
0.0147358
0.0144959
0.0142742
0.0140674
0.0138717
0.0136771
0.0134843
0.0132613
0.0137762
0.0351427
0.0789346
0.120615
0.141931
0.142624
0.131462
0.116046
0.100702
0.0872482
0.0761322
0.0672102
0.0601457
0.0545828
0.0502098
0.0467807
0.0440981
0.0420177
0.0404503
0.0393026
0.0384107
0.0376806
0.0370567
0.0365053
0.0360051
0.0355431
0.0351113
0.0347052
0.0343216
0.0339585
0.0336071
0.0332639
0.0329302
0.0326066
0.0322945
0.0319967
0.0317093
0.0314271
0.0311468
0.0308672
0.0305894
0.0303135
0.0300389
0.0297652
0.0294923
0.0292199
0.0289483
0.028677
0.0284065
0.0281343
0.0278625
0.0275685
0.0272801
0.0964631
0.0768204
0.0636596
0.0543027
0.04737
0.0420684
0.0379089
0.0345748
0.031853
0.0295957
0.0276973
0.026081
0.0246895
0.0234793
0.0224167
0.0214757
0.0206356
0.0198801
0.019196
0.0185729
0.0180026
0.0174786
0.016996
0.0165511
0.0161412
0.015764
0.0154177
0.0150998
0.0148081
0.01454
0.0142939
0.0140687
0.013863
0.0136765
0.0135002
0.0133348
0.0131331
0.0136971
0.0373622
0.0863428
0.132821
0.154025
0.153666
0.140661
0.122944
0.105365
0.0900555
0.0775598
0.0677034
0.0600728
0.0542351
0.0498263
0.0465884
0.0444093
0.0429728
0.0420441
0.0414538
0.0410769
0.0408218
0.040624
0.0404402
0.0402436
0.0400201
0.0397637
0.0394736
0.0391525
0.0388041
0.038433
0.0380432
0.0376389
0.0372233
0.0367975
0.03636
0.0359155
0.035467
0.0350171
0.0345675
0.0341185
0.0336731
0.0332319
0.0327953
0.0323642
0.0319395
0.0315222
0.0311127
0.030712
0.0303179
0.0299337
0.0295355
0.0291584
0.0964622
0.0768184
0.0636564
0.0542982
0.047364
0.0420606
0.0378991
0.0345627
0.0318383
0.0295777
0.0276757
0.0260552
0.0246588
0.0234428
0.0223737
0.0214252
0.0205765
0.0198113
0.0191162
0.0184809
0.0178973
0.0173588
0.0168611
0.0164007
0.0159757
0.0155845
0.0152257
0.0148971
0.0145959
0.0143197
0.0140672
0.013841
0.013645
0.0134897
0.0133765
0.0133199
0.0132378
0.0138018
0.0363623
0.0844471
0.131123
0.152873
0.152803
0.140033
0.122528
0.105166
0.0900436
0.0776635
0.0678279
0.0601161
0.0541021
0.0494542
0.0460492
0.0436623
0.0420608
0.0410763
0.0405665
0.040401
0.0404613
0.0406454
0.0408721
0.0410826
0.0412384
0.0413181
0.041313
0.0412227
0.0410524
0.0408101
0.0405049
0.0401464
0.0397433
0.0393041
0.0388364
0.0383466
0.0378406
0.0373233
0.0367987
0.0362706
0.0357401
0.0352103
0.0346845
0.0341648
0.033653
0.0331508
0.0326596
0.0321813
0.0317141
0.0312624
0.0308012
0.0303721
0.0964616
0.076817
0.063654
0.0542946
0.0473589
0.0420539
0.0378904
0.0345517
0.0318244
0.0295607
0.027655
0.02603
0.0246285
0.0234066
0.0223305
0.0213739
0.0205159
0.0197398
0.0190324
0.0183831
0.0177838
0.0172282
0.0167122
0.0162331
0.0157899
0.0153821
0.0150094
0.0146695
0.0143587
0.0140741
0.0138159
0.0135929
0.0134217
0.0133404
0.0133861
0.0136274
0.0138505
0.0144364
0.0335188
0.0755242
0.117906
0.139738
0.14021
0.128498
0.112896
0.0978798
0.084996
0.0744447
0.065948
0.0590644
0.053391
0.0486893
0.0448162
0.0417839
0.0395356
0.0379885
0.0370731
0.0367044
0.036773
0.0371535
0.0377203
0.0383623
0.0389922
0.0395493
0.0399969
0.0403178
0.0405083
0.0405739
0.0405251
0.0403751
0.0401378
0.0398267
0.0394549
0.0390337
0.0385735
0.0380832
0.0375709
0.0370433
0.0365065
0.0359655
0.0354245
0.0348872
0.0343564
0.0338346
0.0333237
0.0328252
0.0323376
0.0318664
0.0313852
0.0309418
0.0964613
0.0768161
0.0636523
0.0542918
0.0473549
0.0420482
0.0378828
0.0345418
0.0318119
0.029545
0.0276355
0.0260061
0.0245994
0.0233713
0.022288
0.0213229
0.0204548
0.0196669
0.0189456
0.0182803
0.0176625
0.0170864
0.016548
0.0160458
0.01558
0.0151521
0.0147639
0.0144131
0.0140943
0.0138043
0.0135464
0.0133422
0.0132363
0.0133356
0.0137912
0.0148205
0.0156877
0.0161907
0.0170358
0.0203463
0.0269378
0.0345436
0.0418108
0.0477696
0.0513139
0.0526369
0.0522971
0.0509076
0.0489148
0.0465576
0.0440494
0.0414964
0.0389929
0.0366409
0.0345446
0.0328043
0.0315176
0.0308078
0.0306842
0.0310561
0.031802
0.0327842
0.0338695
0.0349462
0.0359338