/*--------------------------------*- C++ -*----------------------------------*\
| =========                 |                                                 |
| \\      /  F ield         | OpenFOAM: The Open Source CFD Toolbox           |
|  \\    /   O peration     | Version:  v2012                                 |
|   \\  /    A nd           | Website:  www.openfoam.com                      |
|    \\/     M anipulation  |                                                 |
\*---------------------------------------------------------------------------*/
FoamFile
{
    version     2.0;
    format      ascii;
    class       volScalarField;
    location    "200/air";
    object      GLeaf;
}
// * * * * * * * * * * * * * * * * * * * * * * * * * * * * * * * * * * * * * //

dimensions      [1 0 -3 0 0 0 0];


internalField   nonuniform List<scalar> 
287104
(
716.396
741.754
743.41
742.313
739.73
736.246
732.235
727.775
723.158
718.995
715.834
713.824
712.728
712.153
711.762
711.362
710.886
710.331
709.714
709.054
708.359
707.637
706.892
706.132
705.357
704.568
703.756
702.915
702.045
701.157
700.27
699.403
698.565
697.751
696.942
696.123
695.302
694.486
693.66
692.826
692.005
691.191
690.403
689.648
688.884
688.103
687.312
686.504
685.682
684.86
684.071
683.361
682.779
682.362
682.119
682.024
682.019
682.032
681.999
681.877
681.652
681.332
680.929
680.452
679.905
679.286
678.597
677.849
677.064
676.271
675.499
674.772
674.117
673.576
673.244
673.306
674.039
675.755
678.668
682.763
687.748
693.132
698.388
703.031
706.543
708.361
708.582
709.773
716.013
709.326
726.358
754.317
755.794
754.303
751.293
747.362
742.914
738.031
733.011
728.479
724.996
722.71
721.374
720.577
719.973
719.364
718.679
717.917
717.095
716.23
715.334
714.415
713.477
712.523
711.551
710.554
709.53
708.482
707.427
706.384
705.368
704.38
703.408
702.433
701.43
700.395
699.372
698.397
697.417
696.417
695.428
694.433
693.473
692.581
691.673
690.734
689.798
688.851
687.888
686.915
685.949
685.026
684.192
683.494
682.96
682.588
682.342
682.16
681.976
681.737
681.412
680.996
680.494
679.916
679.264
678.539
677.746
676.894
676.004
675.105
674.224
673.386
672.618
671.966
671.535
671.52
672.218
673.956
676.965
681.235
686.459
692.119
697.645
702.517
706.203
708.14
708.451
709.919
717.164
710.834
714.404
741.613
742.76
741.039
737.862
733.791
729.22
724.23
719.116
714.498
710.931
708.565
707.15
706.279
705.604
704.927
704.179
703.356
702.477
701.558
700.611
699.645
698.664
697.668
696.651
695.605
694.525
693.419
692.312
691.231
690.195
689.198
688.218
687.224
686.184
685.094
684.023
683.029
682.035
681.008
679.99
678.957
677.961
677.06
676.139
675.173
674.219
673.259
672.289
671.309
670.332
669.382
668.499
667.729
667.106
666.639
666.307
666.058
665.831
665.568
665.233
664.813
664.309
663.728
663.076
662.355
661.569
660.728
659.851
658.964
658.093
657.265
656.511
655.881
655.484
655.518
656.276
658.082
661.158
665.486
670.755
676.443
681.988
686.878
690.59
692.55
692.862
694.384
701.934
696.284
702.633
729.088
730.075
728.245
724.976
720.83
716.199
711.163
706.011
701.36
697.761
695.366
693.924
693.027
692.328
691.629
690.861
690.02
689.124
688.191
687.232
686.256
685.269
684.267
683.244
682.186
681.088
679.959
678.829
677.732
676.691
675.704
674.742
673.762
672.723
671.613
670.519
669.523
668.533
667.499
666.475
665.43
664.419
663.523
662.607
661.632
660.675
659.717
658.755
657.785
656.81
655.848
654.93
654.096
653.388
652.827
652.406
652.088
651.814
651.528
651.186
650.765
650.262
649.681
649.028
648.307
647.521
646.68
645.8
644.907
644.029
643.199
642.45
641.839
641.474
641.554
642.365
644.226
647.352
651.721
657.021
662.732
668.291
673.187
676.894
678.834
679.114
680.608
688.164
682.738
691.613
717.481
718.391
716.504
713.175
708.974
704.299
699.23
694.054
689.383
685.768
683.361
681.912
681.008
680.301
679.594
678.818
677.971
677.071
676.135
675.176
674.202
673.217
672.22
671.201
670.149
669.057
667.932
666.799
665.692
664.641
663.65
662.696
661.736
660.722
659.629
658.532
657.535
656.549
655.521
654.506
653.474
652.468
651.575
650.668
649.696
648.744
647.797
646.852
645.905
644.953
644.002
643.076
642.211
641.447
640.815
640.322
639.942
639.627
639.322
638.978
638.567
638.076
637.508
636.868
636.158
635.382
634.547
633.671
632.781
631.912
631.1
630.384
629.822
629.518
629.663
630.538
632.454
635.625
640.03
645.359
651.089
656.65
661.522
665.176
667.056
667.3
668.753
676.16
670.685
680.984
706.352
707.218
705.293
701.918
697.673
692.963
687.872
682.685
678.008
674.399
671.995
670.549
669.647
668.94
668.231
667.452
666.604
665.703
664.769
663.814
662.845
661.865
660.873
659.861
658.821
657.751
656.654
655.546
654.45
653.39
652.378
651.407
650.452
649.473
648.429
647.353
646.338
645.339
644.321
643.327
642.338
641.358
640.444
639.535
638.576
637.634
636.703
635.781
634.863
633.942
633.017
632.102
631.228
630.432
629.749
629.196
628.761
628.41
628.092
627.756
627.367
626.908
626.374
625.766
625.085
624.332
623.518
622.664
621.803
620.976
620.224
619.589
619.124
618.931
619.191
620.18
622.202
625.469
629.958
635.354
641.133
646.716
651.572
655.179
657.017
657.261
658.696
665.868
660.164
670.557
695.463
696.292
694.333
690.912
686.617
681.862
676.745
671.551
666.882
663.314
660.918
659.479
658.583
657.879
657.172
656.394
655.547
654.648
653.718
652.768
651.806
650.831
649.841
648.83
647.8
646.757
645.709
644.661
643.611
642.564
641.531
640.523
639.548
638.604
637.65
636.632
635.58
634.549
633.558
632.607
631.713
630.806
629.849
628.932
628.014
627.106
626.214
625.337
624.469
623.601
622.73
621.861
621.015
620.225
619.526
618.944
618.483
618.123
617.824
617.537
617.221
616.848
616.404
615.883
615.286
614.621
613.922
613.228
612.574
612.001
611.546
611.239
611.126
611.292
611.909
613.236
615.567
619.104
623.816
629.375
635.269
640.914
645.777
649.344
651.129
651.317
652.634
659.372
652.858
660.265
684.721
685.519
683.53
680.064
675.708
670.884
665.7
660.459
655.764
652.221
649.801
648.348
647.456
646.766
646.076
645.318
644.489
643.609
642.697
641.767
640.823
639.864
638.881
637.871
636.844
635.823
634.832
633.87
632.91
631.922
630.897
629.852
628.84
627.93
627.121
626.238
625.173
624.14
623.265
622.464
621.822
621.152
620.228
619.4
618.682
617.959
617.263
616.594
615.948
615.321
614.708
614.113
613.547
613.034
612.607
612.297
612.123
612.075
612.124
612.222
612.324
612.391
612.401
612.344
612.22
612.042
611.83
611.616
611.438
611.334
611.333
611.461
611.754
612.3
613.27
614.926
617.555
621.351
626.276
631.988
637.996
643.718
648.632
652.246
654.1
654.411
655.788
661.776
652.631
650.09
674.101
674.873
672.866
669.37
664.963
660.059
654.762
649.367
644.456
640.426
637.727
636.142
635.219
634.54
633.881
633.162
632.375
631.535
630.658
629.759
628.842
627.902
626.928
625.914
624.875
623.883
622.98
622.173
621.419
620.645
619.803
618.895
618.012
617.318
616.884
616.367
615.43
614.53
613.957
613.487
613.32
613.118
612.334
611.719
611.398
611.058
610.755
610.477
610.226
610.006
609.816
609.651
609.51
609.402
609.355
609.404
609.576
609.876
610.283
610.754
611.236
611.686
612.075
612.391
612.641
612.843
613.023
613.213
613.446
613.748
614.141
614.639
615.279
616.149
617.424
619.367
622.267
626.321
631.504
637.545
643.839
649.803
654.939
658.781
660.889
661.515
663.298
669.397
658.242
640.038
663.606
664.353
662.335
658.825
654.398
649.448
644.05
638.399
632.685
624.303
619.477
616.777
615.267
614.276
613.465
612.689
611.896
611.073
610.218
609.334
608.422
607.472
606.471
605.405
604.294
603.215
602.233
601.386
600.637
599.893
599.06
598.11
597.149
596.431
596.095
595.629
594.37
593.106
592.402
591.83
591.755
591.672
590.552
589.676
589.344
588.948
588.588
588.26
587.977
587.756
587.596
587.479
587.391
587.328
587.316
587.39
587.584
587.912
588.36
588.887
589.443
589.981
590.471
590.905
591.292
591.653
592.011
592.39
592.809
593.284
593.825
594.445
595.177
596.108
597.414
599.357
602.235
606.279
611.627
618.952
626.37
633.224
639.067
643.483
646.055
647.075
649.338
656.251
646.613
630.116
653.243
653.964
651.932
648.415
643.996
639.074
633.708
627.787
618.9
571.437
555.462
549.397
546.883
545.557
544.546
543.537
542.442
541.261
540.024
538.766
537.52
536.307
535.132
533.989
532.885
531.858
530.98
530.303
529.805
529.369
528.846
528.132
527.289
526.68
526.669
526.56
525.269
523.935
523.406
522.96
523.159
523.339
521.864
520.647
520.236
519.668
519.101
518.536
518.004
517.526
517.097
516.69
516.28
515.866
515.469
515.127
514.869
514.713
514.65
514.655
514.691
514.73
514.756
514.773
514.794
514.833
514.902
515.007
515.149
515.331
515.558
515.838
516.203
516.732
517.583
518.988
521.208
524.509
530.578
551.105
568.697
582.836
593.893
602.105
607.494
610.647
614.747
624.248
620.877
620.331
643.022
643.717
641.669
638.14
633.721
628.814
623.473
617.532
608.316
558.951
542.512
536.52
534.241
533.184
532.433
531.656
530.761
529.747
528.643
527.485
526.307
525.138
523.995
522.88
521.794
520.759
519.839
519.105
518.573
518.159
517.708
517.076
516.273
515.711
515.907
516.01
514.431
512.764
512.261
511.842
512.305
512.837
510.999
509.439
509.046
508.409
507.761
507.121
506.525
505.98
505.458
504.918
504.334
503.707
503.057
502.409
501.789
501.212
500.678
500.177
499.691
499.204
498.707
498.202
497.696
497.193
496.697
496.212
495.742
495.298
494.887
494.523
494.231
494.087
494.244
494.937
496.443
499.035
503.783
520.567
535.741
548.469
558.844
566.904
572.543
576.287
581.418
593.09
594.978
610.686
632.947
633.62
631.559
628.017
623.591
618.682
613.343
607.409
598.225
549.514
533.264
527.354
525.117
524.087
523.36
522.611
521.751
520.78
519.727
518.621
517.491
516.369
515.284
514.251
513.27
512.34
511.486
510.762
510.211
509.799
509.408
508.893
508.208
507.785
508.308
508.763
506.978
505.038
504.662
504.363
505.202
506.275
504.226
502.468
502.32
501.887
501.482
501.122
500.838
500.605
500.372
500.103
499.79
499.443
499.074
498.688
498.293
497.901
497.521
497.157
496.802
496.444
496.064
495.644
495.167
494.621
494.002
493.313
492.586
491.837
491.078
490.316
489.578
488.938
488.561
488.702
489.666
491.744
495.904
511.061
524.445
535.517
544.539
551.608
556.61
560.048
565.111
576.589
578.321
601.18
623.019
623.674
621.602
618.05
613.617
608.706
603.37
597.456
588.366
540.537
524.565
518.751
516.546
515.526
514.802
514.057
513.207
512.257
511.232
510.157
509.053
507.948
506.881
505.893
504.998
504.183
503.422
502.71
502.078
501.535
501.039
500.506
499.867
499.55
500.37
501.169
499.125
496.814
496.472
496.182
497.26
498.775
496.385
494.239
494.161
493.77
493.472
493.283
493.178
493.087
492.955
492.782
492.603
492.439
492.288
492.133
491.977
491.838
491.749
491.729
491.784
491.899
492.038
492.162
492.238
492.246
492.18
492.051
491.857
491.613
491.32
490.976
490.607
490.297
490.232
490.689
492.016
494.596
499.933
516.676
530.86
542.353
551.616
558.802
563.799
567.099
571.751
582.013
580.364
591.808
613.232
613.874
611.798
608.239
603.802
598.888
593.554
587.654
578.652
531.664
515.965
510.245
508.073
507.067
506.351
505.611
504.768
503.831
502.829
501.783
500.706
499.615
498.554
497.59
496.775
496.108
495.521
494.921
494.264
493.559
492.847
492.168
491.495
491.253
492.361
493.532
491.252
488.532
488.195
487.885
489.146
491.098
488.369
485.787
485.735
485.389
485.222
485.186
485.172
485.063
484.841
484.581
484.368
484.222
484.107
483.987
483.865
483.774
483.761
483.847
484.036
484.327
484.661
484.983
485.249
485.442
485.565
485.622
485.612
485.523
485.347
485.083
484.773
484.526
484.552
485.158
486.691
489.517
495.084
512.07
526.511
538.265
547.751
555.076
560.106
563.345
567.779
577.29
574.332
582.563
603.578
604.211
602.138
598.584
594.153
589.242
583.906
578.013
569.086
522.883
507.438
501.809
499.676
498.694
497.997
497.273
496.444
495.52
494.537
493.519
492.47
491.395
490.331
489.362
488.591
488.065
487.71
487.339
486.784
485.972
484.984
484.028
483.193
482.939
484.27
485.801
483.303
480.11
479.754
479.418
480.844
483.288
480.286
477.299
477.292
477.069
477.115
477.258
477.27
477.025
476.606
476.2
475.927
475.778
475.676
475.567
475.463
475.411
475.458
475.619
475.878
476.192
476.507
476.771
476.956
477.082
477.13
477.086
476.941
476.68
476.3
475.82
475.305
474.896
474.83
475.426
477.033
480.001
485.731
502.618
517.01
528.721
538.122
545.306
550.161
553.194
557.346
566.538
563.939
573.444
594.051
594.677
592.61
589.072
584.664
579.776
574.453
568.565
559.701
514.228
499.026
493.485
491.393
490.44
489.771
489.072
488.262
487.354
486.386
485.389
484.366
483.31
482.238
481.236
480.451
480.011
479.885
479.833
479.534
478.753
477.522
476.196
475.046
474.626
476.029
477.82
475.088
471.313
470.891
470.533
472.122
475.148
471.991
468.704
468.803
468.812
469.145
469.439
469.355
468.836
468.137
467.565
467.247
467.114
467.042
466.975
466.932
466.956
467.072
467.271
467.524
467.797
468.053
468.26
468.39
468.419
468.322
468.077
467.668
467.098
466.391
465.6
464.826
464.229
464.053
464.613
466.275
469.356
475.198
491.805
505.942
517.395
526.52
533.429
538.033
540.811
544.653
553.833
552.126
564.459
584.658
585.271
583.207
579.685
575.315
570.479
565.207
559.365
550.588
505.832
490.88
485.433
483.376
482.442
481.789
481.106
480.307
479.402
478.432
477.437
476.426
475.382
474.299
473.243
472.384
471.931
471.957
472.234
472.32
471.759
470.419
468.721
467.127
466.341
467.59
469.478
466.523
462.142
461.596
461.217
462.932
466.559
463.413
460.02
460.365
460.75
461.42
461.78
461.443
460.533
459.526
458.83
458.525
458.459
458.467
458.493
458.556
458.674
458.84
459.031
459.223
459.405
459.561
459.665
459.674
459.543
459.232
458.716
458.001
457.125
456.152
455.17
454.289
453.666
453.525
454.15
455.83
458.792
463.904
479.65
493.123
504.023
512.742
519.434
523.948
526.698
530.588
540.064
539.618
555.615
575.407
576.003
573.93
570.412
566.071
561.299
556.123
550.419
541.877
498.131
483.534
478.203
476.158
475.207
474.53
473.819
472.988
472.043
471.03
469.994
468.96
467.912
466.818
465.705
464.731
464.167
464.214
464.742
465.265
465.113
463.889
461.942
459.85
458.51
459.373
461.229
458.218
453.524
452.797
452.329
453.921
457.794
454.751
451.423
452.176
453.051
454.026
454.321
453.627
452.339
451.163
450.53
450.407
450.537
450.721
450.901
451.085
451.269
451.432
451.563
451.665
451.749
451.808
451.799
451.659
451.325
450.757
449.958
448.977
447.894
446.803
445.798
444.98
444.476
444.473
445.221
446.982
449.983
455.039
470.453
484.159
495.524
504.743
511.875
516.78
519.835
523.881
533.381
533.171
546.905
566.294
566.872
564.783
561.253
556.916
552.18
547.098
541.624
533.765
493.385
479.69
474.465
472.264
471.116
470.267
469.435
468.544
467.602
466.649
465.729
464.862
464.022
463.142
462.189
461.259
460.639
460.655
461.346
462.302
462.718
461.889
459.942
457.435
455.456
455.831
457.744
455.116
450.896
449.937
449.1
449.866
452.829
449.508
445.948
446.877
447.899
448.634
448.244
446.698
444.769
443.352
442.82
442.953
443.37
443.839
444.295
444.742
445.211
445.657
446.073
446.464
446.821
447.104
447.245
447.178
446.86
446.294
445.53
444.657
443.78
442.991
442.364
441.967
441.891
442.29
443.387
445.425
448.616
453.819
470.697
485.389
497.395
506.983
514.252
519.087
521.903
525.554
534.264
532.28
538.305
557.294
557.856
555.753
552.205
547.848
543.085
537.982
532.758
527.675
521.133
517.609
515.941
515.176
514.726
514.308
513.805
513.196
512.507
511.788
511.088
510.423
509.747
508.958
507.951
506.759
505.674
505.171
505.535
506.562
507.401
507.006
505.133
502.184
499.504
499.593
502.256
500.989
498.845
498.195
497.04
496.446
497.287
493.336
489.261
490.482
491.686
491.994
490.628
488.042
485.444
483.723
483.006
482.888
482.921
482.913
482.875
482.861
482.831
482.794
482.783
482.789
482.773
482.691
482.492
482.153
481.674
481.089
480.471
479.908
479.482
479.252
479.251
479.506
480.081
481.119
482.853
485.556
489.433
494.587
501.44
508.511
515.172
520.99
525.529
528.308
529.473
531.574
538.265
532.968
529.781
548.372
548.918
546.804
543.242
538.87
534.091
528.971
523.785
519.1
515.4
512.982
511.611
510.828
510.26
509.691
509.035
508.283
507.47
506.657
505.908
505.253
504.66
504.012
503.152
502.012
500.794
499.989
500.082
501.144
502.464
502.813
501.551
498.799
496.092
496.605
500.843
501.666
502.791
502.756
501.067
498.429
495.687
490.489
485.304
486.553
487.823
487.726
485.737
482.789
480.343
479.213
479.192
479.602
479.936
480.068
480.083
480.088
480.137
480.234
480.358
480.464
480.495
480.411
480.201
479.871
479.463
479.044
478.688
478.457
478.394
478.515
478.818
479.289
479.986
481.054
482.739
485.331
489.035
493.856
499.529
505.518
511.274
516.317
520.157
522.277
522.795
524.209
530.131
524.486
521.307
539.501
540.032
537.904
534.33
529.949
525.166
520.049
514.877
510.256
506.803
504.516
503.189
502.42
501.856
501.287
500.623
499.849
498.998
498.138
497.349
496.682
496.129
495.589
494.878
493.837
492.537
491.385
490.998
491.735
493.147
493.998
493.333
491.048
488.919
490.72
497.425
500.544
505.211
506.179
503.818
498.807
491.922
484.723
477.3
477.679
478.41
477.54
474.794
471.577
469.416
468.749
468.97
469.274
469.28
469.034
468.722
468.458
468.246
468.028
467.725
467.297
466.714
465.991
465.198
464.408
463.689
463.087
462.627
462.318
462.159
462.141
462.255
462.523
462.999
463.83
465.263
467.597
471.046
475.603
480.965
486.673
492.195
497.038
500.698
502.656
503.03
504.319
510.52
507.044
512.875
530.671
531.189
529.048
525.459
521.069
516.281
511.163
505.994
501.378
497.89
495.608
494.294
493.543
493.002
492.458
491.815
491.049
490.184
489.289
488.453
487.754
487.216
486.779
486.271
485.471
484.307
483.001
482.19
482.442
483.625
484.657
484.427
482.79
481.888
485.878
495.7
500.75
508.989
511.541
508.483
500.982
489.936
480.539
470.049
468.83
468.823
467.483
464.594
461.772
460.323
460.196
460.512
460.57
460.257
459.803
459.409
459.101
458.783
458.339
457.692
456.841
455.83
454.748
453.718
452.818
452.082
451.506
451.064
450.726
450.475
450.304
450.208
450.204
450.396
450.953
452.152
454.305
457.639
462.156
467.565
473.397
479.115
484.222
488.211
490.561
491.385
493.166
499.832
497.121
504.491
521.89
522.395
520.242
516.641
512.241
507.447
502.328
497.16
492.547
489.036
486.752
485.445
484.707
484.187
483.673
483.065
482.329
481.475
480.561
479.679
478.924
478.356
477.97
477.651
477.16
476.318
475.146
474.136
473.94
474.698
475.554
475.424
474.288
474.768
481.241
494.187
500.412
511.418
516.409
512.493
501.847
487.781
476.861
463.387
460.5
460.011
458.764
456.413
454.468
453.821
454.034
454.249
454.09
453.72
453.408
453.217
453.017
452.639
452.002
451.12
450.098
449.047
448.067
447.271
446.684
446.281
446.014
445.842
445.724
445.665
445.701
445.84
446.108
446.558
447.368
448.816
451.218
454.798
459.558
465.216
471.29
477.246
482.585
486.791
489.32
490.258
492.023
498.321
494.325
496.191
513.195
513.689
511.525
507.913
503.504
498.706
493.586
488.419
483.809
480.293
478.01
476.706
475.974
475.468
474.98
474.413
473.724
472.905
471.997
471.083
470.265
469.623
469.201
468.957
468.694
468.196
467.425
466.568
466.211
466.657
467.177
466.884
465.864
467.127
475.349
490.735
497.554
518.42
526.949
521.927
506.762
483.312
472.372
457.439
454.225
454.306
454.107
452.984
452.193
452.248
452.617
452.759
452.668
452.597
452.642
452.659
452.431
451.861
451.008
450.013
449.052
448.23
447.586
447.176
446.968
446.916
446.958
447.081
447.264
447.471
447.677
447.901
448.184
448.629
449.417
450.82
453.151
456.64
461.324
466.908
472.905
478.778
484.026
488.118
490.492
491.205
492.611
498.121
492.343
488.076
504.692
505.175
503
499.378
494.963
490.161
485.04
479.875
475.268
471.755
469.474
468.171
467.441
466.943
466.478
465.954
465.324
464.565
463.694
462.782
461.922
461.188
460.628
460.262
459.983
459.6
459.312
458.913
458.817
459.349
459.68
459.29
458.151
459.253
467.74
484.533
491.379
504.634
516.033
509.611
489.718
474.642
465.171
450.362
448.174
449.036
449.542
449.15
448.849
448.944
449.111
449.212
449.389
449.711
450.005
450.017
449.623
448.907
448.071
447.301
446.738
446.403
446.237
446.266
446.429
446.687
446.994
447.269
447.507
447.732
447.941
448.148
448.399
448.796
449.526
450.868
453.125
456.51
461.014
466.363
472.091
477.679
482.63
486.408
488.447
488.806
489.792
494.658
487.884
480.361
496.604
497.077
494.891
491.258
486.836
482.03
476.907
471.741
467.135
463.624
461.345
460.043
459.316
458.826
458.382
457.899
457.332
456.647
455.842
454.967
454.098
453.273
452.499
451.813
451.253
450.652
450.647
450.758
451.188
452.174
452.649
452.596
451.717
452.349
459.86
477.444
486.044
554.172
564.455
555.127
531.064
462.134
453.324
439.721
439.644
441.181
441.986
441.904
441.828
441.998
442.311
442.762
443.374
443.95
444.194
443.97
443.381
442.68
442.093
441.742
441.696
441.879
442.164
442.57
443.04
443.524
443.978
444.378
444.7
444.937
445.099
445.22
445.362
445.641
446.254
447.474
449.602
452.841
457.183
462.357
467.904
473.31
478.076
481.666
483.522
483.705
484.477
488.975
481.81
473.386
489.292
489.756
487.559
483.917
479.488
474.676
469.546
464.374
459.761
456.244
453.959
452.654
451.925
451.441
451.014
450.566
450.06
449.46
448.746
447.942
447.094
446.197
445.209
444.17
443.327
442.493
442.401
442.731
443.457
444.693
445.495
446.3
446.761
448.051
454.709
473.394
481.384
468.534
472.784
465.322
447.569
452.86
446.812
434.236
435.493
436.246
436.505
436.462
436.583
436.903
437.375
437.959
438.475
438.681
438.412
437.793
437.081
436.534
436.292
436.343
436.65
437.106
437.574
438.099
438.637
439.158
439.62
439.988
440.246
440.397
440.468
440.507
440.588
440.824
441.406
442.599
444.688
447.873
452.139
457.22
462.664
467.963
472.625
476.121
477.9
478.023
478.7
482.991
475.71
467.557
483.184
483.646
481.448
477.806
473.381
468.574
463.447
458.273
453.653
450.124
447.823
446.5
445.755
445.255
444.819
444.378
443.906
443.377
442.759
442.039
441.219
440.288
439.234
438.152
437.527
437.193
436.809
436.881
437.11
437.484
438.401
440.344
443.402
447.296
453.952
472.757
475.754
239.72
243.186
242.008
236.274
453.619
451.118
437.361
436.747
433.905
432.444
432.288
432.753
433.276
433.727
434.078
434.226
434.03
433.518
432.881
432.345
432.067
432.085
432.325
432.748
433.263
433.733
434.223
434.688
435.1
435.435
435.678
435.83
435.904
435.929
435.946
436.019
436.259
436.845
438.032
440.1
443.242
447.448
452.456
457.823
463.051
467.656
471.112
472.871
472.978
473.608
477.771
470.47
463.224
478.643
479.11
476.922
473.301
468.908
464.14
459.056
453.923
449.337
445.832
443.543
442.217
441.453
440.921
440.439
439.95
439.446
438.922
438.342
437.651
436.815
435.915
435.138
434.711
435.197
436.755
436.288
435.756
434.513
432.336
432.848
435.895
442.446
450.58
458.055
476.222
474.323
52.8122
55.3072
60.2716
66.0058
460.405
461.057
444.833
440.168
432.3
428.743
428.397
428.996
429.329
429.392
429.414
429.462
429.469
429.401
429.311
429.283
429.388
429.643
429.992
430.434
430.903
431.255
431.574
431.826
432.006
432.121
432.182
432.204
432.201
432.195
432.215
432.312
432.579
433.186
434.382
436.443
439.562
443.731
448.697
454.025
459.225
463.815
467.269
469.031
469.138
469.744
473.836
466.552
460.541
475.819
476.283
474.099
470.5
466.15
461.448
456.45
451.418
446.944
443.554
441.372
440.138
439.44
438.939
438.45
437.919
437.356
436.775
436.141
435.364
434.445
433.724
433.778
434.949
437.319
441.977
441.873
440.597
437.182
430.976
430.396
434.187
444.461
457.411
466.191
483.966
479.293
-22.8622
-22.1794
-13.4053
0.274108
473.799
474.577
454.707
445.707
432.785
426.588
425.082
424.868
424.433
424.053
424.205
424.899
425.842
426.739
427.455
428
428.43
428.83
429.17
429.49
429.749
429.819
429.824
429.769
429.692
429.625
429.59
429.589
429.613
429.657
429.727
429.857
430.137
430.735
431.904
433.931
437.015
441.158
446.108
451.433
456.642
461.25
464.725
466.504
466.621
467.228
471.306
464.075
459.389
474.579
475.014
472.801
469.18
464.823
460.138
455.186
450.236
445.877
442.635
440.629
439.586
439.08
438.756
438.412
437.988
437.496
436.949
436.29
435.425
434.516
434.4
436.14
439.957
444.438
452.338
452.952
450.769
444.819
434.002
431.498
435.928
449.348
466.732
477.151
497.602
491.827
-36.9876
-42.8269
-33.8795
-14.9761
498.825
496.252
469.587
456.28
437.616
427.063
422.724
420.968
419.962
419.783
420.662
422.271
424.034
425.535
426.622
427.372
427.004
427.421
427.686
427.844
427.884
427.735
427.56
427.407
427.326
427.348
427.465
427.641
427.834
428.011
428.17
428.347
428.638
429.225
430.377
432.39
435.474
439.628
444.602
449.955
455.193
459.826
463.322
465.115
465.243
465.87
469.986
462.853
459.377
474.536
474.93
472.657
468.962
464.52
459.745
454.709
449.692
445.295
442.054
440.096
439.15
438.789
438.646
438.51
438.308
438.042
437.695
437.161
436.369
435.81
437.033
441.551
449.059
455.517
466.578
468.442
465.155
456.325
440.719
435.326
437.559
452.105
472.561
485.415
514.629
513.565
-11.8878
-21.9111
-16.8277
1.1293
524.964
519.614
483.062
466.274
442.094
426.925
419.925
417.354
416.524
416.802
417.97
419.499
420.874
421.909
422.668
423.256
422.796
423.163
423.357
423.45
423.524
423.535
423.627
423.834
424.171
424.623
425.139
425.652
426.1
426.454
426.724
426.964
427.29
427.903
429.084
431.139
434.279
438.504
443.55
448.972
454.268
458.949
462.484
464.314
464.48
465.161
469.376
462.423
459.963
475.15
475.525
473.217
469.463
464.935
460.041
454.857
449.665
445.078
441.644
439.502
438.4
437.92
437.705
437.548
437.379
437.193
436.937
436.438
435.677
435.581
438.517
446.333
457.966
466.097
479.687
484.048
479.784
467.622
448.699
440.407
438.481
450.837
471.332
488.469
539.122
538.164
-17.1829
-34.5744
-30.1298
-4.59833
557.334
555.033
493.473
469.996
441.6
423.566
415.276
412.394
411.346
411.336
412.022
412.912
413.712
414.419
415.122
415.819
415.583
416.202
416.708
417.18
417.666
418.135
418.721
419.435
420.257
421.132
421.982
422.742
423.371
423.887
424.303
424.675
425.127
425.863
427.173
429.363
432.645
437.009
442.187
447.725
453.119
457.882
461.493
463.396
463.637
464.413
468.791
462.141
460.625
475.868
476.261
473.974
470.237
465.713
460.804
455.576
450.307
445.604
442.015
439.685
438.365
437.65
437.191
436.791
436.388
435.978
435.478
434.665
433.553
433.425
437.311
447.34
461.983
471.16
494.384
502.557
497.395
480.855
452.712
443.278
437.935
446.505
462.614
481.734
582.376
576.418
59.1715
37.3989
40.6671
69.9657
608.114
614.005
493.414
462.164
431.107
417.84
417.935
418.847
419.136
419.359
420.148
420.976
421.703
422.659
423.713
424.614
424.355
424.716
424.816
424.816
424.739
424.449
424.208
424.068
424.047
424.117
424.221
424.298
424.314
424.273
424.206
424.187
424.347
424.875
426.046
428.158
431.403
435.761
440.95
446.51
451.941
456.751
460.417
462.387
462.706
463.582
468.132
461.814
461.029
476.307
476.722
474.47
470.783
466.322
461.485
456.333
451.137
446.496
442.951
440.639
439.309
438.551
438.016
437.507
436.959
436.363
435.628
434.502
432.97
432.365
435.919
446.051
461.58
470.868
486.864
498.116
491.709
470.005
448.693
439.187
432.04
437.897
446.158
431.984
445.468
458.411
443.561
433.002
429.917
430.603
431.605
432.248
432.812
433.473
434.25
435.195
436.042
436.494
435.7
435.753
435.634
435.567
435.618
435.284
434.963
434.65
434.376
434.117
433.812
433.406
432.88
432.251
431.572
430.918
430.426
430.326
430.918
432.503
435.279
439.224
444.056
449.312
454.477
459.057
462.527
464.336
464.528
465.31
469.797
463.31
461.082
476.353
476.764
474.513
470.84
466.404
461.607
456.509
451.379
446.817
443.359
441.138
439.9
439.232
438.782
438.348
437.858
437.3
436.594
435.509
433.948
432.908
435.199
443.513
458.104
469.484
543.853
556.076
547.905
521.674
442.932
433.679
428.488
436.606
448.047
431.826
447.118
465.71
451.166
440.473
436.955
437.328
438.375
439.095
439.572
440.001
440.462
441.031
441.368
441.37
440.088
439.984
439.891
440.053
440.587
440.567
440.574
440.511
440.456
440.402
440.281
440.035
439.642
439.121
438.513
437.895
437.407
437.271
437.786
439.26
441.901
445.694
450.359
455.433
460.4
464.771
468.031
469.631
469.621
470.202
474.426
467.176
460.859
476.103
476.494
474.221
470.523
466.064
461.247
456.133
450.995
446.431
442.978
440.773
439.558
438.921
438.509
438.118
437.671
437.151
436.512
435.583
434.197
432.823
433.378
438.606
450.674
461.712
463.307
469.476
462.224
441.635
432.456
425.945
423.984
434.522
448.374
432.862
446.724
464.847
450.93
441.2
438.259
438.68
439.707
440.468
441.047
441.591
442.123
442.561
442.589
442.414
441.015
440.834
440.831
441.147
441.957
442.31
442.711
442.954
443.144
443.305
443.386
443.339
443.147
442.82
442.393
441.939
441.596
441.585
442.202
443.758
446.46
450.295
454.989
460.077
465.044
469.394
472.608
474.141
474.047
474.518
478.537
470.593
460.514
475.733
476.11
473.816
470.092
465.601
460.748
455.598
450.426
445.832
442.356
440.136
438.916
438.284
437.886
437.514
437.086
436.58
435.971
435.17
434.016
432.541
431.61
433.381
440.71
445.121
226.307
229.531
227.915
220.062
423.858
422.253
422.906
433.985
448.766
434.183
445.962
462.726
449.407
441.269
439.186
439.748
440.553
441.084
441.584
442.19
442.85
443.279
443.334
443.501
442.781
442.536
442.445
442.394
442.51
442.953
443.521
443.967
444.303
444.547
444.698
444.742
444.668
444.476
444.192
443.886
443.693
443.832
444.595
446.286
449.11
453.053
457.839
463.005
468.031
472.418
475.641
477.155
477.022
477.435
481.329
472.934
460.186
475.398
475.775
473.478
469.743
465.235
460.356
455.174
449.962
445.326
441.809
439.551
438.303
437.654
437.251
436.887
436.473
435.98
435.393
434.676
433.743
432.461
430.901
429.991
431.365
425.705
14.116
13.8211
18.2045
24.5467
415.722
421.101
423.543
432.775
446.841
434.274
443.721
458.994
447.059
441.254
440.549
441.414
441.976
442.126
442.327
442.811
443.51
444.181
444.933
446.277
447.512
447.386
446.971
445.805
443.731
443.645
443.835
444.297
444.702
444.952
445.095
445.141
445.099
444.97
444.771
444.563
444.47
444.705
445.555
447.322
450.212
454.213
459.052
464.264
469.33
473.741
476.97
478.472
478.318
478.703
482.556
474.001
459.969
475.187
475.581
473.302
469.586
465.095
460.229
455.051
449.832
445.175
441.625
439.324
438.025
437.321
436.863
436.445
435.981
435.442
434.815
434.088
433.236
432.193
430.822
429.003
425.703
409.788
-97.6388
-102.854
-94.8273
-76.6252
409.422
420.998
422.995
427.579
438.486
429.522
439.754