/*--------------------------------*- C++ -*----------------------------------*\
| =========                 |                                                 |
| \\      /  F ield         | OpenFOAM: The Open Source CFD Toolbox           |
|  \\    /   O peration     | Version:  v2012                                 |
|   \\  /    A nd           | Website:  www.openfoam.com                      |
|    \\/     M anipulation  |                                                 |
\*---------------------------------------------------------------------------*/
FoamFile
{
    version     2.0;
    format      ascii;
    class       volScalarField;
    location    "200/air";
    object      ILambda_47_0;
}
// * * * * * * * * * * * * * * * * * * * * * * * * * * * * * * * * * * * * * //

dimensions      [1 0 -3 0 0 0 0];


internalField   nonuniform List<scalar> 
287104
(
166.893
167.096
167.277
167.448
167.612
167.768
167.916
168.058
168.194
168.325
168.452
168.575
168.694
168.811
168.925
169.036
169.146
169.253
169.358
169.462
169.563
169.663
169.762
169.859
169.955
170.05
170.144
170.236
170.328
170.418
170.508
170.596
170.684
170.772
170.858
170.944
171.029
171.114
171.198
171.282
171.366
171.449
171.532
171.615
171.698
171.781
171.864
171.947
172.03
172.112
172.195
172.278
172.361
172.444
172.527
172.61
172.692
172.774
172.856
172.936
173.016
173.095
173.173
173.25
173.325
173.398
173.47
173.539
173.607
173.672
173.736
173.798
173.857
173.915
173.971
174.026
174.079
174.132
174.184
174.236
174.289
174.343
174.398
174.456
174.516
174.578
174.622
174.576
174.602
176.988
166.686
166.687
166.689
166.696
166.706
166.718
166.732
166.748
166.766
166.785
166.805
166.825
166.847
166.869
166.892
166.915
166.939
166.963
166.987
167.012
167.037
167.062
167.087
167.113
167.139
167.164
167.19
167.216
167.242
167.268
167.295
167.321
167.347
167.374
167.401
167.427
167.454
167.482
167.509
167.536
167.564
167.592
167.62
167.648
167.677
167.705
167.734
167.763
167.791
167.82
167.849
167.877
167.905
167.933
167.961
167.989
168.016
168.042
168.068
168.094
168.119
168.144
168.168
168.192
168.215
168.238
168.26
168.283
168.305
168.327
168.349
168.371
168.392
168.414
168.436
168.458
168.48
168.502
168.525
168.547
168.57
168.592
168.615
168.64
168.666
168.681
168.627
168.445
168.826
173.789
166.693
166.691
166.687
166.686
166.685
166.685
166.687
166.689
166.692
166.696
166.701
166.706
166.712
166.718
166.724
166.732
166.739
166.747
166.755
166.764
166.773
166.782
166.791
166.801
166.811
166.821
166.831
166.842
166.853
166.863
166.875
166.886
166.897
166.909
166.921
166.933
166.945
166.957
166.97
166.983
166.995
167.008
167.021
167.034
167.047
167.059
167.072
167.085
167.097
167.109
167.121
167.133
167.144
167.155
167.166
167.177
167.187
167.198
167.207
167.217
167.227
167.236
167.245
167.254
167.263
167.272
167.28
167.289
167.298
167.306
167.315
167.324
167.332
167.341
167.349
167.358
167.366
167.375
167.383
167.392
167.4
167.409
167.417
167.426
167.431
167.413
167.323
167.2
167.928
173.412
166.71
166.719
166.725
166.731
166.736
166.742
166.747
166.753
166.758
166.764
166.77
166.776
166.782
166.788
166.794
166.8
166.807
166.813
166.82
166.827
166.834
166.841
166.848
166.855
166.862
166.87
166.877
166.885
166.893
166.9
166.908
166.917
166.925
166.933
166.942
166.95
166.959
166.968
166.976
166.985
166.994
167.003
167.012
167.021
167.029
167.038
167.046
167.055
167.063
167.071
167.079
167.087
167.094
167.102
167.109
167.116
167.124
167.13
167.137
167.144
167.15
167.157
167.163
167.169
167.175
167.181
167.187
167.193
167.199
167.204
167.21
167.215
167.22
167.225
167.23
167.234
167.239
167.243
167.247
167.251
167.255
167.26
167.264
167.266
167.26
167.231
167.164
167.143
168
173.329
166.716
166.728
166.735
166.743
166.751
166.758
166.765
166.773
166.78
166.787
166.793
166.8
166.807
166.814
166.821
166.827
166.834
166.841
166.847
166.854
166.861
166.867
166.874
166.881
166.888
166.894
166.901
166.908
166.915
166.922
166.929
166.936
166.943
166.95
166.957
166.964
166.971
166.978
166.986
166.993
167
167.007
167.015
167.022
167.029
167.036
167.043
167.05
167.057
167.064
167.071
167.078
167.084
167.091
167.097
167.104
167.11
167.116
167.123
167.129
167.135
167.14
167.146
167.152
167.157
167.162
167.167
167.173
167.177
167.182
167.187
167.191
167.195
167.199
167.203
167.207
167.21
167.213
167.216
167.22
167.223
167.226
167.228
167.227
167.218
167.196
167.164
167.202
168.048
173.15
166.719
166.731
166.738
166.746
166.753
166.761
166.769
166.776
166.783
166.791
166.798
166.805
166.812
166.819
166.826
166.833
166.84
166.846
166.853
166.86
166.866
166.873
166.88
166.886
166.893
166.899
166.906
166.912
166.919
166.925
166.931
166.938
166.944
166.951
166.957
166.964
166.97
166.977
166.983
166.99
166.996
167.003
167.009
167.016
167.022
167.029
167.036
167.042
167.048
167.055
167.061
167.068
167.074
167.08
167.086
167.092
167.098
167.104
167.11
167.115
167.121
167.126
167.131
167.136
167.141
167.146
167.151
167.155
167.16
167.164
167.168
167.172
167.175
167.179
167.182
167.185
167.188
167.191
167.194
167.196
167.199
167.202
167.203
167.201
167.193
167.182
167.174
167.226
168.017
172.909
166.722
166.734
166.741
166.749
166.756
166.764
166.771
166.779
166.786
166.793
166.8
166.807
166.815
166.822
166.829
166.835
166.842
166.849
166.856
166.863
166.869
166.876
166.882
166.889
166.895
166.902
166.908
166.914
166.92
166.927
166.933
166.939
166.945
166.952
166.958
166.964
166.97
166.977
166.983
166.989
166.996
167.002
167.009
167.015
167.021
167.028
167.034
167.04
167.047
167.053
167.059
167.065
167.071
167.077
167.083
167.088
167.094
167.1
167.105
167.11
167.115
167.12
167.125
167.13
167.134
167.139
167.143
167.147
167.151
167.154
167.158
167.161
167.164
167.167
167.17
167.173
167.175
167.178
167.18
167.183
167.185
167.187
167.188
167.185
167.18
167.177
167.178
167.226
167.959
172.575
166.726
166.737
166.744
166.752
166.759
166.767
166.774
166.781
166.789
166.796
166.803
166.81
166.817
166.824
166.831
166.838
166.845
166.851
166.858
166.865
166.871
166.878
166.884
166.891
166.897
166.903
166.91
166.916
166.922
166.928
166.935
166.941
166.947
166.953
166.959
166.966
166.972
166.978
166.985
166.991
166.997
167.004
167.01
167.016
167.023
167.029
167.035
167.041
167.047
167.053
167.059
167.065
167.071
167.077
167.082
167.087
167.093
167.098
167.103
167.108
167.112
167.117
167.121
167.125
167.129
167.133
167.137
167.14
167.144
167.147
167.15
167.153
167.156
167.158
167.161
167.163
167.165
167.167
167.169
167.171
167.173
167.175
167.174
167.171
167.168
167.168
167.173
167.222
167.89
171.995
166.729
166.74
166.747
166.755
166.762
166.77
166.777
166.784
166.791
166.799
166.806
166.813
166.82
166.827
166.833
166.84
166.847
166.854
166.86
166.867
166.873
166.88
166.886
166.892
166.899
166.905
166.911
166.917
166.924
166.93
166.936
166.942
166.948
166.954
166.961
166.967
166.973
166.98
166.986
166.992
166.999
167.005
167.011
167.017
167.024
167.03
167.036
167.042
167.048
167.053
167.059
167.065
167.07
167.075
167.08
167.085
167.09
167.095
167.099
167.104
167.108
167.112
167.116
167.12
167.123
167.127
167.13
167.133
167.136
167.139
167.141
167.144
167.146
167.148
167.15
167.152
167.154
167.156
167.157
167.159
167.161
167.161
167.159
167.155
167.151
167.152
167.162
167.223
167.815
171.207
166.733
166.744
166.751
166.758
166.766
166.773
166.78
166.787
166.794
166.801
166.808
166.815
166.822
166.829
166.836
166.843
166.85
166.857
166.863
166.87
166.876
166.883
166.889
166.896
166.902
166.908
166.915
166.921
166.927
166.934
166.94
166.946
166.953
166.959
166.966
166.972
166.979
166.985
166.992
166.998
167.005
167.011
167.018
167.024
167.03
167.037
167.043
167.049
167.054
167.06
167.066
167.071
167.076
167.082
167.086
167.091
167.096
167.1
167.104
167.109
167.112
167.116
167.12
167.123
167.126
167.13
167.132
167.135
167.138
167.14
167.142
167.145
167.147
167.148
167.15
167.152
167.153
167.155
167.157
167.159
167.159
167.158
167.155
167.149
167.144
167.144
167.149
167.19
167.723
171.107
166.736
166.747
166.754
166.762
166.769
166.776
166.783
166.79
166.798
166.805
166.813
166.821
166.829
166.837
166.845
166.853
166.861
166.868
166.876
166.883
166.891
166.898
166.905
166.912
166.919
166.925
166.932
166.939
166.946
166.953
166.959
166.966
166.973
166.98
166.987
166.994
167.001
167.009
167.016
167.023
167.03
167.037
167.044
167.051
167.058
167.064
167.071
167.077
167.084
167.09
167.096
167.101
167.107
167.112
167.117
167.122
167.127
167.131
167.135
167.14
167.143
167.147
167.151
167.154
167.157
167.16
167.163
167.166
167.168
167.17
167.173
167.175
167.177
167.178
167.18
167.182
167.183
167.185
167.187
167.188
167.186
167.183
167.177
167.17
167.163
167.152
167.12
167.118
167.848
172.254
166.74
166.751
166.757
166.765
166.772
166.779
166.787
166.794
166.801
166.808
166.816
166.825
166.833
166.841
166.85
166.858
166.866
166.874
166.881
166.889
166.897
166.904
166.912
166.919
166.926
166.933
166.94
166.948
166.955
166.962
166.969
166.977
166.984
166.992
166.999
167.007
167.015
167.022
167.03
167.038
167.046
167.053
167.061
167.069
167.076
167.083
167.091
167.098
167.105
167.112
167.119
167.125
167.132
167.138
167.144
167.15
167.155
167.161
167.166
167.171
167.175
167.18
167.184
167.188
167.192
167.196
167.2
167.203
167.206
167.21
167.212
167.215
167.218
167.22
167.223
167.225
167.228
167.23
167.232
167.232
167.23
167.225
167.218
167.21
167.199
167.167
167.087
167.127
168.393
174.169
166.743
166.754
166.761
166.768
166.776
166.783
166.79
166.797
166.804
166.811
166.819
166.828
166.836
166.844
166.852
166.86
166.868
166.876
166.884
166.892
166.899
166.907
166.914
166.922
166.929
166.936
166.944
166.951
166.958
166.966
166.973
166.981
166.989
166.997
167.004
167.012
167.02
167.028
167.036
167.044
167.051
167.059
167.067
167.075
167.082
167.09
167.097
167.105
167.112
167.119
167.126
167.133
167.139
167.146
167.152
167.158
167.164
167.17
167.176
167.181
167.186
167.191
167.196
167.201
167.206
167.21
167.214
167.218
167.222
167.226
167.23
167.233
167.236
167.239
167.242
167.245
167.248
167.251
167.253
167.252
167.249
167.243
167.235
167.225
167.208
167.16
167.083
167.265
168.89
174.734
166.747
166.758
166.764
166.772
166.779
166.786
166.793
166.8
166.807
166.814
166.822
166.831
166.839
166.847
166.855
166.863
166.871
166.879
166.886
166.894
166.902
166.909
166.917
166.924
166.931
166.939
166.946
166.954
166.961
166.969
166.977
166.984
166.992
167
167.008
167.016
167.024
167.031
167.039
167.047
167.055
167.062
167.07
167.078
167.085
167.092
167.099
167.107
167.114
167.12
167.127
167.134
167.14
167.146
167.152
167.158
167.163
167.169
167.174
167.179
167.184
167.189
167.193
167.198
167.202
167.206
167.209
167.213
167.216
167.22
167.223
167.226
167.228
167.231
167.233
167.236
167.238
167.24
167.24
167.237
167.232
167.223
167.213
167.201
167.18
167.132
167.091
167.358
168.91
173.856
166.75
166.761
166.768
166.775
166.782
166.789
166.796
166.803
166.81
166.817
166.825
166.833
166.841
166.849
166.857
166.865
166.873
166.881
166.889
166.896
166.904
166.912
166.919
166.927
166.934
166.942
166.95
166.957
166.965
166.973
166.981
166.988
166.996
167.004
167.012
167.02
167.028
167.035
167.043
167.051
167.058
167.066
167.073
167.081
167.088
167.095
167.102
167.109
167.115
167.122
167.128
167.134
167.14
167.146
167.151
167.157
167.162
167.167
167.171
167.176
167.18
167.184
167.188
167.192
167.195
167.198
167.201
167.204
167.207
167.209
167.211
167.214
167.215
167.217
167.219
167.221
167.222
167.222
167.221
167.216
167.208
167.198
167.186
167.173
167.151
167.111
167.092
167.342
168.677
173.168
166.754
166.765
166.771
166.779
166.786
166.793
166.8
166.806
166.813
166.82
166.828
166.836
166.844
166.852
166.86
166.868
166.875
166.883
166.891
166.899
166.907
166.914
166.922
166.93
166.938
166.946
166.953
166.961
166.969
166.977
166.985
166.993
167.001
167.009
167.016
167.024
167.032
167.04
167.047
167.055
167.063
167.07
167.077
167.085
167.092
167.098
167.105
167.112
167.118
167.124
167.13
167.136
167.142
167.147
167.152
167.157
167.162
167.166
167.17
167.174
167.178
167.182
167.185
167.188
167.191
167.194
167.196
167.199
167.201
167.202
167.204
167.205
167.207
167.208
167.21
167.21
167.211
167.209
167.206
167.2
167.19
167.178
167.165
167.151
167.131
167.098
167.081
167.285
168.486
172.897
166.757
166.768
166.774
166.782
166.789
166.796
166.803
166.809
166.816
166.823
166.831
166.838
166.846
166.854
166.862
166.87
166.878
166.886
166.894
166.902
166.91
166.918
166.926
166.933
166.941
166.949
166.957
166.965
166.973
166.981
166.989
166.997
167.005
167.013
167.021
167.029
167.037
167.044
167.052
167.06
167.067
167.074
167.082
167.089
167.096
167.102
167.109
167.115
167.121
167.127
167.133
167.139
167.144
167.149
167.154
167.159
167.163
167.167
167.171
167.175
167.178
167.181
167.184
167.187
167.189
167.192
167.194
167.196
167.197
167.199
167.2
167.201
167.202
167.203
167.204
167.204
167.203
167.201
167.196
167.188
167.177
167.164
167.15
167.137
167.119
167.088
167.065
167.238
168.393
172.864
166.76
166.771
166.778
166.785
166.792
166.799
166.805
166.812
166.819
166.825
166.833
166.841
166.849
166.857
166.864
166.872
166.88
166.888
166.897
166.905
166.913
166.921
166.929
166.937
166.945
166.953
166.962
166.97
166.978
166.986
166.994
167.002
167.01
167.018
167.026
167.033
167.041
167.049
167.056
167.064
167.071
167.078
167.085
167.092
167.099
167.106
167.112
167.118
167.124
167.13
167.136
167.141
167.146
167.151
167.156
167.16
167.164
167.168
167.172
167.175
167.178
167.181
167.184
167.186
167.189
167.191
167.192
167.194
167.195
167.196
167.197
167.198
167.2
167.2
167.201
167.2
167.198
167.194
167.188
167.179
167.167
167.154
167.14
167.127
167.11
167.081
167.051
167.207
168.366
172.994
166.764
166.774
166.78
166.788
166.794
166.801
166.808
166.814
166.821
166.828
166.835
166.843
166.851
166.859
166.867
166.875
166.883
166.891
166.9
166.908
166.916
166.924
166.933
166.941
166.949
166.957
166.966
166.974
166.982
166.99
166.998
167.006
167.013
167.021
167.029
167.036
167.044
167.051
167.058
167.066
167.073
167.079
167.086
167.093
167.1
167.106
167.112
167.118
167.124
167.13
167.135
167.14
167.145
167.15
167.155
167.159
167.163
167.167
167.17
167.173
167.176
167.179
167.182
167.184
167.186
167.188
167.19
167.191
167.192
167.193
167.194
167.196
167.197
167.198
167.198
167.196
167.193
167.188
167.18
167.17
167.157
167.144
167.13
167.118
167.102
167.072
167.038
167.19
168.378
173.031
166.767
166.777
166.783
166.79
166.797
166.803
166.81
166.817
166.823
166.83
166.838
166.845
166.853
166.861
166.87
166.878
166.886
166.894
166.902
166.911
166.919
166.927
166.935
166.943
166.951
166.959
166.967
166.975
166.982
166.99
166.998
167.005
167.013
167.02
167.027
167.034
167.041
167.048
167.055
167.062
167.068
167.075
167.081
167.088
167.094
167.1
167.107
167.113
167.118
167.124
167.13
167.135
167.139
167.144
167.148
167.152
167.156
167.16
167.163
167.166
167.169
167.171
167.173
167.175
167.177
167.179
167.18
167.181
167.182
167.183
167.184
167.185
167.186
167.186
167.185
167.183
167.179
167.172
167.163
167.151
167.137
167.123
167.109
167.097
167.082
167.053
167.024
167.185
168.325
172.573
166.769
166.779
166.785
166.792
166.799
166.806
166.812
166.819
166.825
166.832
166.838
166.845
166.852
166.86
166.867
166.874
166.882
166.889
166.897
166.905
166.912
166.92
166.928
166.936
166.944
166.951
166.959
166.967
166.974
166.982
166.989
166.996
167.004
167.011
167.017
167.024
167.031
167.037
167.044
167.05
167.056
167.061
167.067
167.073
167.078
167.083
167.089
167.093
167.098
167.103
167.107
167.112
167.116
167.119
167.123
167.127
167.13
167.133
167.136
167.138
167.141
167.143
167.145
167.146
167.148
167.149
167.15
167.15
167.151
167.152
167.153
167.154
167.154
167.154
167.153
167.15
167.144
167.136
167.126
167.113
167.099
167.085
167.073
167.063
167.05
167.027
167.014
167.171
168.119
171.698
166.772
166.781
166.788
166.794
166.801
166.807
166.814
166.82
166.827
166.834
166.84
166.847
166.854
166.861
166.868
166.876
166.883
166.891
166.898
166.906
166.913
166.921
166.929
166.936
166.944
166.952
166.959
166.967
166.974
166.981
166.988
166.995
167.002
167.009
167.015
167.021
167.028
167.034
167.039
167.045
167.05
167.055
167.06
167.065
167.07
167.074
167.078
167.082
167.086
167.089
167.093
167.096
167.099
167.102
167.104
167.107
167.109
167.111
167.113
167.115
167.116
167.118
167.119
167.12
167.12
167.121
167.121
167.121
167.122
167.123
167.123
167.124
167.125
167.125
167.123
167.118
167.112
167.103
167.091
167.079
167.065
167.052
167.041
167.032
167.022
167.008
167.007
167.122
167.837
171.107
166.774
166.783
166.789
166.796
166.803
166.809
166.816
166.822
166.829
166.836
166.843
166.85
166.857
166.864
166.872
166.879
166.887
166.894
166.902
166.91
166.917
166.925
166.933
166.94
166.948
166.955
166.963
166.97
166.977
166.984
166.991
166.997
167.004
167.01
167.016
167.022
167.028
167.033
167.038
167.044
167.048
167.053
167.058
167.062
167.066
167.069
167.073
167.076
167.079
167.082
167.085
167.088
167.09
167.092
167.094
167.096
167.097
167.099
167.1
167.101
167.102
167.103
167.103
167.104
167.104
167.104
167.104
167.104
167.105
167.106
167.107
167.108
167.109
167.108
167.106
167.101
167.094
167.084
167.072
167.059
167.046
167.034
167.024
167.016
167.009
167.001
166.998
167.056
167.639
171.051
166.776
166.785
166.791
166.798
166.805
166.811
166.818
166.825
166.832
166.839
166.846
166.853
166.86
166.868
166.875
166.883
166.891
166.898
166.906
166.914
166.921
166.929
166.937
166.944
166.951
166.958
166.965
166.972
166.979
166.986
166.992
166.998
167.004
167.01
167.016
167.021
167.027
167.032
167.037
167.041
167.046
167.05
167.054
167.057
167.061
167.064
167.067
167.07
167.073
167.075
167.077
167.08
167.081
167.083
167.085
167.086
167.087
167.088
167.089
167.09
167.091
167.091
167.092
167.092
167.092
167.092
167.092
167.093
167.094
167.095
167.097
167.099
167.1
167.099
167.096
167.091
167.083
167.072
167.06
167.046
167.034
167.022
167.013
167.006
167.001
166.994
166.983
167.015
167.575
170.962
166.777
166.787
166.793
166.8
166.807
166.814
166.82
166.827
166.835
166.842
166.849
166.857
166.864
166.872
166.879
166.887
166.895
166.902
166.91
166.917
166.925
166.932
166.939
166.947
166.954
166.96
166.967
166.973
166.98
166.986
166.992
166.998
167.003
167.009
167.014
167.018
167.023
167.028
167.032
167.036
167.04
167.044
167.047
167.05
167.053
167.056
167.058
167.061
167.063
167.065
167.067
167.069
167.07
167.072
167.073
167.074
167.075
167.076
167.077
167.078
167.078
167.078
167.079
167.079
167.079
167.079
167.079
167.08
167.082
167.083
167.086
167.088
167.089
167.088
167.084
167.078
167.069
167.057
167.044
167.03
167.018
167.006
166.998
166.992
166.986
166.977
166.963
167
167.538
170.505
166.779
166.789
166.795
166.802
166.809
166.816
166.823
166.83
166.838
166.845
166.853
166.86
166.868
166.875
166.883
166.89
166.898
166.905
166.913
166.92
166.927
166.934
166.941
166.948
166.954
166.961
166.967
166.973
166.979
166.984
166.99
166.995
167
167.005
167.009
167.014
167.018
167.022
167.026
167.029
167.032
167.035
167.037
167.04
167.042
167.044
167.046
167.048
167.05
167.051
167.052
167.054
167.055
167.056
167.057
167.058
167.059
167.059
167.06
167.06
167.061
167.061
167.061
167.061
167.061
167.061
167.061
167.062
167.064
167.066
167.069
167.071
167.071
167.07
167.065
167.058
167.048
167.035
167.021
167.008
166.995
166.984
166.977
166.971
166.965
166.952
166.936
166.977
167.445
169.874
166.781
166.791
166.797
166.804
166.812
166.819
166.826
166.833
166.841
166.848
166.856
166.863
166.871
166.878
166.886
166.893
166.901
166.908
166.915
166.922
166.928
166.935
166.941
166.948
166.954
166.96
166.965
166.971
166.976
166.981
166.986
166.991
166.995
167
167.004
167.008
167.013
167.019
167.023
167.025
167.026
167.025
167.024
167.026
167.028
167.029
167.03
167.032
167.033
167.034
167.035
167.036
167.037
167.037
167.038
167.038
167.039
167.039
167.04
167.04
167.04
167.04
167.04
167.04
167.039
167.039
167.039
167.04
167.042
167.045
167.047
167.049
167.049
167.047
167.042
167.034
167.023
167.01
166.996
166.983
166.971
166.961
166.954
166.949
166.94
166.921
166.899
166.926
167.297
169.32
166.783
166.793
166.799
166.807
166.814
166.821
166.829
166.836
166.844
166.851
166.859
166.866
166.873
166.881
166.888
166.895
166.902
166.909
166.916
166.922
166.929
166.935
166.941
166.946
166.952
166.957
166.963
166.967
166.972
166.977
166.981
166.986
166.99
166.994
166.997
166.998
166.991
166.974
166.961
166.965
166.975
166.997
167.014
167.011
167.012
167.013
167.014
167.015
167.016
167.017
167.017
167.018
167.018
167.018
167.019
167.019
167.019
167.019
167.019
167.019
167.018
167.018
167.017
167.017
167.016
167.016
167.016
167.017
167.019
167.022
167.025
167.026
167.026
167.024
167.018
167.009
166.998
166.985
166.971
166.959
166.948
166.94
166.934
166.927
166.913
166.885
166.851
166.853
167.136
168.901
166.785
166.795
166.801
166.809
166.816
166.824
166.831
166.838
166.846
166.853
166.861
166.868
166.875
166.882
166.889
166.896
166.903
166.909
166.916
166.922
166.928
166.933
166.939
166.944
166.949
166.954
166.959
166.964
166.968
166.972
166.976
166.98
166.984
166.986
166.988
166.993
167.014
167.064
167.109
167.11
167.093
167.035
166.984
166.997
166.996
166.997
166.998
166.998
166.999
166.999
166.999
166.999
166.999
166.999
166.999
166.999
166.999
166.998
166.998
166.997
166.997
166.996
166.995
166.994
166.993
166.993
166.993
166.995
166.997
167
167.003
167.004
167.004
167.001
166.995
166.986
166.975
166.962
166.949
166.938
166.928
166.921
166.915
166.905
166.883
166.845
166.798
166.775
166.991
168.591
166.786
166.796
166.803
166.81
166.818
166.825
166.833
166.84
166.847
166.855
166.862
166.869
166.876
166.883
166.89
166.896
166.902
166.909
166.915
166.92
166.926
166.931
166.937
166.942
166.946
166.951
166.955
166.96
166.964
166.968
166.971
166.975
166.978
166.98
166.983
167.001
167.068
167.194
167.278
167.239
167.178
167.057
166.956
166.981
166.978
166.979
166.979
166.98
166.98
166.98
166.98
166.98
166.98
166.98
166.98
166.979
166.979
166.978
166.977
166.976
166.976
166.975
166.974
166.973
166.972
166.972
166.972
166.974
166.976
166.979
166.982
166.984
166.983
166.98
166.974
166.965
166.954
166.942
166.93
166.92
166.912
166.905
166.897
166.882
166.851
166.803
166.747
166.704
166.871
168.365
166.787
166.797
166.804
166.811
166.819
166.826
166.833
166.841
166.848
166.855
166.862
166.869
166.876
166.883
166.889
166.896
166.902
166.908
166.913
166.919
166.924
166.929
166.934
166.939
166.944
166.948
166.952
166.956
166.96
166.964
166.967
166.971
166.976
166.979
166.979
166.989
167.049
167.162
167.196
167.093
167.04
166.998
166.957
166.957
166.96
166.961
166.961
166.962
166.963
166.963
166.963
166.963
166.963
166.963
166.962
166.961
166.961
166.96
166.959
166.958
166.957
166.956
166.955
166.954
166.953
166.953
166.954
166.955
166.958
166.961
166.964
166.966
166.965
166.962
166.956
166.947
166.937
166.926
166.915
166.906
166.899
166.892
166.88
166.858
166.82
166.765
166.702
166.646
166.781
168.209
166.787
166.798
166.804
166.812
166.819
166.826
166.834
166.841
166.848
166.855
166.862
166.869
166.876
166.882
166.889
166.895
166.901
166.906
166.912
166.917
166.923
166.927
166.932
166.937
166.941
166.945
166.95
166.953
166.957
166.96
166.965
166.971
166.978
166.974
166.949
166.926
166.971
167.083
167.077
166.903
166.875
166.943
166.97
166.931
166.947
166.946
166.948
166.949
166.949
166.95
166.95
166.95
166.95
166.949
166.949
166.948
166.947
166.946
166.945
166.944
166.943
166.941
166.94
166.939
166.938
166.938
166.939
166.94
166.943
166.946
166.949
166.951
166.95
166.947
166.941
166.933
166.923
166.913
166.903
166.895
166.889
166.88
166.865
166.836
166.791
166.733
166.668
166.603
166.717
168.118
166.787
166.798
166.804
166.812
166.819
166.826
166.833
166.841
166.848
166.855
166.862
166.868
166.875
166.881
166.888
166.894
166.899
166.905
166.911
166.916
166.921
166.926
166.93
166.935
166.939
166.943
166.947
166.951
166.954
166.959
166.966
166.974
166.976
166.95
166.885
166.819
166.825
166.884
166.83
166.688
166.769
166.938
166.982
166.918
166.945
166.941
166.943
166.944
166.944
166.945
166.944
166.944
166.944
166.943
166.942
166.941
166.939
166.938
166.936
166.935
166.933
166.931
166.93
166.928
166.927
166.927
166.928
166.93
166.932
166.935
166.938
166.939
166.939
166.935
166.93
166.922
166.913
166.904
166.896
166.889
166.881
166.87
166.85
166.816
166.768
166.709
166.643
166.573
166.678
168.088
166.787
166.797
166.804
166.811
166.818
166.826
166.833
166.84
166.847
166.854
166.861
166.867
166.874
166.88
166.886
166.892
166.898
166.904
166.909
166.914
166.919
166.924
166.929
166.933
166.937
166.941
166.945
166.949
166.952
166.958
166.969
166.981
166.975
166.922
166.812
166.686
166.605
166.556
166.49
166.517
166.753
166.963
166.979
166.922
166.951
166.945
166.948
166.948
166.949
166.949
166.948
166.947
166.946
166.944
166.942
166.94
166.938
166.936
166.934
166.932
166.93
166.927
166.925
166.923
166.922
166.921
166.922
166.923
166.926
166.929
166.931
166.932
166.931
166.928
166.923
166.916
166.908
166.899
166.892
166.885
166.877
166.863
166.838
166.8
166.75
166.692
166.627
166.553
166.661
168.12
166.786
166.797
166.803
166.811
166.818
166.825
166.832
166.839
166.846
166.853
166.86
166.866
166.873
166.879
166.885
166.891
166.897
166.902
166.907
166.912
166.917
166.922
166.927
166.931
166.935
166.939
166.943
166.946
166.95
166.96
166.976
166.986
166.957
166.858
166.695
166.521
166.371
166.269
166.297
166.517
166.827
166.983
166.959
166.929
166.955
166.952
166.957
166.959
166.959
166.959
166.958
166.956
166.953
166.951
166.948
166.945
166.942
166.94
166.937
166.934
166.931
166.929
166.926
166.924
166.922
166.921
166.921
166.922
166.924
166.927
166.929
166.929
166.929
166.926
166.921
166.914
166.906
166.898
166.892
166.885
166.875
166.857
166.829
166.789
166.739
166.683
166.617
166.542
166.666
168.21
166.786
166.796
166.802
166.81
166.817
166.824
166.831
166.838
166.845
166.852
166.858
166.865
166.871
166.877
166.883
166.889
166.895
166.9
166.905
166.91
166.915
166.92
166.925
166.929
166.933
166.937
166.941
166.944
166.95
166.959
166.968
166.962
166.928
166.86
166.744
166.558
166.397
166.394
166.529
166.768
166.951
166.99
166.965
166.967
166.975
166.976
166.977
166.971
166.965
166.962
166.959
166.957
166.955
166.952
166.949
166.945
166.942
166.939
166.936
166.933
166.931
166.928
166.926
166.924
166.922
166.921
166.921
166.922
166.924
166.927
166.929
166.93
166.929
166.926
166.921
166.915
166.908
166.901
166.894
166.886
166.874
166.854
166.823
166.782
166.733
166.679
166.612
166.538
166.689
168.339
166.785
166.795
166.801
166.808
166.815
166.823
166.83
166.836
166.843
166.85
166.857
166.863
166.869
166.875
166.881
166.887
166.893
166.898
166.903
166.908
166.913
166.918
166.922
166.927
166.932
166.938
166.943
166.947
166.948
166.947
166.951
166.971
166.99
166.931
166.73
166.712
166.988
166.978
166.972
166.964
166.958
166.954
166.951
166.948
166.945
166.942
166.939
166.936
166.933
166.93
166.927
166.925
166.923
166.921
166.919
166.917
166.916
166.916
166.916
166.918
166.92
166.923
166.925
166.927
166.926
166.924
166.92
166.914
166.908
166.901
166.895
166.886
166.873
166.85
166.818
166.777
166.731
166.677
166.61
166.542
166.723
168.412
166.784
166.794
166.8
166.807
166.814
166.821
166.828
166.835
166.842
166.848
166.855
166.861
166.867
166.873
166.879
166.885
166.89
166.896
166.901
166.906
166.911
166.915
166.92
166.922
166.919
166.908
166.897
166.895
166.899
166.927
166.988
167.058
167.042
166.77
166.367
166.518
166.986
166.968
166.959
166.952
166.947
166.942
166.939
166.936
166.932
166.929
166.926
166.923
166.921
166.918
166.916
166.914
166.912
166.911
166.909
166.908
166.907
166.907
166.908
166.91
166.913
166.916
166.919
166.92
166.921
166.919
166.915
166.91
166.904
166.899
166.892
166.883
166.868
166.845
166.812
166.773
166.728
166.675
166.61
166.554
166.752
168.354
166.783
166.793
166.799
166.806
166.813
166.819
166.826
166.833
166.84
166.846
166.853
166.859
166.865
166.871
166.877
166.882
166.888
166.893
166.898
166.903
166.907
166.911
166.914
166.92
166.94
166.982
167.022
167.028
167.022
167.012
167.046
167.062
166.768
166.16
165.752
166.332
166.977
166.955
166.947
166.941
166.935
166.931
166.927
166.924
166.921
166.918
166.915
166.912
166.91
166.908
166.906
166.904
166.903
166.902
166.9
166.899
166.899
166.899
166.9
166.902
166.905
166.909
166.912
166.914
166.915
166.913
166.91
166.906
166.901
166.895
166.888
166.878
166.863
166.839
166.807
166.77
166.727
166.675
166.614
166.567
166.759
168.233
166.781
166.791
166.797
166.804
166.811
166.818
166.824
166.831
166.838
166.844
166.85
166.857
166.863
166.868
166.874
166.88
166.885
166.89
166.895
166.9
166.904
166.908
166.914
166.93
166.975
167.056
167.113
167.101
167.097
167.091
167.023
166.732
166.013
165.238
165.161
166.22
166.965
166.945
166.937
166.932
166.927
166.923
166.919
166.915
166.912
166.909
166.907
166.905
166.903
166.901
166.899
166.898
166.897
166.895
166.894
166.894
166.893
166.893
166.895
166.897
166.9
166.904
166.907
166.91
166.911
166.909
166.907
166.902
166.898
166.892
166.885
166.875
166.859
166.835
166.805
166.77
166.729
166.679
166.621
166.577
166.747
168.123
166.78
166.79
166.796
166.803
166.809
166.816
166.823
166.829
166.836
166.842
166.848
166.854
166.86
166.866
166.872
166.877
166.883
166.887
166.892
166.897
166.904
166.911
166.915
166.914
166.924
166.948
166.922
166.85
166.908
167.029
166.832
166.023
164.955
164.283
164.682
166.067
166.955
166.936
166.93
166.925
166.921
166.917
166.913
166.91
166.907
166.905
166.902
166.9
166.899
166.897
166.896
166.895
166.894
166.893
166.892
166.891
166.89
166.891
166.892
166.894
166.898
166.901
166.905
166.907
166.908
166.908
166.905
166.901
166.896
166.891
166.884
166.873
166.857
166.835
166.807
166.774
166.735
166.686
166.629
166.582
166.728
168.068
166.779
166.789
166.794
166.801
166.808
166.814
166.821
166.827
166.834
166.84
166.846
166.852
166.858
166.864
166.87
166.875
166.88
166.885
166.89
166.898
166.908
166.91
166.889
166.841
166.803
166.78
166.667
166.499
166.616
166.869
166.5
165.173
163.95
163.522
164.303
165.851
166.945
166.932
166.925
166.921
166.917
166.913
166.91
166.907