/*--------------------------------*- C++ -*----------------------------------*\
| =========                 |                                                 |
| \\      /  F ield         | OpenFOAM: The Open Source CFD Toolbox           |
|  \\    /   O peration     | Version:  v2012                                 |
|   \\  /    A nd           | Website:  www.openfoam.com                      |
|    \\/     M anipulation  |                                                 |
\*---------------------------------------------------------------------------*/
FoamFile
{
    version     2.0;
    format      ascii;
    class       volScalarField;
    location    "200/air";
    object      ILambda_4_0;
}
// * * * * * * * * * * * * * * * * * * * * * * * * * * * * * * * * * * * * * //

dimensions      [1 0 -3 0 0 0 0];


internalField   nonuniform List<scalar> 
287104
(
209.623
214.427
215.235
216.315
217.141
217.752
218.212
218.558
218.838
219.111
219.417
219.768
220.149
220.538
220.915
221.27
221.602
221.912
222.203
222.477
222.737
222.983
223.216
223.438
223.649
223.85
224.041
224.222
224.396
224.563
224.726
224.886
225.043
225.196
225.346
225.491
225.633
225.772
225.908
226.041
226.171
226.299
226.426
226.552
226.675
226.795
226.914
227.032
227.151
227.27
227.394
227.523
227.66
227.809
227.971
228.147
228.337
228.537
228.744
228.952
229.155
229.348
229.526
229.686
229.827
229.946
230.045
230.127
230.194
230.253
230.308
230.364
230.426
230.494
230.572
230.672
230.814
231.026
231.336
231.752
232.255
232.8
233.34
233.838
234.266
234.591
234.794
234.996
235.554
237.114
211.927
216.962
217.715
218.788
219.593
220.176
220.605
220.917
221.163
221.402
221.679
222.006
222.368
222.739
223.099
223.438
223.752
224.045
224.318
224.574
224.815
225.043
225.258
225.462
225.654
225.835
226.005
226.167
226.321
226.471
226.619
226.764
226.906
227.043
227.174
227.3
227.422
227.543
227.661
227.776
227.889
227.999
228.108
228.217
228.323
228.427
228.528
228.629
228.729
228.831
228.935
229.044
229.161
229.288
229.428
229.583
229.753
229.936
230.128
230.324
230.517
230.7
230.869
231.02
231.15
231.258
231.346
231.414
231.468
231.513
231.554
231.597
231.645
231.701
231.769
231.86
231.996
232.209
232.526
232.959
233.485
234.06
234.629
235.151
235.596
235.928
236.129
236.335
236.958
238.753
210.533
215.39
216.13
217.171
217.948
218.509
218.918
219.214
219.446
219.672
219.937
220.251
220.6
220.958
221.306
221.633
221.937
222.219
222.483
222.73
222.962
223.182
223.389
223.585
223.77
223.943
224.105
224.258
224.405
224.548
224.69
224.83
224.968
225.101
225.226
225.345
225.46
225.575
225.688
225.796
225.903
226.007
226.109
226.213
226.314
226.411
226.507
226.602
226.696
226.792
226.89
226.991
227.099
227.216
227.345
227.487
227.645
227.816
227.997
228.182
228.365
228.54
228.701
228.843
228.965
229.065
229.144
229.205
229.251
229.288
229.322
229.358
229.399
229.447
229.507
229.59
229.717
229.919
230.224
230.64
231.149
231.703
232.252
232.755
233.185
233.505
233.697
233.899
234.519
236.272
209.777
214.555
215.283
216.303
217.063
217.608
218.004
218.289
218.51
218.727
218.983
219.289
219.63
219.981
220.323
220.643
220.941
221.218
221.476
221.718
221.946
222.161
222.364
222.556
222.736
222.905
223.063
223.211
223.353
223.491
223.629
223.767
223.904
224.035
224.158
224.274
224.385
224.496
224.605
224.711
224.814
224.914
225.013
225.114
225.212
225.306
225.398
225.49
225.582
225.674
225.769
225.866
225.968
226.078
226.199
226.333
226.481
226.643
226.816
226.995
227.173
227.344
227.501
227.639
227.758
227.854
227.93
227.988
228.031
228.065
228.096
228.129
228.166
228.211
228.268
228.346
228.469
228.666
228.965
229.376
229.877
230.425
230.968
231.466
231.889
232.203
232.39
232.586
233.194
234.896
209.075
213.775
214.491
215.491
216.233
216.764
217.148
217.421
217.632
217.84
218.088
218.387
218.721
219.066
219.401
219.716
220.008
220.28
220.533
220.77
220.994
221.205
221.404
221.592
221.769
221.934
222.089
222.235
222.373
222.507
222.64
222.774
222.908
223.037
223.16
223.274
223.382
223.489
223.595
223.698
223.798
223.895
223.991
224.089
224.184
224.275
224.365
224.454
224.543
224.632
224.724
224.818
224.916
225.02
225.133
225.259
225.398
225.551
225.715
225.887
226.059
226.225
226.378
226.513
226.628
226.722
226.795
226.85
226.891
226.923
226.953
226.983
227.019
227.062
227.115
227.19
227.308
227.5
227.794
228.199
228.695
229.237
229.774
230.266
230.684
230.992
231.175
231.365
231.957
233.609
208.38
213.002
213.706
214.688
215.413
215.93
216.301
216.564
216.766
216.965
217.205
217.496
217.823
218.162
218.491
218.8
219.088
219.354
219.603
219.836
220.056
220.263
220.458
220.643
220.816
220.978
221.131
221.275
221.412
221.544
221.673
221.801
221.929
222.055
222.177
222.29
222.396
222.5
222.602
222.701
222.798
222.893
222.987
223.08
223.171
223.259
223.345
223.431
223.517
223.604
223.693
223.783
223.877
223.975
224.081
224.197
224.326
224.469
224.623
224.786
224.951
225.111
225.259
225.391
225.503
225.595
225.665
225.718
225.757
225.786
225.812
225.839
225.869
225.906
225.953
226.02
226.131
226.316
226.603
227.001
227.491
228.027
228.559
229.045
229.458
229.763
229.943
230.129
230.702
232.3
207.698
212.242
212.935
213.898
214.608
215.111
215.47
215.723
215.915
216.106
216.337
216.621
216.942
217.274
217.598
217.902
218.185
218.447
218.691
218.92
219.136
219.34
219.532
219.712
219.881
220.041
220.191
220.336
220.474
220.606
220.732
220.854
220.974
221.094
221.212
221.325
221.43
221.529
221.624
221.719
221.812
221.906
221.996
222.082
222.167
222.25
222.331
222.413
222.495
222.578
222.662
222.748
222.836
222.927
223.023
223.128
223.243
223.371
223.513
223.665
223.821
223.976
224.12
224.249
224.356
224.441
224.504
224.547
224.573
224.589
224.6
224.611
224.627
224.649
224.681
224.737
224.836
225.011
225.288
225.677
226.16
226.689
227.215
227.697
228.105
228.408
228.591
228.779
229.335
230.863
207.026
211.495
212.177
213.122
213.816
214.305
214.653
214.895
215.078
215.259
215.479
215.752
216.064
216.39
216.709
217.009
217.288
217.546
217.788
218.014
218.228
218.429
218.619
218.797
218.962
219.118
219.267
219.412
219.553
219.689
219.815
219.932
220.042
220.151
220.262
220.374
220.478
220.568
220.653
220.739
220.826
220.915
220.999
221.073
221.145
221.219
221.292
221.363
221.435
221.508
221.581
221.654
221.729
221.806
221.886
221.973
222.069
222.177
222.298
222.429
222.565
222.7
222.824
222.933
223.021
223.086
223.129
223.153
223.162
223.161
223.156
223.153
223.155
223.164
223.185
223.229
223.318
223.482
223.749
224.13
224.604
225.126
225.645
226.119
226.519
226.814
226.992
227.177
227.72
229.145
206.366
210.76
211.431
212.358
213.036
213.513
213.85
214.082
214.254
214.418
214.603
214.85
215.145
215.46
215.774
216.073
216.354
216.616
216.862
217.095
217.314
217.522
217.717
217.899
218.067
218.224
218.372
218.518
218.663
218.802
218.929
219.041
219.139
219.231
219.328
219.432
219.528
219.603
219.67
219.743
219.817
219.898
219.975
220.028
220.081
220.141
220.198
220.255
220.311
220.367
220.425
220.484
220.543
220.604
220.667
220.734
220.809
220.895
220.993
221.102
221.218
221.334
221.441
221.534
221.607
221.657
221.685
221.694
221.689
221.673
221.655
221.638
221.626
221.623
221.631
221.663
221.74
221.893
222.15
222.522
222.993
223.514
224.029
224.499
224.892
225.177
225.345
225.526
226.05
227.321
205.716
210.037
210.697
211.606
212.269
212.732
213.058
213.279
213.434
213.548
213.403
213.389
213.532
213.782
214.09
214.424
214.766
215.104
215.432
215.746
216.043
216.322
216.581
216.819
217.034
217.227
217.404
217.574
217.739
217.899
218.046
218.171
218.277
218.372
218.474
218.586
218.691
218.762
218.823
218.896
218.97
219.058
219.142
219.185
219.228
219.286
219.338
219.39
219.44
219.491
219.542
219.595
219.648
219.701
219.755
219.811
219.872
219.943
220.024
220.117
220.217
220.319
220.415
220.498
220.561
220.602
220.622
220.622
220.608
220.585
220.558
220.534
220.515
220.505
220.506
220.532
220.602
220.748
220.999
221.375
221.906
222.484
223.042
223.539
223.95
224.246
224.421
224.614
225.172
226.501
205.077
209.324
209.974
210.865
211.513
211.965
212.28
212.489
212.62
212.562
205.265
203.757
203.989
204.699
205.556
206.427
207.258
208.023
208.715
209.33
209.869
210.333
210.727
211.053
211.316
211.522
211.684
211.817
211.935
212.044
212.138
212.211
212.259
212.292
212.332
212.396
212.464
212.5
212.528
212.578
212.633
212.709
212.788
212.819
212.854
212.915
212.973
213.03
213.087
213.143
213.2
213.258
213.315
213.369
213.421
213.473
213.525
213.583
213.648
213.721
213.8
213.882
213.961
214.03
214.086
214.124
214.146
214.151
214.145
214.13
214.111
214.092
214.075
214.062
214.057
214.07
214.116
214.223
214.409
214.712
217.426
219.644
221.299
222.528
223.424
224.043
224.434
224.78
225.502
227.14
204.447
208.623
209.262
210.136
210.769
211.208
211.512
211.711
211.826
211.718
204.06
202.455
202.685
203.417
204.305
205.211
206.077
206.878
207.604
208.25
208.816
209.302
209.714
210.053
210.324
210.533
210.691
210.814
210.917
211.012
211.095
211.159
211.199
211.22
211.246
211.307
211.383
211.422
211.462
211.54
211.631
211.757
211.895
211.969
212.052
212.175
212.298
212.424
212.553
212.687
212.825
212.966
213.107
213.248
213.387
213.524
213.662
213.804
213.95
214.104
214.262
214.422
214.578
214.723
214.85
214.958
215.044
215.11
215.16
215.199
215.231
215.26
215.29
215.322
215.36
215.414
215.504
215.655
215.89
216.278
218.71
220.708
222.212
223.344
224.182
224.768
225.142
225.496
226.286
228.183
203.827
207.932
208.56
209.418
210.037
210.463
210.757
210.946
211.051
210.933
203.442
201.865
202.083
202.797
203.665
204.552
205.402
206.189
206.904
207.541
208.099
208.579
208.982
209.313
209.576
209.778
209.926
210.034
210.119
210.192
210.256
210.305
210.333
210.343
210.356
210.408
210.475
210.492
210.508
210.573
210.65
210.768
210.904
210.955
211.013
211.125
211.235
211.351
211.474
211.603
211.74
211.88
212.022
212.166
212.311
212.458
212.608
212.763
212.927
213.099
213.281
213.469
213.657
213.839
214.008
214.16
214.291
214.403
214.5
214.583
214.657
214.726
214.793
214.86
214.932
215.018
215.138
215.319
215.586
216.001
218.259
220.053
221.367
222.343
223.065
223.57
223.893
224.217
224.969
226.745
203.217
207.252
207.87
208.711
209.315
209.729
210.012
210.192
210.289
210.167
202.805
201.252
201.464
202.163
203.015
203.886
204.719
205.493
206.196
206.823
207.373
207.845
208.241
208.565
208.823
209.023
209.17
209.275
209.35
209.408
209.455
209.491
209.513
209.521
209.535
209.591
209.663
209.667
209.666
209.725
209.794
209.911
210.051
210.083
210.12
210.222
210.323
210.429
210.542
210.661
210.783
210.904
211.025
211.144
211.263
211.382
211.5
211.619
211.743
211.872
212.008
212.149
212.289
212.422
212.541
212.64
212.718
212.775
212.814
212.84
212.859
212.873
212.885
212.898
212.916
212.947
213.011
213.132
213.326
213.608
215.737
217.416
218.648
219.575
220.271
220.768
221.1
221.445
222.196
223.806
202.615
206.581
207.189
208.013
208.603
209.005
209.277
209.449
209.538
209.414
202.178
200.65
200.856
201.542
202.378
203.232
204.05
204.809
205.499
206.116
206.658
207.122
207.511
207.827
208.081
208.279
208.429
208.537
208.61
208.658
208.689
208.708
208.718
208.723
208.742
208.808
208.893
208.89
208.875
208.932
208.998
209.117
209.269
209.291
209.312
209.413
209.515
209.625
209.743
209.864
209.983
210.098
210.211
210.323
210.436
210.548
210.658
210.767
210.877
210.991
211.107
211.224
211.337
211.441
211.531
211.601
211.65
211.676
211.684
211.679
211.666
211.65
211.633
211.618
211.609
211.617
211.658
211.758
211.933
212.195
214.312
215.976
217.196
218.112
218.799
219.29
219.618
219.956
220.702
222.289
202.022
205.919
206.517
207.325
207.9
208.29
208.552
208.715
208.797
208.671
201.559
200.056
200.258
200.931
201.752
202.591
203.393
204.137
204.814
205.421
205.953
206.411
206.792
207.101
207.348
207.542
207.695
207.81
207.89
207.936
207.954
207.953
207.946
207.943
207.963
208.04
208.139
208.131
208.101
208.156
208.222
208.348
208.518
208.535
208.546
208.651
208.76
208.882
209.01
209.136
209.253
209.363
209.473
209.586
209.701
209.816
209.927
210.034
210.14
210.248
210.359
210.472
210.585
210.691
210.783
210.855
210.903
210.929
210.936
210.929
210.913
210.893
210.873
210.855
210.844
210.849
210.889
210.988
211.162
211.423
213.498
215.134
216.336
217.242
217.925
218.414
218.741
219.074
219.808
221.359
201.437
205.267
205.854
206.646
207.207
207.585
207.837
207.99
208.066
207.937
200.947
199.47
199.668
200.329
201.136
201.96
202.748
203.478
204.142
204.736
205.26
205.709
206.084
206.385
206.623
206.811
206.963
207.086
207.176
207.23
207.245
207.229
207.201
207.182
207.197
207.279
207.388
207.374
207.322
207.376
207.443
207.58
207.779
207.8
207.809
207.924
208.05
208.19
208.332
208.461
208.575
208.681
208.791
208.91
209.034
209.157
209.275
209.388
209.498
209.606
209.716
209.827
209.938
210.045
210.141
210.22
210.279
210.317
210.336
210.341
210.336
210.328
210.318
210.309
210.305
210.317
210.362
210.464
210.641
210.904
212.925
214.524
215.706
216.601
217.279
217.766
218.091
218.419
219.123
220.646
200.86
204.623
205.201
205.977
206.524
206.89
207.132
207.276
207.345
207.215
200.348
198.898
199.093
199.743
200.535
201.345
202.118
202.832
203.481
204.061
204.573
205.013
205.379
205.672
205.898
206.074
206.217
206.34
206.441
206.508
206.529
206.505
206.458
206.417
206.414
206.487
206.594
206.569
206.491
206.541
206.611
206.759
206.993
207.029
207.052
207.188
207.339
207.504
207.66
207.791
207.899
208.001
208.114
208.241
208.375
208.509
208.636
208.758
208.876
208.991
209.108
209.225
209.342
209.456
209.562
209.652
209.723
209.774
209.806
209.824
209.832
209.836
209.84
209.845
209.856
209.883
209.945
210.069
210.277
210.619
212.644
214.253
215.447
216.348
217.017
217.479
217.764
218.04
218.701
220.22
200.293
203.989
204.557
205.317
205.85
206.205
206.436
206.572
206.635
206.508
199.768
198.35
198.546
199.187
199.965
200.758
201.514
202.208
202.834
203.389
203.874
204.288
204.627
204.891
205.085
205.226
205.336
205.434
205.523
205.591
205.615
205.585
205.517
205.443
205.403
205.444
205.532
205.496
205.406
205.45
205.524
205.68
205.941
206.012
206.074
206.261
206.465
206.672
206.854
206.996
207.107
207.215
207.337
207.475
207.617
207.757
207.89
208.019
208.145
208.27
208.394
208.519
208.643
208.765
208.878
208.978
209.059
209.118
209.158
209.183
209.197
209.206
209.214
209.222
209.235
209.263
209.325
209.447
209.654
210.002
212.091
213.762
214.989
215.904
216.581
217.052
217.344
217.618
218.26
219.771
199.733
203.365
203.923
204.667
205.187
205.529
205.75
205.879
205.941
205.843
199.313
197.955
198.153
198.775
199.521
200.267
200.96
201.575
202.105
202.553
202.924
203.223
203.454
203.619
203.724
203.783
203.822
203.864
203.92
203.977
204.007
203.984
203.912
203.817
203.743
203.752
203.828
203.81
203.761
203.806
203.88
204.018
204.252
204.36
204.485
204.76
205.067
205.376
205.651
205.881
206.083
206.277
206.47
206.655
206.818
206.955
207.071
207.171
207.259
207.332
207.394
207.452
207.507
207.559
207.606
207.645
207.671
207.684
207.682
207.669
207.65
207.628
207.607
207.588
207.576
207.578
207.613
207.707
207.88
208.185
210.479
212.334
213.713
214.741
215.494
216.009
216.317
216.583
217.192
218.607
199.181
202.748
203.296
204.025
204.53
204.861
205.072
205.193
205.261
205.3
204.945
204.956
205.16
205.439
205.734
206.016
206.275
206.508
206.72
206.922
207.124
207.327
207.522
207.695
207.832
207.933
208.019
208.118
208.252
208.415
208.569
208.662
208.678
208.634
208.594
208.666
208.863
208.991
209.138
209.248
209.305
209.32
209.333
209.279
209.233
209.381
209.549
209.682
209.748
209.768
209.783
209.825
209.901
209.997
210.096
210.191
210.283
210.374
210.461
210.54
210.62
210.699
210.777
210.854
210.93
210.996
211.047
211.079
211.092
211.091
211.082
211.072
211.065
211.064
211.072
211.101
211.173
211.316
211.561
211.926
212.517
213.134
213.713
214.222
214.64
214.937
215.107
215.284
215.818
217.108
198.633
202.136
202.674
203.387
203.88
204.199
204.4
204.514
204.581
204.654
204.802
204.988
205.221
205.475
205.728
205.961
206.167
206.346
206.506
206.662
206.828
207.01
207.2
207.38
207.527
207.632
207.709
207.791
207.91
208.075
208.255
208.391
208.445
208.42
208.394
208.516
208.831
209.109
209.502
209.681
209.722
209.606
209.342
209.162
209.009
209.122
209.268
209.359
209.372
209.342
209.329
209.366
209.445
209.542
209.636
209.724
209.807
209.888
209.967
210.043
210.115
210.186
210.255
210.323
210.388
210.444
210.488
210.515
210.525
210.523
210.515
210.506
210.501
210.503
210.518
210.555
210.635
210.79
211.046
211.416
211.871
212.379
212.887
213.351
213.74
214.019
214.175
214.336
214.842
216.081
198.088
201.527
202.055
202.753
203.232
203.539
203.731
203.836
203.898
203.971
204.098
204.285
204.517
204.771
205.021
205.252
205.454
205.624
205.771
205.909
206.06
206.234
206.427
206.619
206.784
206.902
206.976
207.037
207.129
207.275
207.456
207.615
207.697
207.699
207.723
207.957
208.463
208.912
209.569
209.843
209.864
209.606
209.03
208.672
208.34
208.378
208.502
208.577
208.573
208.543
208.55
208.615
208.717
208.825
208.925
209.019
209.11
209.201
209.289
209.375
209.457
209.536
209.612
209.686
209.756
209.819
209.869
209.904
209.921
209.925
209.921
209.916
209.914
209.917
209.932
209.968
210.048
210.202
210.456
210.821
211.278
211.783
212.285
212.744
213.125
213.394
213.535
213.675
214.147
215.362
197.545
200.919
201.438
202.121
202.586
202.882
203.064
203.161
203.216
203.284
203.404
203.587
203.816
204.065
204.313
204.543
204.745
204.912
205.05
205.174
205.308
205.469
205.659
205.861
206.045
206.183
206.267
206.319
206.386
206.505
206.671
206.832
206.927
206.962
207.077
207.492
208.248
208.848
209.765
210.168
210.16
209.741
208.84
208.265
207.671
207.565
207.638
207.694
207.683
207.662
207.693
207.781
207.892
208
208.097
208.19
208.286
208.385
208.481
208.574
208.662
208.746
208.827
208.905
208.978
209.044
209.099
209.139
209.162
209.17
209.169
209.166
209.166
209.171
209.183
209.215
209.286
209.426
209.662
210.004
210.433
210.905
211.371
211.789
212.126
212.346
212.436
212.519
212.926
214.046
197.004
200.314
200.823
201.491
201.942
202.227
202.399
202.487
202.535
202.597
202.712
202.889
203.113
203.357
203.602
203.832
204.036
204.205
204.339
204.453
204.571
204.715
204.895
205.099
205.299
205.462
205.568
205.626
205.681
205.777
205.921
206.067
206.158
206.217
206.437
207.061
208.082
208.782
209.888
210.464
210.376
209.696
208.515
207.728
206.833
206.537
206.533
206.567
206.551
206.538
206.579
206.663
206.756
206.839
206.916
206.996
207.084
207.176
207.266
207.353
207.435
207.513
207.587
207.655
207.719
207.775
207.819
207.847
207.86
207.858
207.843
207.817
207.787
207.758
207.735
207.73
207.762
207.862
208.055
208.353
208.738
209.168
209.593
209.974
210.277
210.465
210.526
210.579
210.939
211.928
196.466
199.713
200.213
200.865
201.303
201.577
201.739
201.819
201.859
201.914
202.024
202.196
202.414
202.653
202.894
203.123
203.33
203.504
203.642
203.752
203.857
203.984
204.147
204.342
204.549
204.731
204.86
204.939
205
205.09
205.222
205.35
205.424
205.487
205.776
206.567
207.81
208.554
210.324
211.092
210.75
209.531
207.478
206.452
205.26
204.753
204.632
204.591
204.536
204.496
204.504
204.545
204.594
204.645
204.707
204.787
204.883
204.986
205.092
205.195
205.295
205.39
205.479
205.56
205.632
205.694
205.745
205.775
205.78
205.761
205.728
205.689
205.648
205.61
205.58
205.567
205.592
205.683
205.866
206.15
206.521
206.938
207.356
207.734
208.04
208.237
208.312
208.381
208.744
209.653
195.939
199.123
199.613
200.25
200.676
200.938
201.091
201.162
201.196
201.245
201.348
201.515
201.727
201.961
202.197
202.424
202.633
202.815
202.96
203.074
203.173
203.285
203.428
203.604
203.801
203.985
204.125
204.232
204.316
204.42
204.564
204.687
204.756
204.811
205.108
205.964
207.355
208.075
209.069
209.58
208.555
206.438
204.59
203.426
202.054
201.478
201.322
201.29
201.27
201.289
201.366
201.476
201.601
201.743
201.903
202.078
202.256
202.431
202.597
202.753
202.897
203.027
203.143
203.243
203.329
203.402
203.454
203.485
203.494
203.482
203.453
203.416
203.376
203.341
203.315
203.311
203.349
203.457
203.661
203.97
204.369
204.818
205.271
205.687
206.031
206.269
206.384
206.49
206.868
207.731
195.436
198.56
199.041
199.664
200.077
200.328
200.472
200.535
200.562
200.605
200.703
200.864
201.072
201.301
201.532
201.756
201.965
202.153
202.309
202.432
202.533
202.635
202.758
202.907
203.076
203.245
203.378
203.507
203.619
203.751
203.927
204.065
204.158
204.229
204.504
205.336
206.822
207.5
211.576
210.849
208.561
205.727
200.336
199.202
198.16
197.951
198.089
198.321
198.547
198.769
198.994
199.221
199.452
199.687
199.923
200.145
200.346
200.525
200.686
200.827
200.946
201.047
201.132
201.202
201.26
201.306
201.342
201.366
201.377
201.376
201.367
201.355
201.345
201.342
201.352
201.386
201.462
201.607
201.847
202.191
202.623
203.105
203.591
204.04
204.419
204.689
204.837
204.971
205.361
206.196
194.979
198.048
198.521
199.13
199.532
199.774
199.909
199.965
199.984
200.021
200.115
200.272
200.475
200.7
200.927
201.146
201.354
201.547
201.714
201.849
201.958
202.057
202.163
202.283
202.418
202.57
202.701
202.839
202.969
203.115
203.305
203.469
203.623
203.777
204.086
204.868
206.414
206.84
203.68
201.212
199.081
197.071
196.508
196.216
195.677
195.948
196.385
196.845
197.25
197.59
197.875
198.129
198.368
198.597
198.805
198.967
199.085
199.172
199.245
199.31
199.37
199.426
199.479
199.526
199.571
199.611
199.647
199.678
199.704
199.723
199.739
199.753
199.772
199.797
199.836
199.899
200.004
200.178
200.445
200.814
201.27
201.775
202.285
202.757
203.158
203.451
203.621
203.773
204.17
204.988
194.594
197.617
198.083
198.681
199.073
199.307
199.435
199.485
199.499
199.531
199.62
199.773
199.973
200.194
200.417
200.632
200.838
201.031
201.207
201.357
201.478
201.578
201.672
201.774
201.893
202.059
202.241
202.387
202.517
202.634
202.761
202.934
203.173
203.501
203.958
204.7
206.227
206.417
188.172
185.531
184.25
183.002
194.948
195.523
194.977
195.302
195.668
196.098
196.519
196.877
197.173
197.433
197.676
197.882
198.041
198.145
198.202
198.23
198.249
198.268
198.29
198.315
198.344
198.373
198.405
198.438
198.471
198.503
198.533
198.559
198.584
198.61
198.643
198.685
198.741
198.822
198.945
199.136
199.42
199.804
200.274
200.793
201.316
201.802
202.217
202.524
202.707
202.87
203.271
204.075
194.304
197.292
197.752
198.343
198.728
198.957
199.081
199.127
199.138
199.168
199.254
199.404
199.603
199.822
200.043
200.254
200.455
200.647
200.827
200.988
201.121
201.224
201.318
201.429
201.584
201.824
202.155
202.331
202.451
202.481
202.428
202.568
202.894
203.471
204.198
204.924
206.315
206.232
175.578
172.92
172.408
171.8
194.301
195.675
195.084
195.297
195.408
195.677
196.044
196.401
196.712
197.001
197.269
197.503
197.683
197.794
197.842
197.847
197.834
197.816
197.798
197.785
197.777
197.773
197.775
197.783
197.797
197.814
197.834
197.855
197.879
197.907
197.942
197.987
198.048
198.134
198.263
198.459
198.748
199.138
199.613
200.138
200.667
201.159
201.58
201.893
202.083
202.251
202.654
203.449
194.12
197.085
197.542
198.128
198.509
198.735
198.857
198.902
198.914
198.944
199.031
199.183
199.383
199.604
199.826
200.037
200.235
200.424
200.605
200.772
200.912
201.021
201.133
201.304
201.572
201.95
202.517
202.758
202.868
202.776
202.44
202.486
202.852
203.697
204.746
205.469
206.698
206.42
170.323
167.546
167.418
167.304
194.915
196.736
196.074
196.062
195.78
195.767
195.999
196.309
196.612
196.911
197.222
197.516
197.76
197.929
198.016
198.035
198.02
197.969
197.903
197.832
197.764
197.701
197.649
197.61
197.583
197.569
197.564
197.567
197.577
197.594
197.621
197.66
197.715
197.798
197.924
198.119
198.407
198.795
199.27
199.794
200.322
200.814
201.235
201.549
201.739
201.909
202.31
203.099
194.035
196.988
197.442
198.024
198.402
198.626
198.747
198.793
198.805
198.837
198.928
199.084
199.289
199.516
199.744
199.961
200.163
200.355
200.538
200.707
200.849
200.972
201.139
201.442
201.914
202.46
203.282
203.617
203.713
203.485
202.829
202.702
203.201
204.233
205.521
206.186
207.457
207.464
170.09
167.226
167.265
167.555
200.93
202.196
200.379
199.443
198.233
197.556
197.388
197.469
197.617
197.802
198.033
198.297
198.556
198.77
198.909
198.969
198.763
198.677
198.553
198.405
198.253
198.107
197.978
197.872
197.79
197.729
197.686
197.658
197.642
197.636
197.643
197.663
197.703
197.771
197.885
198.071
198.35
198.732
199.201
199.72
200.244
200.732
201.15
201.46
201.648
201.816
202.216
203.003
194.023
196.974
197.426
198.006
198.382
198.603
198.722
198.765
198.775
198.806
198.897
199.054
199.262
199.494
199.728
199.953
200.165
200.366
200.555
200.726
200.871
201.021
201.289
201.803
202.564
203.274
204.343
204.803
204.863
204.467
203.471
203.096
203.358
204.328
205.578
206.059
207.79
208.196
171.687
168.856
168.959
169.466
205.457
207.016
204.619
203.393
201.706
200.635
200.189
200.029
199.92
199.827
199.778
199.778
199.805
199.836
199.851
199.851
199.621
199.53
199.394
199.217
199.015
198.811
198.624
198.462
198.33
198.224
198.141
198.076
198.026
197.988
197.964
197.957
197.971
198.016
198.111
198.279
198.544
198.913
199.371
199.881
200.395
200.874
201.284
201.587
201.768
201.93
202.328
203.117
194.053
197.007
197.458
198.038
198.413
198.632
198.747
198.787
198.793
198.819
198.905
199.058
199.262
199.491
199.724
199.951
200.168
200.374
200.569
200.739
200.881
201.061
201.457
202.224
203.307
204.151
205.404
206.05
206.03
205.358
204.057
203.363
203.161
203.718
204.56
204.975
207.955
208.525
170.831
167.662
167.84
168.807
207.069
208.901
205.161
203.766
202.055
200.93
200.388
200.126
199.966
199.865
199.834
199.866
199.936
200.023
200.105
200.174
200.01
199.98
199.907
199.798
199.662
199.514
199.368
199.232
199.108
198.998
198.896
198.8
198.712
198.632
198.565
198.518
198.495
198.507
198.572
198.715
198.957
199.307
199.747
200.24
200.739
201.203
201.599
201.89
202.059
202.21
202.602
203.396
194.091
197.049
197.501
198.082
198.458
198.678
198.794
198.833
198.837
198.861
198.943
199.091
199.289
199.512
199.74
199.961
200.174
200.379
200.571
200.732
200.862
201.055
201.546
202.513
203.861
204.791
206.727
207.638
207.432
206.244
204.055
203.01
202.304
202.326
202.606
203.227
207.96
208.292
174.923
171.841
171.995
173.334
210.314
213.723
207.921
205.851
203.593
201.144
199.369
198.888
198.61
198.637
198.873
199.091
199.251
199.396
199.525
199.637
199.531
199.563
199.57
199.563
199.547
199.513
199.475
199.436
199.398
199.36
199.32
199.277
199.23
199.183
199.138
199.101
199.08
199.087
199.142
199.271
199.497
199.829
200.25
200.723
201.201
201.645
202.021
202.293
202.445
202.58
202.963
203.759
194.115
197.076
197.529
198.111
198.489
198.711
198.829
198.871
198.878
198.903
198.987
199.136
199.335
199.557
199.783
200.002
200.213
200.416
200.606
200.763
200.884
201.073
201.584
202.621
204.098
205.057
206.404
207.319
206.674
204.687
202.661
201.448
200.524
200.419
200.532
200.029
202.638
204.608
201.981
200.381
199.554
199.213
199.003
198.876
198.839
198.879
198.963
199.091
199.266
199.407
199.307
199.361
199.396
199.427
199.462
199.47
199.472
199.47
199.466
199.459
199.448
199.429
199.402
199.37
199.335
199.306
199.291
199.303
199.363
199.497
199.729
200.065
200.491
200.967
201.447
201.891
202.266
202.535
202.684
202.815
203.197
203.993
194.118
197.079
197.531
198.113
198.491
198.714
198.833
198.877
198.886
198.914
199
199.153
199.354
199.58
199.808
200.03
200.243
200.449
200.644
200.811
200.943
201.121
201.577
202.536
203.998
204.995
210.096
210.478
208.883
206.146
200.133
198.938
198.499
199.053
200.164
200.087
201.78
204.541
202.069
200.549
199.747
199.355
199.093
198.906
198.785
198.732
198.734
198.822
198.972
199.097
198.981
199.039
199.09
199.151
199.234
199.281
199.322
199.354
199.381
199.405
199.423
199.43
199.427
199.414
199.395
199.376
199.365
199.377
199.435
199.566
199.794
200.129
200.554
201.03
201.511
201.956
202.332
202.601
202.748
202.879
203.258
204.038
194.103
197.061
197.512
198.093
198.47
198.692
198.81
198.853
198.862
198.89
198.977
199.13
199.332
199.559
199.789
200.013
200.227
200.434
200.634
200.817
200.971
201.14
201.489
202.247
203.529
204.323
203.356
201.959
200.2
198.138
196.851
196.592
196.926
198.232
200.124
200.667
201.502
204.289
201.924
200.464
199.611
199.186
198.931
198.751
198.634
198.584
198.592
198.687
198.799
198.893
198.769
198.82
198.873
198.941
199.04
199.111
199.18
199.235
199.284
199.329
199.368
199.398
199.418
199.427
199.427
199.424
199.425
199.447
199.512
199.647
199.879
200.216
200.642
201.118
201.598
202.041
202.413
202.678
202.821
202.946
203.318
204.073
194.08
197.034
197.484
198.064
198.439
198.659
198.776
198.817
198.825
198.852
198.937
199.09
199.292
199.519
199.75
199.974
200.188
200.396
200.598
200.792
200.97
201.138
201.376
201.859
202.775
203.207
187.068
185.09
184.024
182.754
194.767
195.568
196.175
197.751
199.997
201.01
201.401
204.133
201.872
200.504
199.772
199.394
199.149
198.97
198.858
198.813
198.836
198.923
198.999
199.085
198.986
199.018
199.046
199.068
199.097
199.152
199.216
199.272
199.32
199.364
199.406
199.441
199.469
199.487
199.496
199.5
199.509
199.539
199.612
199.756
199.996
200.341
200.773
201.253
201.736
202.179
202.55
202.812
202.95
203.07
203.434
204.168
194.057
197.009
197.458
198.037
198.411
198.63
198.746
198.786
198.791
198.817
198.901
199.052
199.253
199.479
199.71
199.933
200.148
200.354
200.556
200.756
200.95
201.134
201.311
201.551
201.969
201.72
172.388
170.017
169.691
169.252
192.977
194.846
195.571
197.07
199.309
200.592
201.428
204.183
202.088
200.97
200.405
200.087
199.859
199.682
199.562
199.507
199.54
199.607
199.678
199.808
199.815
199.832
199.806
199.713
199.545
199.514
199.512
199.533
199.556
199.576
199.595
199.618
199.639
199.657
199.671
199.682
199.698
199.734
199.812
199.96
200.203
200.55
200.985
201.467
201.95
202.393
202.762
203.019
203.152
203.264
203.62
204.345
194.043
196.993
197.442
198.02
198.395
198.614
198.73
198.769
198.775
198.799
198.882
199.032
199.231
199.455
199.683
199.905
200.116
200.32
200.517
200.714
200.912
201.109
201.288
201.421
201.421
200.372
164.425
161.683
161.819
162.185
192.11
194.715
195.363
196.424
198.232
199.484
201.557