/*--------------------------------*- C++ -*----------------------------------*\
| =========                 |                                                 |
| \\      /  F ield         | OpenFOAM: The Open Source CFD Toolbox           |
|  \\    /   O peration     | Version:  v2012                                 |
|   \\  /    A nd           | Website:  www.openfoam.com                      |
|    \\/     M anipulation  |                                                 |
\*---------------------------------------------------------------------------*/
FoamFile
{
    version     2.0;
    format      ascii;
    class       volScalarField;
    location    "200/air";
    object      ILambda_1_0;
}
// * * * * * * * * * * * * * * * * * * * * * * * * * * * * * * * * * * * * * //

dimensions      [1 0 -3 0 0 0 0];


internalField   nonuniform List<scalar> 
287104
(
205.545
209.422
210.316
211.346
212.134
212.728
213.181
213.529
213.817
214.097
214.406
214.753
215.126
215.504
215.87
216.216
216.54
216.843
217.129
217.399
217.655
217.899
218.131
218.352
218.563
218.764
218.956
219.14
219.316
219.486
219.652
219.814
219.974
220.13
220.283
220.432
220.578
220.72
220.86
220.996
221.13
221.262
221.393
221.523
221.65
221.775
221.898
222.02
222.143
222.266
222.393
222.525
222.664
222.813
222.973
223.147
223.331
223.526
223.726
223.927
224.123
224.31
224.484
224.642
224.781
224.903
225.006
225.093
225.167
225.233
225.295
225.357
225.424
225.495
225.575
225.673
225.807
226.005
226.29
226.671
227.128
227.625
228.118
228.575
228.969
229.27
229.46
229.649
230.16
231.564
213.192
217.91
218.757
219.849
220.662
221.253
221.688
222.004
222.252
222.494
222.776
223.109
223.477
223.854
224.219
224.562
224.881
225.177
225.453
225.712
225.956
226.186
226.404
226.609
226.803
226.986
227.158
227.321
227.477
227.629
227.778
227.924
228.067
228.205
228.337
228.465
228.588
228.71
228.83
228.946
229.059
229.171
229.281
229.391
229.499
229.603
229.706
229.808
229.909
230.012
230.117
230.227
230.345
230.473
230.614
230.769
230.94
231.123
231.316
231.513
231.707
231.893
232.066
232.221
232.357
232.471
232.564
232.638
232.697
232.747
232.791
232.837
232.887
232.943
233.011
233.102
233.239
233.454
233.777
234.22
234.764
235.362
235.957
236.504
236.966
237.306
237.509
237.716
238.349
240.167
211.202
215.62
216.445
217.497
218.273
218.836
219.249
219.547
219.78
220.008
220.274
220.59
220.94
221.3
221.648
221.976
222.28
222.563
222.827
223.074
223.306
223.526
223.733
223.929
224.114
224.287
224.449
224.602
224.749
224.892
225.034
225.174
225.312
225.445
225.57
225.689
225.804
225.919
226.032
226.141
226.247
226.351
226.454
226.558
226.659
226.756
226.852
226.947
227.042
227.138
227.236
227.337
227.445
227.562
227.691
227.833
227.99
228.161
228.341
228.527
228.71
228.886
229.048
229.193
229.318
229.422
229.504
229.569
229.618
229.658
229.694
229.731
229.773
229.822
229.882
229.964
230.091
230.294
230.602
231.024
231.541
232.107
232.668
233.183
233.619
233.941
234.133
234.334
234.961
236.728
210.12
214.418
215.233
216.261
217.017
217.563
217.961
218.249
218.472
218.691
218.948
219.256
219.597
219.949
220.29
220.611
220.909
221.185
221.443
221.685
221.912
222.127
222.33
222.522
222.702
222.871
223.028
223.177
223.318
223.457
223.595
223.733
223.869
224.001
224.124
224.24
224.351
224.463
224.572
224.678
224.781
224.881
224.981
225.082
225.18
225.274
225.367
225.459
225.551
225.644
225.738
225.835
225.938
226.048
226.169
226.302
226.45
226.612
226.785
226.963
227.141
227.312
227.47
227.611
227.731
227.83
227.908
227.968
228.014
228.05
228.082
228.116
228.154
228.199
228.255
228.334
228.456
228.652
228.952
229.365
229.87
230.424
230.973
231.477
231.903
232.217
232.403
232.599
233.211
234.917
209.425
213.668
214.47
215.478
216.217
216.748
217.134
217.41
217.623
217.833
218.083
218.383
218.718
219.063
219.398
219.713
220.006
220.277
220.531
220.768
220.991
221.202
221.402
221.589
221.766
221.932
222.087
222.232
222.37
222.505
222.638
222.772
222.906
223.036
223.159
223.272
223.381
223.489
223.595
223.698
223.798
223.896
223.992
224.09
224.186
224.277
224.367
224.457
224.546
224.636
224.727
224.822
224.92
225.024
225.137
225.263
225.402
225.555
225.719
225.891
226.063
226.229
226.383
226.52
226.637
226.733
226.809
226.867
226.91
226.945
226.975
227.007
227.043
227.086
227.139
227.213
227.331
227.523
227.817
228.224
228.723
229.272
229.816
230.314
230.736
231.045
231.227
231.418
232.013
233.669
208.737
212.913
213.702
214.69
215.413
215.93
216.304
216.568
216.772
216.973
217.214
217.507
217.835
218.174
218.504
218.813
219.1
219.367
219.616
219.849
220.068
220.275
220.471
220.655
220.828
220.991
221.144
221.288
221.425
221.557
221.686
221.814
221.942
222.069
222.19
222.304
222.41
222.514
222.616
222.716
222.813
222.909
223.003
223.097
223.188
223.276
223.363
223.449
223.536
223.623
223.712
223.802
223.896
223.995
224.101
224.217
224.346
224.489
224.643
224.806
224.972
225.132
225.282
225.416
225.53
225.624
225.698
225.753
225.794
225.826
225.853
225.881
225.913
225.949
225.996
226.064
226.175
226.36
226.647
227.047
227.541
228.084
228.623
229.116
229.533
229.838
230.018
230.204
230.781
232.383
208.047
212.151
212.927
213.897
214.604
215.107
215.469
215.723
215.917
216.11
216.343
216.628
216.949
217.282
217.606
217.911
218.193
218.455
218.699
218.929
219.144
219.348
219.54
219.72
219.889
220.049
220.2
220.344
220.483
220.615
220.741
220.863
220.983
221.102
221.221
221.334
221.439
221.538
221.634
221.729
221.824
221.917
222.008
222.095
222.181
222.264
222.346
222.428
222.51
222.594
222.679
222.765
222.853
222.944
223.041
223.146
223.262
223.392
223.534
223.687
223.844
223.999
224.145
224.275
224.385
224.473
224.539
224.584
224.614
224.633
224.647
224.66
224.677
224.7
224.734
224.79
224.89
225.065
225.343
225.735
226.222
226.758
227.292
227.78
228.192
228.495
228.677
228.865
229.426
230.959
207.368
211.403
212.167
213.118
213.809
214.299
214.649
214.893
215.078
215.26
215.482
215.757
216.071
216.397
216.716
217.016
217.295
217.554
217.795
218.021
218.234
218.435
218.624
218.802
218.967
219.123
219.272
219.417
219.559
219.695
219.822
219.939
220.049
220.157
220.269
220.381
220.484
220.575
220.661
220.749
220.836
220.925
221.011
221.085
221.16
221.235
221.308
221.381
221.453
221.527
221.601
221.675
221.751
221.829
221.91
221.998
222.096
222.205
222.327
222.46
222.598
222.734
222.861
222.972
223.063
223.132
223.179
223.207
223.219
223.222
223.22
223.219
223.222
223.233
223.255
223.299
223.389
223.554
223.823
224.206
224.684
225.213
225.74
226.221
226.625
226.921
227.099
227.284
227.83
229.266
206.701
210.669
211.42
212.353
213.028
213.506
213.844
214.079
214.253
214.419
214.612
214.865
215.164
215.482
215.796
216.094
216.373
216.634
216.878
217.108
217.326
217.531
217.724
217.905
218.071
218.227
218.375
218.522
218.667
218.808
218.936
219.048
219.145
219.236
219.332
219.435
219.532
219.608
219.676
219.75
219.825
219.907
219.984
220.038
220.094
220.155
220.213
220.271
220.328
220.386
220.444
220.504
220.564
220.626
220.69
220.758
220.835
220.922
221.022
221.132
221.249
221.366
221.475
221.57
221.646
221.699
221.731
221.743
221.741
221.729
221.713
221.698
221.688
221.685
221.694
221.727
221.805
221.958
222.216
222.591
223.066
223.592
224.115
224.59
224.987
225.273
225.441
225.622
226.149
227.431
206.045
209.946
210.685
211.601
212.26
212.725
213.052
213.275
213.433
213.553
213.549
213.582
213.736
213.983
214.283
214.605
214.934
215.259
215.575
215.877
216.164
216.435
216.687
216.918
217.128
217.318
217.493
217.662
217.83
217.992
218.141
218.267
218.372
218.465
218.563
218.673
218.777
218.849
218.911
218.984
219.059
219.146
219.229
219.273
219.317
219.375
219.428
219.48
219.53
219.581
219.632
219.685
219.738
219.791
219.845
219.901
219.963
220.034
220.117
220.21
220.312
220.415
220.513
220.597
220.663
220.707
220.729
220.732
220.721
220.7
220.676
220.653
220.635
220.625
220.627
220.653
220.724
220.87
221.123
221.501
221.997
222.549
223.092
223.581
223.985
224.275
224.445
224.635
225.191
226.51
205.4
209.235
209.961
210.859
211.504
211.956
212.273
212.485
212.618
212.562
205.768
204.415
204.64
205.316
206.13
206.961
207.755
208.489
209.153
209.746
210.267
210.717
211.101
211.42
211.679
211.884
212.047
212.184
212.308
212.423
212.525
212.604
212.656
212.691
212.733
212.797
212.867
212.904
212.935
212.987
213.043
213.119
213.198
213.228
213.264
213.324
213.38
213.436
213.491
213.545
213.601
213.657
213.712
213.765
213.816
213.866
213.918
213.975
214.04
214.114
214.194
214.277
214.356
214.427
214.483
214.523
214.545
214.551
214.545
214.531
214.512
214.493
214.476
214.463
214.458
214.471
214.519
214.628
214.819
215.132
217.705
219.803
221.383
222.564
223.428
224.023
224.397
224.73
225.441
227.053
204.765
208.534
209.249
210.13
210.76
211.199
211.505
211.706
211.822
211.707
203.955
202.382
202.615
203.351
204.244
205.154
206.023
206.826
207.553
208.2
208.767
209.254
209.665
210.004
210.274
210.482
210.64
210.764
210.87
210.968
211.056
211.124
211.164
211.183
211.207
211.263
211.336
211.374
211.413
211.489
211.577
211.7
211.834
211.905
211.985
212.104
212.222
212.343
212.467
212.595
212.728
212.863
212.998
213.132
213.264
213.395
213.527
213.662
213.802
213.949
214.101
214.255
214.404
214.543
214.666
214.769
214.851
214.914
214.961
214.996
215.025
215.052
215.078
215.107
215.142
215.194
215.28
215.427
215.659
216.044
218.54
220.578
222.115
223.271
224.125
224.719
225.098
225.453
226.243
228.124
204.139
207.844
208.547
209.411
210.027
210.453
210.749
210.94
211.046
210.918
203.364
201.829
202.051
202.768
203.639
204.529
205.38
206.169
206.884
207.523
208.081
208.561
208.965
209.296
209.56
209.761
209.909
210.018
210.105
210.183
210.254
210.309
210.34
210.349
210.359
210.406
210.47
210.486
210.504
210.571
210.65
210.77
210.907
210.959
211.021
211.134
211.247
211.365
211.489
211.62
211.758
211.9
212.044
212.189
212.335
212.482
212.633
212.789
212.952
213.124
213.305
213.492
213.679
213.86
214.028
214.178
214.308
214.419
214.514
214.595
214.667
214.734
214.799
214.863
214.932
215.016
215.133
215.311
215.577
215.996
218.284
220.096
221.428
222.421
223.153
223.663
223.987
224.313
225.07
226.856
203.523
207.165
207.856
208.703
209.304
209.719
210.004
210.186
210.284
210.152
202.76
201.255
201.47
202.17
203.021
203.892
204.725
205.498
206.2
206.828
207.377
207.849
208.244
208.568
208.826
209.025
209.171
209.276
209.352
209.414
209.468
209.511
209.537
209.545
209.555
209.605
209.671
209.673
209.673
209.732
209.802
209.919
210.059
210.093
210.131
210.234
210.336
210.443
210.557
210.677
210.8
210.923
211.046
211.168
211.289
211.41
211.531
211.654
211.781
211.914
212.054
212.199
212.343
212.481
212.605
212.709
212.793
212.856
212.901
212.933
212.957
212.976
212.993
213.01
213.031
213.067
213.135
213.259
213.459
213.755
215.902
217.585
218.824
219.756
220.454
220.949
221.279
221.622
222.375
223.995
202.916
206.495
207.175
208.005
208.592
208.994
209.269
209.442
209.533
209.399
202.132
200.651
200.86
201.546
202.382
203.236
204.054
204.812
205.502
206.119
206.66
207.124
207.512
207.829
208.082
208.28
208.429
208.536
208.61
208.661
208.697
208.723
208.739
208.746
208.762
208.823
208.9
208.892
208.878
208.935
209.001
209.121
209.271
209.293
209.316
209.417
209.518
209.628
209.745
209.866
209.985
210.1
210.213
210.326
210.439
210.551
210.661
210.771
210.881
210.995
211.113
211.23
211.345
211.451
211.543
211.616
211.668
211.698
211.709
211.707
211.697
211.683
211.669
211.656
211.649
211.658
211.701
211.802
211.978
212.244
214.372
216.036
217.259
218.18
218.871
219.363
219.692
220.031
220.78
222.366
202.317
205.834
206.503
207.317
207.889
208.28
208.544
208.708
208.792
208.655
201.512
200.055
200.26
200.934
201.754
202.593
203.396
204.14
204.816
205.422
205.954
206.411
206.792
207.101
207.348
207.543
207.695
207.81
207.889
207.936
207.959
207.964
207.963
207.964
207.983
208.056
208.147
208.134
208.103
208.159
208.225
208.351
208.519
208.535
208.548
208.652
208.761
208.882
209.009
209.134
209.251
209.362
209.471
209.584
209.699
209.813
209.923
210.031
210.137
210.245
210.355
210.468
210.58
210.685
210.777
210.849
210.897
210.924
210.932
210.925
210.91
210.891
210.872
210.854
210.843
210.848
210.888
210.987
211.161
211.425
213.515
215.153
216.362
217.274
217.96
218.45
218.776
219.11
219.848
221.4
201.727
205.183
205.841
206.638
207.196
207.575
207.828
207.984
208.06
207.922
200.901
199.469
199.669
200.332
201.138
201.963
202.751
203.481
204.144
204.738
205.261
205.71
206.084
206.385
206.624
206.813
206.966
207.088
207.178
207.231
207.248
207.236
207.215
207.202
207.218
207.298
207.401
207.38
207.327
207.381
207.448
207.585
207.781
207.8
207.811
207.925
208.049
208.188
208.329
208.458
208.572
208.678
208.788
208.906
209.029
209.151
209.268
209.38
209.489
209.598
209.707
209.818
209.93
210.036
210.132
210.211
210.27
210.307
210.326
210.33
210.325
210.316
210.305
210.295
210.29
210.3
210.344
210.446
210.622
210.889
212.925
214.526
215.714
216.615
217.296
217.784
218.109
218.437
219.147
220.67
201.146
204.541
205.188
205.969
206.513
206.879
207.123
207.269
207.339
207.2
200.303
198.896
199.094
199.745
200.537
201.347
202.121
202.836
203.485
204.065
204.576
205.015
205.381
205.673
205.901
206.079
206.225
206.349
206.45
206.516
206.537
206.516
206.474
206.439
206.44
206.513
206.617
206.586
206.506
206.555
206.624
206.773
207.004
207.038
207.059
207.194
207.343
207.505
207.66
207.791
207.899
208.001
208.114
208.24
208.373
208.505
208.632
208.753
208.869
208.984
209.099
209.216
209.333
209.446
209.551
209.641
209.712
209.763
209.795
209.812
209.82
209.823
209.825
209.828
209.837
209.862
209.923
210.045
210.251
210.589
212.622
214.228
215.424
216.329
217.002
217.468
217.756
218.037
218.703
220.22
200.574
203.909
204.544
205.309
205.84
206.194
206.427
206.565
206.629
206.492
199.723
198.347
198.545
199.186
199.965
200.759
201.516
202.214
202.842
203.4
203.886
204.301
204.641
204.907
205.105
205.25
205.366
205.469
205.561
205.63
205.654
205.624
205.56
205.492
205.458
205.502
205.589
205.548
205.452
205.494
205.568
205.725
205.985
206.052
206.111
206.294
206.492
206.695
206.874
207.013
207.122
207.228
207.348
207.485
207.626
207.765
207.899
208.027
208.153
208.278
208.402
208.527
208.652
208.775
208.889
208.99
209.072
209.132
209.174
209.199
209.214
209.224
209.231
209.239
209.252
209.28
209.341
209.464
209.672
210.025
212.115
213.777
215.003
215.92
216.598
217.067
217.356
217.629
218.274
219.784
200.01
203.285
203.91
204.66
205.176
205.519
205.742
205.872
205.935
205.825
199.159
197.818
198.018
198.646
199.4
200.157
200.861
201.489
202.032
202.491
202.87
203.177
203.413
203.583
203.692
203.758
203.802
203.85
203.909
203.966
203.994
203.968
203.895
203.802
203.731
203.743
203.818
203.792
203.732
203.773
203.847
203.989
204.23
204.338
204.462
204.735
205.038
205.344
205.615
205.842
206.04
206.23
206.42
206.602
206.764
206.902
207.019
207.121
207.212
207.289
207.357
207.419
207.48
207.537
207.59
207.634
207.665
207.682
207.685
207.676
207.661
207.642
207.623
207.606
207.595
207.599
207.635
207.73
207.905
208.216
210.534
212.395
213.78
214.812
215.567
216.081
216.389
216.655
217.27
218.693
199.453
202.67
203.284
204.018
204.52
204.852
205.064
205.187
205.256
205.284
204.47
204.382
204.587
204.891
205.219
205.536
205.828
206.092
206.33
206.552
206.764
206.969
207.161
207.328
207.459
207.557
207.642
207.741
207.873
208.03
208.174
208.258
208.266
208.219
208.179
208.247
208.434
208.545
208.667
208.765
208.82
208.846
208.88
208.84
208.81
208.97
209.15
209.298
209.381
209.418
209.448
209.502
209.587
209.69
209.794
209.892
209.986
210.078
210.165
210.244
210.322
210.399
210.476
210.553
210.627
210.693
210.744
210.776
210.79
210.79
210.782
210.772
210.764
210.761
210.768
210.794
210.862
211.001
211.24
211.602
212.328
213.045
213.692
214.248
214.695
215.01
215.189
215.372
215.914
217.214
198.901
202.06
202.663
203.381
203.87
204.19
204.393
204.508
204.577
204.649
204.841
205.037
205.268
205.52
205.769
206
206.206
206.388
206.552
206.712
206.878
207.057
207.241
207.414
207.557
207.662
207.744
207.833
207.959
208.128
208.309
208.442
208.494
208.468
208.443
208.563
208.869
209.133
209.501
209.666
209.702
209.595
209.354
209.184
209.04
209.156
209.302
209.394
209.408
209.38
209.366
209.401
209.479
209.574
209.668
209.755
209.838
209.919
209.998
210.074
210.147
210.218
210.288
210.358
210.425
210.484
210.53
210.56
210.574
210.574
210.567
210.56
210.556
210.559
210.573
210.609
210.689
210.843
211.1
211.472
211.921
212.427
212.936
213.403
213.794
214.072
214.227
214.388
214.897
216.14
198.352
201.453
202.045
202.748
203.224
203.532
203.725
203.832
203.896
203.971
204.124
204.317
204.551
204.802
205.05
205.279
205.481
205.654
205.805
205.949
206.102
206.275
206.462
206.647
206.805
206.921
206.998
207.065
207.164
207.315
207.498
207.655
207.735
207.735
207.756
207.983
208.475
208.912
209.547
209.805
209.82
209.569
209.016
208.674
208.357
208.404
208.53
208.605
208.6
208.569
208.573
208.636
208.736
208.843
208.942
209.034
209.124
209.213
209.301
209.385
209.466
209.544
209.619
209.693
209.763
209.827
209.878
209.914
209.933
209.938
209.935
209.931
209.929
209.933
209.948
209.985
210.065
210.219
210.474
210.842
211.297
211.803
212.31
212.774
213.158
213.428
213.57
213.711
214.187
215.404
197.805
200.848
201.429
202.116
202.579
202.876
203.059
203.158
203.214
203.284
203.405
203.588
203.817
204.067
204.314
204.544
204.746
204.916
205.059
205.19
205.329
205.491
205.677
205.871
206.048
206.182
206.266
206.322
206.395
206.52
206.688
206.849
206.943
206.975
207.085
207.487
208.226
208.816
209.717
210.102
210.09
209.679
208.798
208.242
207.669
207.578
207.656
207.713
207.701
207.68
207.709
207.796
207.908
208.016
208.113
208.207
208.302
208.4
208.496
208.588
208.676
208.76
208.841
208.918
208.992
209.059
209.115
209.156
209.181
209.19
209.191
209.189
209.19
209.195
209.208
209.239
209.311
209.452
209.69
210.035
210.47
210.951
211.427
211.853
212.197
212.422
212.515
212.601
213.014
214.141
197.26
200.244
200.815
201.487
201.936
202.222
202.395
202.485
202.535
202.598
202.713
202.892
203.116
203.361
203.606
203.835
204.038
204.208
204.347
204.467
204.59
204.738
204.915
205.114
205.307
205.464
205.568
205.628
205.688
205.789
205.935
206.083
206.173
206.231
206.445
207.058
208.062
208.756
209.845
210.402
210.316
209.654
208.499
207.731
206.857
206.578
206.582
206.618
206.602
206.59
206.631
206.716
206.812
206.898
206.976
207.058
207.146
207.238
207.329
207.416
207.498
207.576
207.65
207.719
207.783
207.841
207.886
207.916
207.932
207.932
207.918
207.894
207.866
207.839
207.819
207.815
207.849
207.951
208.147
208.45
208.841
209.279
209.713
210.101
210.409
210.6
210.661
210.715
211.079
212.077
196.719
199.645
200.205
200.862
201.297
201.572
201.735
201.817
201.859
201.916
202.027
202.2
202.419
202.659
202.9
203.128
203.333
203.507
203.647
203.762
203.873
204.004
204.168
204.36
204.561
204.737
204.863
204.943
205.007
205.1
205.233
205.362
205.437
205.5
205.789
206.575
207.81
208.554
210.301
211.053
210.726
209.546
207.542
206.539
205.363
204.875
204.762
204.727
204.675
204.636
204.645
204.689
204.739
204.791
204.853
204.931
205.025
205.126
205.229
205.329
205.426
205.518
205.605
205.684
205.755
205.816
205.866
205.896
205.901
205.885
205.854
205.815
205.775
205.737
205.706
205.692
205.716
205.806
205.988
206.274
206.648
207.072
207.495
207.878
208.186
208.383
208.456
208.524
208.888
209.802
196.187
199.056
199.606
200.247
200.67
200.933
201.087
201.161
201.196
201.246
201.351
201.519
201.732
201.967
202.203
202.429
202.637
202.817
202.963
203.079
203.183
203.3
203.446
203.622
203.814
203.994
204.131
204.238
204.323
204.429
204.574
204.696
204.763
204.819
205.12
205.985
207.379
208.107
209.12
209.665
208.685
206.618
204.803
203.65
202.28
201.704
201.546
201.509
201.482
201.494
201.563
201.665
201.783
201.916
202.067
202.234
202.405
202.574
202.736
202.887
203.027
203.154
203.268
203.366
203.45
203.522
203.573
203.604
203.613
203.6
203.571
203.534
203.495
203.459
203.433
203.427
203.464
203.57
203.772
204.081
204.481
204.933
205.389
205.808
206.153
206.388
206.501
206.605
206.983
207.849
195.678
198.492
199.032
199.659
200.069
200.321
200.466
200.532
200.56
200.604
200.704
200.866
201.075
201.304
201.536
201.759
201.967
202.154
202.309
202.432
202.536
202.643
202.77
202.921
203.089
203.255
203.385
203.513
203.625
203.759
203.935
204.072
204.16
204.228
204.509
205.358
206.855
207.552
211.527
210.879
208.654
205.821
200.593
199.473
198.392
198.154
198.266
198.474
198.679
198.886
199.099
199.317
199.54
199.769
199.999
200.22
200.421
200.602
200.764
200.906
201.028
201.131
201.218
201.29
201.35
201.397
201.435
201.46
201.472
201.471
201.462
201.449
201.437
201.433
201.441
201.472
201.545
201.688
201.926
202.269
202.703
203.188
203.679
204.131
204.511
204.781
204.926
205.059
205.45
206.287
195.214
197.978
198.508
199.122
199.52
199.763
199.899
199.957
199.978
200.017
200.111
200.269
200.473
200.699
200.926
201.145
201.353
201.544
201.709
201.844
201.954
202.057
202.167
202.29
202.425
202.575
202.7
202.836
202.967
203.117
203.31
203.473
203.621
203.766
204.074
204.873
206.432
206.879
204.507
202.159
199.979
197.872
196.7
196.337
195.767
196.013
196.433
196.88
197.275
197.607
197.89
198.142
198.38
198.609
198.819
198.985
199.109
199.205
199.284
199.355
199.419
199.479
199.534
199.583
199.628
199.669
199.705
199.737
199.763
199.783
199.798
199.813
199.83
199.854
199.892
199.953
200.057
200.23
200.496
200.865
201.323
201.833
202.347
202.823
203.227
203.519
203.688
203.839
204.238
205.056
194.82
197.541
198.064
198.666
199.055
199.29
199.419
199.471
199.486
199.519
199.609
199.763
199.964
200.186
200.409
200.624
200.83
201.022
201.197
201.345
201.466
201.568
201.666
201.77
201.89
202.051
202.223
202.364
202.495
202.618
202.756
202.931
203.164
203.476
203.921
204.674
206.22
206.407
189.309
186.767
185.393
184.095
195.034
195.464
194.942
195.28
195.659
196.096
196.52
196.879
197.174
197.433
197.672
197.877
198.035
198.141
198.2
198.231
198.253
198.275
198.3
198.328
198.359
198.39
198.423
198.457
198.492
198.525
198.556
198.583
198.609
198.637
198.67
198.712
198.768
198.848
198.971
199.161
199.444
199.83
200.303
200.826
201.355
201.846
202.263
202.57
202.752
202.915
203.318
204.123
194.521
197.21
197.726
198.321
198.703
198.932
199.056
199.104
199.117
199.147
199.234
199.386
199.584
199.804
200.024
200.236
200.437
200.629
200.808
200.968
201.099
201.204
201.3
201.412
201.563
201.795
202.109
202.277
202.396
202.435
202.401
202.548
202.87
203.428
204.133
204.862
206.276
206.176
176.193
173.734
173.144
172.513
194.396
195.568
195.004
195.239
195.373
195.659
196.033
196.391
196.702
196.988
197.251
197.478
197.65
197.755
197.8
197.805
197.793
197.777
197.763
197.754
197.75
197.749
197.754
197.765
197.781
197.801
197.823
197.847
197.873
197.902
197.939
197.985
198.047
198.133
198.262
198.459
198.748
199.139
199.618
200.148
200.683
201.18
201.605
201.919
202.108
202.277
202.681
203.477
194.328
196.995
197.508
198.097
198.475
198.701
198.824
198.871
198.883
198.914
199.002
199.155
199.355
199.576
199.797
200.008
200.206
200.395
200.576
200.741
200.88
200.99
201.102
201.269
201.528
201.895
202.442
202.672
202.779
202.695
202.383
202.443
202.808
203.636
204.66
205.38
206.619
206.298
170.296
167.774
167.598
167.483
194.882
196.506
195.893
195.918
195.672
195.689
195.938
196.256
196.563
196.866
197.174
197.461
197.695
197.854
197.933
197.948
197.935
197.886
197.823
197.757
197.695
197.638
197.591
197.557
197.535
197.524
197.523
197.529
197.542
197.562
197.591
197.631
197.689
197.772
197.899
198.095
198.384
198.774
199.253
199.783
200.317
200.815
201.239
201.554
201.744
201.914
202.318
203.107
194.236
196.892
197.401
197.987
198.362
198.586
198.708
198.755
198.768
198.801
198.892
199.049
199.254
199.481
199.708
199.924
200.126
200.317
200.499
200.667
200.809
200.931
201.094
201.388
201.845
202.379
203.183
203.505
203.597
203.377
202.744
202.639
203.138
204.165
205.441
206.107
207.364
207.275
169.743
167.135
167.136
167.449
200.586
201.663
199.97
199.111
197.966
197.341
197.207
197.309
197.474
197.674
197.918
198.188
198.446
198.655
198.786
198.839
198.642
198.558
198.436
198.293
198.148
198.008
197.887
197.787
197.71
197.654
197.616
197.592
197.58
197.578
197.587
197.611
197.653
197.723
197.839
198.026
198.307
198.692
199.165
199.69
200.22
200.714
201.136
201.448
201.636
201.804
202.206
202.993
194.221
196.874
197.381
197.965
198.337
198.559
198.678
198.723
198.735
198.767
198.858
199.017
199.225
199.457
199.691
199.915
200.126
200.325
200.514
200.684
200.829
200.976
201.238
201.737
202.476
203.176
204.231
204.675
204.735
204.349
203.375
203.026
203.322
204.315
205.583
206.079
207.764
208.077
171.36
168.779
168.846
169.382
205.367
206.637
204.314
203.11
201.437
200.389
199.964
199.821
199.729
199.656
199.628
199.647
199.689
199.73
199.751
199.75
199.512
199.417
199.275
199.095
198.894
198.693
198.509
198.353
198.224
198.123
198.045
197.985
197.939
197.906
197.886
197.883
197.9
197.948
198.045
198.215
198.483
198.855
199.318
199.833
200.355
200.841
201.255
201.56
201.742
201.904
202.304
203.093
194.249
196.905
197.412
197.994
198.366
198.585
198.702
198.743
198.751
198.778
198.865
199.02
199.225
199.454
199.688
199.914
200.13
200.336
200.53
200.7
200.842
201.02
201.409
202.16
203.222
204.058
205.293
205.92
205.904
205.253
203.98
203.315
203.159
203.769
204.663
205.086
207.968
208.465
170.644
167.752
167.895
168.873
207.171
208.674
205.079
203.724
202.013
200.918
200.393
200.144
199.987
199.881
199.843
199.867
199.928
200.004
200.075
200.133
199.956
199.917
199.833
199.713
199.568
199.412
199.26
199.119
198.993
198.881
198.78
198.688
198.603
198.527
198.466
198.422
198.404
198.42
198.488
198.633
198.879
199.232
199.678
200.178
200.684
201.156
201.557
201.85
202.021
202.173
202.568
203.361
194.288
196.948
197.456
198.04
198.412
198.632
198.749
198.789
198.795
198.819
198.902
199.052
199.251
199.475
199.703
199.924
200.137
200.342
200.533
200.694
200.825
201.018
201.506
202.467
203.804
204.731
206.639
207.526
207.33
206.179
204.04
203.025
202.357
202.433
202.767
203.406
207.992
208.257
174.509
171.641
171.774
173.153
210.384
213.453
207.731
205.697
203.461
201.072
199.398
198.931
198.671
198.704
198.925
199.131
199.285
199.424
199.548
199.655
199.543
199.57
199.571
199.555
199.527
199.483
199.435
199.387
199.34
199.294
199.248
199.2
199.15
199.099
199.053
199.016
198.994
199.002
199.057
199.187
199.415
199.75
200.176
200.656
201.142
201.593
201.975
202.249
202.402
202.539
202.924
203.721
194.315
196.978
197.486
198.071
198.445
198.667
198.786
198.829
198.837
198.863
198.948
199.098
199.297
199.519
199.745
199.964
200.174
200.377
200.566
200.723
200.844
201.032
201.549
202.594
204.078
205.042
206.383
207.303
206.683
204.742
202.757
201.555
200.637
200.539
200.649
200.229
203.202
204.603
202.047
200.368
199.465
199.105
198.891
198.785
198.776
198.835
198.928
199.062
199.238
199.377
199.278
199.334
199.368
199.399
199.431
199.436
199.436
199.431
199.424
199.415
199.402
199.381
199.352
199.319
199.284
199.255
199.24
199.251
199.311
199.445
199.676
200.014
200.442
200.923
201.409
201.859
202.238
202.508
202.657
202.788
203.172
203.968
194.32
196.982
197.49
198.075
198.45
198.673
198.793
198.838
198.848
198.878
198.965
199.118
199.32
199.545
199.774
199.995
200.207
200.412
200.606
200.772
200.902
201.08
201.546
202.527
204.012
205.024
209.963
210.376
208.829
206.096
200.278
199.099
198.61
199.117
200.149
200.014
202.005
204.381
201.968
200.473
199.676
199.291
199.03
198.845
198.73
198.685
198.693
198.789
198.943
199.07
198.955
199.015
199.066
199.127
199.208
199.252
199.291
199.32
199.346
199.367
199.383
199.388
199.383
199.369
199.35
199.33
199.319
199.332
199.39
199.521
199.751
200.088
200.517
200.999
201.486
201.937
202.316
202.586
202.734
202.864
203.246
204.028
194.306
196.966
197.473
198.057
198.431
198.653
198.772
198.817
198.827
198.856
198.944
199.098
199.301
199.528
199.758
199.981
200.195
200.403
200.602
200.783
200.934
201.102
201.464
202.251
203.567
204.387
204.142
202.876
201.095
198.944
197.035
196.701
196.989
198.261
200.114
200.603
201.73
204.156
201.852
200.412
199.567
199.147
198.89
198.709
198.592
198.542
198.549
198.645
198.761
198.857
198.732
198.785
198.839
198.908
199.009
199.079
199.147
199.201
199.248
199.291
199.329
199.358
199.375
199.383
199.382
199.377
199.378
199.399
199.463
199.598
199.831
200.17
200.599
201.081
201.568
202.017
202.393
202.66
202.803
202.929
203.304
204.061
194.282
196.94
197.445
198.028
198.4
198.621
198.739
198.782
198.79
198.819
198.906
199.059
199.262
199.489
199.72
199.944
200.158
200.365
200.567
200.761
200.936
201.103
201.349
201.861
202.821
203.274
188.326
186.474
185.322
183.994
194.92
195.562
196.183
197.77
200.016
200.995
201.632
203.998
201.795
200.436
199.694
199.314
199.068
198.889
198.778
198.735
198.759
198.847
198.926
199.011
198.909
198.943
198.974
199.002
199.041
199.1
199.166
199.223
199.273
199.318
199.359
199.395
199.422
199.44
199.448
199.451
199.46
199.489
199.561
199.705
199.945
200.291
200.726
201.212
201.701
202.15
202.525
202.788
202.926
203.047
203.413
204.149
194.259
196.914
197.419
198.001
198.372
198.591
198.708
198.749
198.757
198.783
198.869
199.021
199.223
199.449
199.679
199.903
200.117
200.324
200.526
200.725
200.918
201.099
201.279
201.536
201.998
201.777
173.201
171.046
170.641
170.162
193.177
194.818
195.574
197.11
199.376
200.642
201.65
204.031
201.99
200.869
200.295
199.973
199.743
199.566
199.446
199.392
199.426
199.494
199.564
199.689
199.685
199.703
199.682
199.6
199.452
199.431
199.438
199.464
199.491
199.513
199.536
199.56
199.582
199.601
199.614
199.625
199.642
199.677
199.755
199.902
200.146
200.495
200.932
201.42
201.91
202.359
202.731
202.99
203.123
203.236
203.595
204.32
194.244
196.897
197.402
197.984
198.355
198.574
198.691
198.732
198.738
198.764
198.848
198.999
199.199
199.423
199.652
199.873
200.085
200.288
200.486
200.683
200.881
201.077
201.254
201.388
201.409
200.367
164.606
162.136
162.221
162.565
192.25
194.622
195.322
196.446
198.316
199.58
201.776
204.311
202.561
201.784