/*--------------------------------*- C++ -*----------------------------------*\
| =========                 |                                                 |
| \\      /  F ield         | OpenFOAM: The Open Source CFD Toolbox           |
|  \\    /   O peration     | Version:  v2012                                 |
|   \\  /    A nd           | Website:  www.openfoam.com                      |
|    \\/     M anipulation  |                                                 |
\*---------------------------------------------------------------------------*/
FoamFile
{
    version     2.0;
    format      ascii;
    class       volScalarField;
    location    "200/air";
    object      ILambda_41_0;
}
// * * * * * * * * * * * * * * * * * * * * * * * * * * * * * * * * * * * * * //

dimensions      [1 0 -3 0 0 0 0];


internalField   nonuniform List<scalar> 
287104
(
198.882
216.346
218.115
218.107
218.614
219.277
219.808
220.177
220.45
220.705
220.995
221.335
221.712
222.099
222.475
222.83
223.161
223.468
223.756
224.027
224.282
224.522
224.75
224.966
225.172
225.366
225.551
225.727
225.894
226.056
226.214
226.369
226.521
226.67
226.814
226.953
227.088
227.22
227.349
227.476
227.6
227.723
227.844
227.965
228.084
228.201
228.316
228.429
228.543
228.657
228.773
228.893
229.019
229.153
229.298
229.455
229.624
229.805
229.994
230.188
230.382
230.572
230.754
230.924
231.078
231.216
231.336
231.439
231.527
231.602
231.668
231.73
231.79
231.851
231.917
231.999
232.118
232.302
232.584
232.987
233.506
234.109
234.742
235.344
235.862
236.245
236.468
236.632
237.063
238.675
198.271
215.342
217.048
217.02
217.492
218.115
218.608
218.943
219.185
219.411
219.674
219.988
220.338
220.699
221.051
221.382
221.69
221.978
222.246
222.498
222.734
222.957
223.168
223.367
223.555
223.732
223.899
224.056
224.206
224.351
224.494
224.637
224.778
224.916
225.047
225.17
225.289
225.406
225.521
225.633
225.743
225.851
225.958
226.065
226.171
226.274
226.375
226.475
226.575
226.675
226.776
226.88
226.99
227.106
227.232
227.369
227.52
227.681
227.853
228.031
228.211
228.387
228.555
228.712
228.855
228.981
229.089
229.18
229.257
229.321
229.377
229.428
229.477
229.528
229.584
229.656
229.764
229.938
230.21
230.602
231.11
231.702
232.324
232.916
233.424
233.798
234.012
234.171
234.621
236.317
197.756
214.546
216.226
216.196
216.655
217.262
217.74
218.062
218.293
218.51
218.764
219.067
219.408
219.761
220.104
220.428
220.73
221.011
221.274
221.52
221.751
221.969
222.175
222.37
222.553
222.726
222.888
223.04
223.183
223.322
223.46
223.598
223.736
223.871
224
224.121
224.236
224.349
224.46
224.567
224.673
224.777
224.879
224.983
225.085
225.184
225.281
225.377
225.473
225.569
225.666
225.766
225.869
225.979
226.097
226.226
226.368
226.521
226.685
226.856
227.029
227.2
227.364
227.516
227.653
227.774
227.878
227.964
228.035
228.094
228.145
228.19
228.234
228.279
228.329
228.394
228.495
228.662
228.927
229.311
229.811
230.395
231.01
231.596
232.097
232.465
232.673
232.829
233.276
234.93
197.243
213.749
215.4
215.37
215.817
216.408
216.872
217.181
217.402
217.61
217.854
218.149
218.484
218.833
219.171
219.489
219.784
220.059
220.317
220.558
220.784
220.997
221.199
221.389
221.568
221.737
221.895
222.043
222.183
222.318
222.45
222.582
222.716
222.848
222.976
223.096
223.21
223.32
223.428
223.532
223.634
223.735
223.834
223.934
224.034
224.13
224.224
224.317
224.411
224.504
224.598
224.695
224.794
224.898
225.01
225.132
225.266
225.412
225.569
225.733
225.902
226.068
226.228
226.377
226.512
226.63
226.73
226.813
226.881
226.937
226.984
227.026
227.066
227.107
227.153
227.214
227.31
227.472
227.731
228.109
228.604
229.182
229.791
230.37
230.865
231.227
231.43
231.581
232.019
233.624
196.739
212.965
214.59
214.558
214.994
215.569
216.019
216.317
216.528
216.725
216.963
217.26
217.6
217.952
218.29
218.602
218.889
219.157
219.406
219.64
219.86
220.068
220.263
220.448
220.623
220.787
220.942
221.089
221.228
221.36
221.488
221.614
221.74
221.866
221.991
222.112
222.225
222.333
222.438
222.539
222.638
222.736
222.832
222.929
223.025
223.118
223.209
223.299
223.39
223.48
223.572
223.664
223.759
223.859
223.964
224.078
224.204
224.341
224.49
224.647
224.809
224.97
225.126
225.27
225.401
225.514
225.611
225.69
225.754
225.805
225.848
225.886
225.922
225.958
225.998
226.054
226.145
226.301
226.554
226.926
227.414
227.985
228.584
229.152
229.638
229.992
230.192
230.338
230.763
232.319
196.244
212.195
213.793
213.761
214.186
214.746
215.182
215.469
215.671
215.856
216.099
216.417
216.779
217.144
217.481
217.785
218.061
218.317
218.557
218.782
218.993
219.193
219.382
219.56
219.728
219.887
220.039
220.186
220.328
220.463
220.59
220.71
220.826
220.942
221.061
221.179
221.293
221.4
221.5
221.597
221.693
221.788
221.881
221.973
222.063
222.15
222.237
222.323
222.41
222.496
222.583
222.67
222.759
222.852
222.949
223.054
223.169
223.295
223.432
223.579
223.732
223.885
224.033
224.171
224.295
224.402
224.491
224.563
224.62
224.663
224.698
224.728
224.755
224.783
224.815
224.862
224.945
225.094
225.34
225.707
226.186
226.741
227.322
227.874
228.346
228.691
228.886
229.029
229.442
230.939
195.757
211.438
213.01
212.978
213.391
213.937
214.36
214.636
214.829
215
215.268
215.614
215.996
216.37
216.705
216.998
217.262
217.507
217.737
217.953
218.158
218.351
218.535
218.708
218.871
219.025
219.175
219.323
219.471
219.614
219.747
219.865
219.972
220.073
220.179
220.291
220.403
220.506
220.601
220.692
220.782
220.872
220.962
221.044
221.124
221.203
221.283
221.361
221.44
221.518
221.596
221.674
221.754
221.835
221.92
222.011
222.111
222.22
222.341
222.472
222.61
222.75
222.886
223.012
223.125
223.219
223.296
223.354
223.396
223.425
223.446
223.461
223.474
223.489
223.508
223.545
223.617
223.756
223.993
224.353
224.816
225.351
225.912
226.445
226.902
227.237
227.428
227.57
227.972
229.393
195.278
210.694
212.24
212.207
212.61
213.141
213.552
213.817
213.999
214.166
214.399
214.662
214.998
215.364
215.699
215.994
216.261
216.513
216.751
216.977
217.19
217.393
217.583
217.762
217.929
218.085
218.236
218.388
218.544
218.7
218.845
218.967
219.065
219.149
219.235
219.335
219.441
219.536
219.621
219.703
219.784
219.868
219.952
220.02
220.084
220.152
220.22
220.287
220.352
220.417
220.481
220.546
220.611
220.677
220.746
220.819
220.898
220.987
221.086
221.196
221.312
221.431
221.548
221.655
221.749
221.826
221.885
221.927
221.953
221.968
221.975
221.978
221.979
221.982
221.991
222.016
222.079
222.208
222.435
222.783
223.243
223.794
224.369
224.908
225.366
225.699
225.887
226.029
226.424
227.759
194.807
209.963
211.483
211.449
211.842
212.359
212.757
213.011
213.178
213.374
213.1
212.854
212.991
213.345
213.727
214.085
214.422
214.746
215.054
215.345
215.618
215.871
216.104
216.318
216.509
216.682
216.843
217.001
217.165
217.332
217.489
217.618
217.711
217.777
217.84
217.921
218.014
218.097
218.167
218.24
218.312
218.392
218.472
218.527
218.575
218.633
218.692
218.749
218.804
218.858
218.912
218.966
219.021
219.077
219.135
219.194
219.259
219.332
219.415
219.507
219.608
219.712
219.815
219.91
219.993
220.059
220.108
220.141
220.158
220.164
220.162
220.156
220.15
220.145
220.146
220.164
220.218
220.338
220.556
220.878
221.462
222.208
222.941
223.582
224.103
224.476
224.688
224.847
225.255
226.554
194.344
209.243
210.738
210.704
211.086
211.59
211.975
212.218
212.364
212.622
210.308
208.77
208.59
209.025
209.595
210.166
210.719
211.248
211.745
212.203
212.619
212.992
213.322
213.609
213.854
214.06
214.235
214.396
214.557
214.721
214.878
215.007
215.095
215.145
215.184
215.241
215.319
215.384
215.442
215.51
215.581
215.665
215.754
215.806
215.85
215.912
215.977
216.041
216.102
216.163
216.225
216.287
216.35
216.413
216.475
216.538
216.604
216.675
216.755
216.843
216.939
217.039
217.138
217.231
217.313
217.38
217.43
217.464
217.485
217.494
217.496
217.494
217.49
217.488
217.491
217.509
217.561
217.674
217.878
218.152
219.285
220.66
221.85
222.788
223.505
224.006
224.302
224.522
224.999
226.456
193.888
208.535
210.005
209.971
210.343
210.833
211.206
211.438
211.562
211.841
205.37
202.272
201.997
202.733
203.673
204.604
205.485
206.302
207.044
207.707
208.288
208.788
209.211
209.56
209.838
210.053
210.215
210.346
210.466
210.589
210.71
210.809
210.866
210.877
210.868
210.879
210.92
210.954
210.989
211.05
211.119
211.209
211.313
211.373
211.425
211.505
211.594
211.684
211.773
211.863
211.956
212.05
212.145
212.239
212.331
212.422
212.513
212.607
212.706
212.811
212.922
213.037
213.152
213.263
213.363
213.451
213.525
213.583
213.627
213.66
213.685
213.703
213.718
213.73
213.746
213.772
213.825
213.93
214.113
214.333
216.61
219.01
220.884
222.266
223.273
223.967
224.393
224.708
225.292
226.986
193.439
207.838
209.284
209.249
209.611
210.087
210.449
210.67
210.784
211.013
204.889
201.997
201.752
202.457
203.357
204.253
205.105
205.898
206.623
207.273
207.846
208.341
208.761
209.108
209.385
209.598
209.756
209.877
209.983
210.094
210.21
210.313
210.378
210.392
210.376
210.376
210.408
210.431
210.462
210.537
210.628
210.748
210.889
210.973
211.045
211.156
211.281
211.409
211.54
211.676
211.817
211.962
212.109
212.255
212.401
212.546
212.692
212.84
212.992
213.15
213.313
213.481
213.648
213.81
213.961
214.097
214.217
214.318
214.402
214.473
214.532
214.583
214.628
214.669
214.712
214.764
214.844
214.978
215.194
215.479
217.41
219.427
221.006
222.178
223.041
223.641
224.009
224.3
224.9
226.67
192.998
207.152
208.574
208.539
208.891
209.354
209.703
209.915
210.02
210.239
204.196
201.332
201.083
201.774
202.66
203.542
204.38
205.161
205.873
206.514
207.078
207.567
207.98
208.32
208.592
208.8
208.952
209.062
209.151
209.24
209.337
209.43
209.495
209.513
209.496
209.488
209.507
209.501
209.502
209.56
209.638
209.749
209.886
209.948
209.99
210.081
210.188
210.3
210.416
210.539
210.667
210.798
210.93
211.062
211.195
211.329
211.463
211.601
211.742
211.89
212.044
212.203
212.365
212.524
212.674
212.811
212.931
213.034
213.12
213.192
213.251
213.302
213.346
213.385
213.425
213.474
213.549
213.677
213.884
214.139
215.971
217.866
219.323
220.396
221.186
221.738
222.08
222.361
222.945
224.589
192.563
206.478
207.876
207.839
208.182
208.632
208.969
209.171
209.269
209.478
203.539
200.725
200.478
201.154
202.022
202.888
203.711
204.476
205.176
205.804
206.359
206.84
207.246
207.582
207.851
208.06
208.215
208.327
208.41
208.484
208.562
208.641
208.705
208.732
208.728
208.732
208.754
208.732
208.709
208.758
208.834
208.948
209.094
209.147
209.172
209.254
209.355
209.463
209.576
209.694
209.813
209.931
210.047
210.162
210.276
210.39
210.502
210.614
210.726
210.84
210.958
211.079
211.2
211.317
211.425
211.518
211.595
211.653
211.693
211.72
211.736
211.743
211.746
211.745
211.745
211.756
211.793
211.879
212.04
212.212
213.96
215.78
217.191
218.242
219.027
219.585
219.942
220.243
220.837
222.396
192.135
205.813
207.188
207.15
207.483
207.92
208.246
208.439
208.528
208.729
202.892
200.12
199.866
200.521
201.37
202.221
203.031
203.785
204.473
205.09
205.635
206.108
206.508
206.839
207.105
207.316
207.478
207.597
207.682
207.746
207.805
207.862
207.912
207.942
207.952
207.974
208.01
207.977
207.929
207.966
208.04
208.159
208.321
208.374
208.387
208.467
208.57
208.684
208.804
208.926
209.045
209.158
209.269
209.381
209.494
209.607
209.718
209.826
209.932
210.039
210.147
210.256
210.363
210.466
210.56
210.64
210.703
210.748
210.774
210.786
210.787
210.781
210.769
210.756
210.744
210.744
210.772
210.851
211.005
211.177
212.913
214.719
216.118
217.161
217.939
218.491
218.843
219.136
219.718
221.253
191.713
205.158
206.51
206.472
206.794
207.219
207.533
207.717
207.798
207.993
202.246
199.499
199.226
199.854
200.683
201.523
202.325
203.072
203.752
204.36
204.896
205.359
205.752
206.076
206.339
206.549
206.716
206.845
206.939
207.003
207.046
207.078
207.105
207.126
207.142
207.183
207.237
207.196
207.117
207.136
207.207
207.335
207.523
207.584
207.595
207.681
207.795
207.923
208.056
208.185
208.303
208.412
208.521
208.634
208.752
208.87
208.985
209.095
209.201
209.307
209.413
209.521
209.63
209.735
209.833
209.918
209.985
210.034
210.065
210.08
210.084
210.08
210.07
210.058
210.048
210.049
210.077
210.158
210.314
210.49
212.195
213.974
215.362
216.403
217.182
217.735
218.087
218.375
218.943
220.444
191.297
204.514
205.842
205.803
206.116
206.528
206.831
207.005
207.078
207.269
201.592
198.861
198.567
199.167
199.978
200.808
201.606
202.348
203.022
203.621
204.144
204.594
204.973
205.285
205.537
205.739
205.904
206.039
206.142
206.211
206.247
206.257
206.256
206.256
206.266
206.313
206.378
206.331
206.217
206.214
206.278
206.418
206.641
206.724
206.748
206.853
206.993
207.147
207.301
207.439
207.557
207.666
207.777
207.899
208.026
208.154
208.275
208.391
208.502
208.61
208.718
208.827
208.936
209.043
209.144
209.235
209.312
209.37
209.411
209.437
209.45
209.455
209.454
209.45
209.446
209.454
209.489
209.575
209.74
209.935
211.626
213.401
214.797
215.848
216.636
217.191
217.538
217.812
218.348
219.823
190.888
203.879
205.185
205.145
205.448
205.847
206.138
206.303
206.37
206.55
200.98
198.338
198.063
198.644
199.431
200.241
201.021
201.746
202.4
202.976
203.472
203.89
204.236
204.517
204.741
204.919
205.066
205.191
205.296
205.371
205.407
205.403
205.376
205.346
205.334
205.371
205.436
205.383
205.245
205.221
205.277
205.424
205.678
205.79
205.845
205.989
206.173
206.37
206.554
206.707
206.832
206.946
207.067
207.201
207.339
207.474
207.602
207.723
207.838
207.95
208.061
208.171
208.28
208.389
208.493
208.587
208.668
208.733
208.781
208.813
208.832
208.843
208.849
208.851
208.855
208.869
208.912
209.008
209.187
209.428
211.153
212.961
214.388
215.462
216.258
216.807
217.133
217.374
217.876
219.333
190.484
203.255
204.538
204.496
204.79
205.175
205.455
205.611
205.676
205.819
200.713
198.476
198.323
198.876
199.597
200.337
201.047
201.703
202.288
202.795
203.218
203.562
203.836
204.052
204.219
204.35
204.46
204.562
204.659
204.741
204.787
204.786
204.748
204.694
204.653
204.67
204.732
204.694
204.573
204.546
204.592
204.728
204.974
205.099
205.186
205.381
205.624
205.872
206.091
206.264
206.402
206.531
206.668
206.814
206.958
207.093
207.217
207.332
207.441
207.546
207.646
207.744
207.84
207.936
208.028
208.112
208.186
208.245
208.287
208.315
208.33
208.337
208.338
208.336
208.335
208.344
208.381
208.471
208.642
208.886
210.607
212.381
213.779
214.839
215.627
216.171
216.492
216.724
217.205
218.623
190.087
202.64
203.9
203.856
204.14
204.513
204.782
204.928
204.996
205.072
201.68
200.483
200.55
201.001
201.544
202.09
202.608
203.083
203.503
203.858
204.146
204.37
204.541
204.674
204.78
204.872
204.959
205.055
205.164
205.277
205.369
205.413
205.404
205.36
205.315
205.336
205.439
205.472
205.457
205.466
205.495
205.571
205.71
205.775
205.831
206.032
206.297
206.555
206.762
206.915
207.039
207.165
207.305
207.451
207.588
207.707
207.81
207.903
207.989
208.065
208.133
208.196
208.257
208.319
208.38
208.437
208.487
208.526
208.552
208.564
208.566
208.562
208.552
208.542
208.533
208.537
208.57
208.66
208.833
209.102
210.517
211.929
213.083
214.001
214.705
215.193
215.473
215.668
216.104
217.425
189.694
202.031
203.269
203.223
203.497
203.857
204.115
204.253
204.324
204.366
204.616
204.868
205.102
205.341
205.578
205.808
206.028
206.244
206.452
206.648
206.825
206.98
207.118
207.245
207.366
207.486
207.61
207.75
207.915
208.099
208.277
208.408
208.47
208.469
208.455
208.537
208.765
208.957
209.166
209.274
209.283
209.234
209.131
209.008
208.901
208.99
209.156
209.289
209.34
209.329
209.31
209.326
209.387
209.476
209.569
209.659
209.745
209.832
209.918
210
210.08
210.161
210.241
210.323
210.406
210.486
210.556
210.614
210.656
210.683
210.699
210.708
210.713
210.719
210.73
210.756
210.817
210.944
211.167
211.519
211.942
212.443
212.99
213.519
213.972
214.296
214.469
214.592
214.969
216.195
189.305
201.427
202.643
202.596
202.86
203.207
203.454
203.583
203.649
203.718
203.813
203.978
204.203
204.454
204.703
204.938
205.159
205.37
205.575
205.768
205.944
206.1
206.236
206.359
206.474
206.585
206.697
206.817
206.959
207.127
207.307
207.456
207.538
207.549
207.554
207.7
208.071
208.434
208.903
209.135
209.138
208.966
208.593
208.306
208.072
208.106
208.261
208.385
208.419
208.393
208.377
208.415
208.502
208.606
208.707
208.797
208.882
208.965
209.047
209.127
209.204
209.279
209.353
209.426
209.499
209.569
209.632
209.685
209.724
209.751
209.766
209.775
209.781
209.788
209.799
209.825
209.887
210.012
210.233
210.571
211.031
211.576
212.151
212.695
213.152
213.475
213.641
213.75
214.097
215.269
188.917
200.827
202.02
201.972
202.226
202.561
202.797
202.918
202.977
203.039
203.153
203.331
203.557
203.804
204.047
204.274
204.486
204.686
204.88
205.066
205.24
205.398
205.54
205.668
205.787
205.9
206.011
206.123
206.247
206.398
206.569
206.725
206.821
206.852
206.911
207.186
207.775
208.325
209.047
209.44
209.465
209.166
208.502
208.002
207.553
207.448
207.544
207.645
207.663
207.634
207.632
207.691
207.792
207.902
208.003
208.096
208.186
208.278
208.369
208.458
208.544
208.626
208.706
208.785
208.861
208.935
209.002
209.058
209.1
209.128
209.144
209.151
209.153
209.153
209.156
209.172
209.222
209.334
209.539
209.86
210.292
210.806
211.35
211.864
212.291
212.584
212.718
212.791
213.095
214.2
188.53
200.229
201.401
201.351
201.596
201.919
202.143
202.255
202.307
202.364
202.472
202.645
202.867
203.11
203.351
203.576
203.782
203.974
204.158
204.335
204.505
204.664
204.81
204.945
205.072
205.192
205.308
205.418
205.532
205.666
205.821
205.967
206.061
206.106
206.237
206.684
207.539
208.251
209.224
209.854
209.929
209.459
208.445
207.663
206.906
206.576
206.564
206.626
206.631
206.602
206.609
206.674
206.77
206.867
206.958
207.047
207.139
207.234
207.328
207.42
207.507
207.59
207.669
207.744
207.816
207.884
207.945
207.995
208.031
208.051
208.057
208.052
208.04
208.024
208.009
208.006
208.033
208.12
208.297
208.585
208.982
209.458
209.962
210.436
210.823
211.077
211.172
211.206
211.467
212.47
188.146
199.634
200.784
200.733
200.968
201.28
201.493
201.597
201.641
201.691
201.794
201.961
202.177
202.417
202.655
202.878
203.082
203.268
203.443
203.61
203.772
203.929
204.078
204.22
204.355
204.483
204.605
204.721
204.838
204.966
205.112
205.247
205.328
205.373
205.566
206.18
207.302
208.123
209.415
210.379
210.441
209.618
208.05
206.868
205.734
205.136
204.994
205.01
205.002
204.974
204.981
205.035
205.109
205.187
205.268
205.358
205.457
205.559
205.659
205.755
205.845
205.929
206.007
206.078
206.143
206.201
206.25
206.286
206.307
206.311
206.3
206.274
206.239
206.199
206.16
206.133
206.136
206.198
206.35
206.613
206.984
207.437
207.92
208.377
208.753
209
209.094
209.128
209.378
210.289
187.766
199.047
200.176
200.121
200.348
200.647
200.851
200.945
200.982
201.026
201.122
201.283
201.495
201.73
201.965
202.187
202.39
202.574
202.743
202.901
203.055
203.206
203.355
203.499
203.637
203.767
203.886
204.008
204.136
204.277
204.434
204.57
204.643
204.68
204.896
205.613
206.951
207.816
209.608
210.797
210.54
209.061
206.549
204.876
203.409
202.617
202.395
202.394
202.402
202.401
202.43
202.492
202.572
202.665
202.775
202.903
203.041
203.178
203.308
203.429
203.541
203.643
203.736
203.818
203.889
203.951
204.001
204.037
204.053
204.052
204.035
204.009
203.977
203.942
203.91
203.892
203.906
203.98
204.143
204.416
204.797
205.261
205.757
206.231
206.629
206.902
207.027
207.092
207.361
208.226
187.397
198.479
199.586
199.528
199.745
200.033
200.226
200.312
200.342
200.379
200.469
200.625
200.831
201.061
201.293
201.514
201.718
201.902
202.068
202.221
202.368
202.514
202.658
202.797
202.928
203.048
203.151
203.272
203.413
203.576
203.766
203.922
204.01
204.054
204.265
204.998
206.464
207.348
209.174
209.762
208.647
206.416
203.206
201.363
199.885
199.163
199.05
199.182
199.329
199.464
199.609
199.767
199.933
200.112
200.306
200.507
200.701
200.88
201.04
201.182
201.307
201.419
201.516
201.599
201.669
201.729
201.778
201.815
201.839
201.85
201.849
201.838
201.823
201.807
201.797
201.804
201.847
201.951
202.146
202.452
202.867
203.363
203.895
204.405
204.839
205.15
205.312
205.411
205.7
206.536
187.051
197.95
199.036
198.974
199.181
199.459
199.643
199.721
199.743
199.774
199.859
200.01
200.211
200.436
200.664
200.883
201.088
201.274
201.442
201.594
201.736
201.877
202.014
202.143
202.257
202.362
202.448
202.561
202.706
202.886
203.105
203.289
203.422
203.52
203.75
204.45
205.959
206.97
207.932
206.274
204.132
201.712
198.452
197.581
196.644
196.271
196.441
196.832
197.217
197.542
197.818
198.063
198.292
198.514
198.73
198.927
199.097
199.24
199.361
199.464
199.551
199.626
199.692
199.747
199.796
199.839
199.88
199.917
199.949
199.975
199.997
200.014
200.03
200.048
200.073
200.116
200.194
200.333
200.56
200.896
201.34
201.863
202.421
202.958
203.419
203.756
203.945
204.068
204.37
205.19
186.747
197.488
198.556
198.489
198.687
198.955
199.132
199.203
199.219
199.245
199.325
199.471
199.667
199.889
200.113
200.33
200.534
200.723
200.895
201.049
201.191
201.327
201.457
201.574
201.677
201.783
201.888
202.002
202.138
202.304
202.499
202.69
202.889
203.112
203.453
204.135
205.613
206.956
198.768
193.212
191.108
189.334
193.253
195.425
195.112
194.919
195.198
195.693
196.184
196.595
196.923
197.191
197.421
197.624
197.798
197.932
198.027
198.094
198.145
198.188
198.228
198.268
198.308
198.346
198.384
198.422
198.462
198.502
198.543
198.582
198.62
198.658
198.695
198.735
198.784
198.85
198.952
199.114
199.363
199.719
200.181
200.722
201.297
201.85
202.329
202.683
202.888
203.027
203.337
204.146
186.502
197.121
198.174
198.103
198.294
198.556
198.726
198.792
198.805
198.826
198.903
199.046
199.24
199.459
199.68
199.894
200.097
200.287
200.463
200.622
200.766
200.899
201.022
201.14
201.259
201.412
201.615
201.764
201.883
201.989
202.063
202.209
202.474
202.896
203.47
204.179
205.541
207.182
187.193
178.791
177.229
175.874
189.877
195.138
195.046
194.689
194.769
195.134
195.581
195.996
196.344
196.635
196.884
197.087
197.242
197.347
197.408
197.438
197.453
197.46
197.464
197.471
197.481
197.494
197.51
197.532
197.558
197.59
197.625
197.663
197.703
197.745
197.791
197.842
197.902
197.98
198.093
198.267
198.527
198.893
199.364
199.915
200.499
201.061
201.548
201.912
202.127
202.274
202.588
203.388
186.329
196.868
197.912
197.835
198.022
198.279
198.447
198.511
198.522
198.542
198.618
198.762
198.956
199.174
199.396
199.608
199.809
199.999
200.178
200.342
200.487
200.617
200.743
200.892
201.086
201.349
201.743
201.972
202.079
202.08
201.929
201.965
202.281
202.948
203.848
204.623
205.812
207.482
179.771
169.782
168.647
167.667
188.76
196.068
196.031
195.406
195.128
195.209
195.502
195.863
196.205
196.51
196.782
197.016
197.2
197.321
197.383
197.402
197.384
197.347
197.305
197.263
197.223
197.187
197.16
197.143
197.138
197.143
197.159
197.183
197.214
197.251
197.293
197.342
197.402
197.48
197.595
197.769
198.032
198.4
198.873
199.425
200.012
200.576
201.066
201.433
201.651
201.801
202.117
202.91
186.23
196.731
197.769
197.688
197.871
198.126
198.292
198.356
198.367
198.389
198.467
198.612
198.81
199.032
199.257
199.472
199.674
199.866
200.047
200.214
200.36
200.489
200.639
200.871
201.222
201.653
202.293
202.637
202.739
202.616
202.176
202.039
202.377
203.263
204.474
205.295
206.391
208.107
177.714
167.209
166.249
165.496
190.698
199.093
198.787
197.666
196.803
196.389
196.368
196.568
196.819
197.063
197.306
197.539
197.737
197.877
197.95
197.972
197.889
197.794
197.695
197.587
197.477
197.371
197.28
197.207
197.153
197.119
197.102
197.1
197.11
197.129
197.158
197.195
197.244
197.314
197.421
197.59
197.847
198.211
198.681
199.231
199.814
200.376
200.864
201.228
201.446
201.594
201.909
202.698
186.195
196.691
197.726
197.641
197.821
198.074
198.239
198.301
198.312
198.334
198.413
198.561
198.762
198.99
199.22
199.441
199.649
199.846
200.033
200.203
200.349
200.484
200.689
201.071
201.668
202.299
203.18
203.669
203.783
203.529
202.781
202.4
202.689
203.632
204.967
205.711
207.017
209.163
178.702
168.144
167.187
166.503
195.495
204.466
203.464
201.562
199.904
198.82
198.343
198.272
198.331
198.41
198.51
198.635
198.76
198.857
198.909
198.928
198.717
198.573
198.432
198.268
198.092
197.921
197.768
197.638
197.535
197.457
197.403
197.367
197.348
197.341
197.344
197.359
197.388
197.44
197.531
197.686
197.931
198.285
198.747
199.288
199.865
200.421
200.903
201.262
201.474
201.618
201.929
202.718
186.203
196.714
197.749
197.661
197.839
198.091
198.253
198.313
198.321
198.34
198.417
198.564
198.764
198.992
199.225
199.45
199.664
199.867
200.061
200.234
200.377
200.525
200.814
201.401
202.313
203.14
204.262
204.974
205.129
204.698
203.585
202.861
202.769
203.452
204.573
205.096
207.102
209.781
180.094
169.512
168.51
167.901
198.331
208.146
206.738
204.433
202.42
200.888
200.05
199.756
199.652
199.585
199.547
199.537
199.539
199.536
199.525
199.521
199.328
199.211
199.092
198.941
198.767
198.589
198.422
198.274
198.149
198.047
197.965
197.901
197.852
197.814
197.789
197.776
197.779
197.807
197.876
198.011
198.238
198.576
199.024
199.553
200.118
200.662
201.134
201.483
201.686
201.821
202.127
202.917
186.231
196.762
197.799
197.709
197.888
198.139
198.301
198.36
198.365
198.381
198.454
198.596
198.792
199.016
199.246
199.469
199.683
199.888
200.083
200.253
200.388
200.546
200.918
201.711
202.942
203.924
205.377
206.465
206.659
205.905
204.231
203.004
202.365
202.548
203.192
203.526
206.662
209.472
179.684
169.388
168.629
168.28
199.984
210.36
207.123
204.848
202.919
200.888
199.617
199.151
199.015
199.012
199.077
199.163
199.25
199.331
199.403
199.475
199.354
199.309
199.27
199.207
199.123
199.026
198.926
198.83
198.741
198.661
198.588
198.521
198.461
198.407
198.362
198.327
198.308
198.313
198.36
198.474
198.682
199.002
199.432
199.946
200.495
201.026
201.483
201.819
202.009
202.132
202.43
203.222
186.257
196.806
197.844
197.755
197.934
198.188
198.351
198.411
198.417
198.433
198.505
198.646
198.84
199.06
199.286
199.506
199.716
199.919
200.112
200.277
200.402
200.556
200.972
201.89
203.351
204.41
206.47
207.988
208.058
206.746
204.093
202.273
201.16
200.954
201.275
201.485
204.995
206.685
176.166
169.546
169.438
169.416
203.311
211.109
203.796
205.091
203.662
200.839
198.973
198.392
198.19
198.2
198.336
198.48
198.598
198.723
198.852
198.971
198.895
198.9
198.924
198.942
198.957
198.955
198.943
198.927
198.907
198.886
198.864
198.841
198.815
198.788
198.762
198.739
198.725
198.731
198.774
198.881
199.081
199.391
199.812
200.315
200.853
201.372
201.818
202.141
202.319
202.432
202.722
203.514
186.27
196.828
197.866
197.776
197.957
198.212
198.378
198.44
198.448
198.467
198.542
198.685
198.881
199.103
199.33
199.55
199.76
199.964
200.157
200.325
200.451
200.6
201
201.913
203.438
204.522
206.977
208.372
207.902
205.927
202.416
200.353
199.245
199.179
199.816
199.816
191.621
204.208
202.898
200.331
199.088
198.689
198.509
198.37
198.288
198.278
198.315
198.418
198.571
198.707
198.627
198.638
198.679
198.728
198.791
198.832
198.862
198.881
198.892
198.898
198.9
198.898
198.889
198.877
198.863
198.849
198.842
198.853
198.901
199.013
199.218
199.533
199.958
200.465
201.007
201.529
201.975
202.299
202.475
202.585
202.875
203.661
186.268
196.826
197.862
197.772
197.952
198.208
198.374
198.436
198.446
198.466
198.542
198.687
198.885
199.11
199.34
199.562
199.775
199.981
200.179
200.358
200.502
200.652
200.99
201.77
203.164
204.341
206.619
206.321
204.96
202.715
198.891
197.808
197.417
197.969
199.501
200.276
191.979
204.269
202.949
200.418
199.14
198.678
198.461
198.301
198.189
198.14
198.145
198.23
198.357
198.47
198.375
198.38
198.426
198.491
198.585
198.659
198.726
198.779
198.819
198.85
198.875
198.893
198.904
198.908
198.907
198.902
198.901
198.915
198.965
199.077
199.28
199.596
200.021
200.529
201.072
201.594
202.041
202.363
202.538
202.645
202.932
203.7
186.256
196.807
197.842
197.751
197.93
198.184
198.349
198.41
198.419
198.438
198.514
198.659
198.858
199.083
199.313
199.537
199.751
199.957
200.158
200.348
200.515
200.673
200.93
201.493
202.567
203.961
197.646
193.328
191.687
189.943
193.56
195.778
196.287
197.247
199.258
200.628
191.745
204.028
202.803
200.374
199.138
198.691
198.482
198.321
198.209
198.162
198.182
198.277
198.374
198.464
198.376
198.377
198.412
198.459
198.525
198.593
198.673
198.743
198.801
198.847
198.885
198.915
198.94
198.957
198.969
198.977
198.986
199.01
199.066
199.184
199.393
199.711
200.139
200.649
201.192
201.714
202.159
202.478
202.648
202.75
203.029
203.777
186.24
196.784
197.818
197.725
197.903
198.157
198.32
198.38
198.388
198.406
198.481
198.625
198.822
199.047
199.277
199.5
199.714
199.92
200.121
200.318
200.504
200.676
200.871
201.205
201.834
203.272
184.702
177.042
175.779
174.51
189.078
194.81
195.806
196.73
198.799
200.5
191.715
204.025
202.942
200.694
199.616
199.225
199.014
198.837
198.707
198.647
198.667
198.745
198.817
198.914
198.888
198.897
198.898
198.872
198.808
198.8
198.84
198.896
198.95
198.993
199.027
199.055
199.079
199.099
199.114
199.126
199.141
199.169
199.232
199.356
199.57
199.893
200.325
200.838
201.384
201.906
202.35
202.666
202.831
202.926
203.197
203.93
186.227
196.765
197.799
197.706
197.883
198.137
198.3
198.359
198.365
198.383
198.456
198.599
198.795
199.019
199.248
199.47
199.682
199.886
200.085
200.281
200.476
200.665
200.842
201.026
201.218
202.261
175.081
165.318
164.391
163.686
186.18
194.358
195.604
196.212
197.942
199.621
191.798
204.282
203.47
201.507
200.557
200.173
199.94
199.745
199.591
199.511
199.523
199.591
199.691
199.863
199.986
200.036
199.991
199.84
199.535
199.367
199.294
199.289
199.313
199.337
199.352
199.363
199.374
199.385
199.397
199.408
199.422
199.451
199.513
199.636
199.849
200.172
200.604
201.116
201.66
202.18
202.619
202.929
203.087
203.172
203.433
204.158
186.22
196.757
197.79
197.697
197.875
198.129
198.293
198.352
198.359
198.376
198.45
198.592
198.787
199.009
199.237
199.457
199.666
199.866
200.06
200.251
200.443
200.638
200.823
200.966
200.901
201.48
170.594
159.836
159.019
158.78
185.477
194.984
196.143
196.113
197.045
198.227
191.931
204.711
204.267
202.523
201.556
201.097
200.833
200.639
200.489
200.422