/*--------------------------------*- C++ -*----------------------------------*\
| =========                 |                                                 |
| \\      /  F ield         | OpenFOAM: The Open Source CFD Toolbox           |
|  \\    /   O peration     | Version:  v2012                                 |
|   \\  /    A nd           | Website:  www.openfoam.com                      |
|    \\/     M anipulation  |                                                 |
\*---------------------------------------------------------------------------*/
FoamFile
{
    version     2.0;
    format      ascii;
    class       volScalarField;
    location    "200/air";
    object      ILambda_2_0;
}
// * * * * * * * * * * * * * * * * * * * * * * * * * * * * * * * * * * * * * //

dimensions      [1 0 -3 0 0 0 0];


internalField   nonuniform List<scalar> 
287104
(
206.101
211.169
211.888
212.908
213.714
214.315
214.773
215.122
215.408
215.686
215.993
216.342
216.717
217.099
217.469
217.818
218.144
218.45
218.738
219.009
219.267
219.511
219.744
219.966
220.177
220.378
220.57
220.753
220.929
221.098
221.263
221.425
221.583
221.739
221.891
222.039
222.184
222.325
222.463
222.599
222.732
222.863
222.992
223.121
223.247
223.37
223.492
223.613
223.735
223.857
223.982
224.113
224.252
224.4
224.561
224.735
224.921
225.117
225.319
225.521
225.72
225.909
226.085
226.244
226.384
226.506
226.609
226.695
226.767
226.831
226.891
226.952
227.017
227.087
227.166
227.264
227.4
227.602
227.893
228.284
228.755
229.269
229.779
230.251
230.658
230.968
231.163
231.355
231.874
233.326
211.948
217.894
218.507
219.564
220.382
220.974
221.409
221.726
221.974
222.215
222.495
222.826
223.191
223.567
223.93
224.272
224.59
224.885
225.161
225.419
225.662
225.891
226.108
226.313
226.507
226.689
226.86
227.023
227.178
227.329
227.478
227.623
227.766
227.904
228.036
228.162
228.286
228.407
228.526
228.642
228.755
228.866
228.976
229.086
229.193
229.297
229.399
229.5
229.601
229.704
229.808
229.918
230.035
230.162
230.302
230.457
230.627
230.81
231.002
231.199
231.393
231.578
231.75
231.905
232.039
232.153
232.245
232.318
232.376
232.424
232.468
232.512
232.561
232.618
232.685
232.775
232.911
233.124
233.444
233.883
234.422
235.015
235.605
236.147
236.606
236.945
237.148
237.352
237.974
239.785
210.1
215.7
216.3
217.323
218.107
218.671
219.084
219.384
219.618
219.845
220.11
220.425
220.774
221.133
221.482
221.81
222.114
222.396
222.66
222.907
223.14
223.359
223.567
223.763
223.947
224.121
224.283
224.436
224.583
224.726
224.868
225.008
225.146
225.279
225.404
225.523
225.639
225.754
225.866
225.975
226.082
226.186
226.289
226.392
226.493
226.591
226.687
226.782
226.877
226.972
227.07
227.171
227.279
227.396
227.524
227.666
227.823
227.993
228.173
228.358
228.542
228.717
228.88
229.024
229.149
229.252
229.334
229.398
229.447
229.486
229.522
229.558
229.6
229.648
229.708
229.79
229.916
230.117
230.422
230.84
231.354
231.917
232.476
232.989
233.424
233.747
233.939
234.138
234.753
236.513
209.175
214.653
215.25
216.251
217.015
217.563
217.963
218.251
218.474
218.693
218.949
219.256
219.597
219.949
220.29
220.611
220.909
221.186
221.444
221.686
221.914
222.129
222.332
222.524
222.704
222.873
223.031
223.18
223.321
223.46
223.598
223.736
223.872
224.004
224.127
224.243
224.354
224.466
224.575
224.681
224.784
224.884
224.984
225.085
225.183
225.277
225.37
225.462
225.554
225.647
225.741
225.838
225.94
226.05
226.171
226.304
226.451
226.613
226.785
226.964
227.142
227.313
227.471
227.611
227.732
227.831
227.909
227.969
228.015
228.051
228.083
228.116
228.154
228.199
228.255
228.332
228.454
228.649
228.947
229.357
229.862
230.415
230.964
231.468
231.896
232.211
232.398
232.591
233.193
234.896
208.494
213.894
214.482
215.463
216.21
216.743
217.13
217.407
217.621
217.83
218.078
218.378
218.712
219.057
219.393
219.708
220.001
220.272
220.526
220.763
220.987
221.198
221.397
221.585
221.762
221.928
222.083
222.228
222.367
222.501
222.634
222.768
222.902
223.032
223.155
223.269
223.377
223.485
223.591
223.693
223.794
223.892
223.988
224.086
224.182
224.273
224.363
224.452
224.541
224.631
224.723
224.817
224.914
225.019
225.132
225.257
225.395
225.548
225.712
225.883
226.056
226.222
226.376
226.513
226.63
226.726
226.802
226.86
226.903
226.937
226.968
226.999
227.035
227.077
227.13
227.204
227.321
227.511
227.804
228.209
228.707
229.255
229.799
230.298
230.72
231.03
231.213
231.401
231.987
233.64
207.813
213.124
213.702
214.665
215.395
215.914
216.289
216.555
216.759
216.959
217.2
217.491
217.819
218.158
218.487
218.797
219.084
219.351
219.6
219.833
220.053
220.26
220.456
220.64
220.813
220.976
221.129
221.273
221.41
221.542
221.671
221.799
221.927
222.054
222.175
222.289
222.396
222.5
222.601
222.701
222.798
222.894
222.988
223.081
223.173
223.261
223.348
223.434
223.52
223.607
223.696
223.786
223.88
223.978
224.084
224.2
224.329
224.471
224.625
224.788
224.953
225.113
225.263
225.397
225.512
225.605
225.679
225.734
225.775
225.807
225.834
225.861
225.892
225.929
225.975
226.042
226.152
226.335
226.621
227.019
227.512
228.054
228.593
229.087
229.504
229.81
229.99
230.174
230.741
232.341
207.138
212.36
212.928
213.873
214.587
215.092
215.455
215.711
215.905
216.097
216.329
216.614
216.934
217.267
217.591
217.896
218.178
218.441
218.685
218.914
219.13
219.334
219.526
219.707
219.876
220.035
220.186
220.331
220.469
220.602
220.728
220.85
220.97
221.089
221.207
221.321
221.426
221.525
221.621
221.716
221.81
221.903
221.994
222.081
222.166
222.25
222.332
222.413
222.496
222.579
222.664
222.75
222.838
222.929
223.025
223.13
223.245
223.374
223.516
223.668
223.825
223.98
224.126
224.256
224.366
224.453
224.519
224.565
224.594
224.612
224.625
224.638
224.654
224.677
224.71
224.765
224.864
225.037
225.314
225.704
226.189
226.725
227.258
227.747
228.16
228.464
228.646
228.832
229.383
230.914
206.475
211.61
212.169
213.095
213.794
214.286
214.637
214.882
215.067
215.249
215.47
215.744
216.057
216.383
216.702
217.002
217.281
217.54
217.781
218.008
218.221
218.423
218.612
218.79
218.955
219.111
219.26
219.405
219.548
219.684
219.81
219.927
220.037
220.146
220.257
220.368
220.472
220.563
220.649
220.736
220.823
220.912
220.998
221.072
221.146
221.221
221.293
221.366
221.439
221.512
221.585
221.659
221.735
221.812
221.893
221.98
222.077
222.186
222.307
222.439
222.576
222.712
222.838
222.95
223.04
223.109
223.156
223.183
223.195
223.196
223.194
223.192
223.195
223.205
223.226
223.27
223.358
223.522
223.788
224.169
224.646
225.175
225.701
226.182
226.587
226.884
227.062
227.246
227.783
229.215
205.823
210.872
211.422
212.331
213.014
213.493
213.833
214.068
214.242
214.409
214.599
214.849
215.147
215.464
215.778
216.076
216.356
216.617
216.862
217.093
217.311
217.518
217.712
217.892
218.06
218.216
218.364
218.511
218.656
218.797
218.925
219.037
219.134
219.225
219.321
219.424
219.521
219.597
219.665
219.739
219.813
219.895
219.972
220.026
220.081
220.142
220.2
220.257
220.314
220.371
220.429
220.488
220.548
220.61
220.673
220.741
220.817
220.904
221.002
221.112
221.228
221.345
221.454
221.549
221.624
221.678
221.709
221.721
221.718
221.705
221.689
221.673
221.663
221.66
221.668
221.7
221.777
221.929
222.185
222.557
223.031
223.556
224.079
224.555
224.952
225.239
225.408
225.586
226.105
227.384
205.182
210.145
210.687
211.579
212.246
212.712
213.041
213.265
213.423
213.542
213.496
213.513
213.661
213.908
214.21
214.536
214.869
215.198
215.517
215.824
216.114
216.388
216.642
216.876
217.087
217.278
217.455
217.624
217.791
217.954
218.102
218.229
218.334
218.427
218.525
218.635
218.74
218.812
218.874
218.947
219.022
219.109
219.193
219.237
219.281
219.338
219.391
219.443
219.493
219.544
219.595
219.647
219.7
219.754
219.807
219.863
219.925
219.996
220.078
220.171
220.272
220.375
220.472
220.556
220.622
220.666
220.688
220.691
220.68
220.658
220.634
220.61
220.592
220.582
220.583
220.608
220.678
220.824
221.074
221.45
221.956
222.518
223.068
223.562
223.97
224.263
224.435
224.623
225.173
226.496
204.551
209.431
209.964
210.838
211.491
211.944
212.262
212.475
212.609
212.575
205.688
204.191
204.41
205.096
205.924
206.768
207.574
208.319
208.994
209.595
210.122
210.578
210.966
211.288
211.549
211.755
211.918
212.054
212.177
212.291
212.391
212.469
212.519
212.553
212.593
212.657
212.726
212.763
212.794
212.845
212.9
212.976
213.055
213.086
213.122
213.182
213.239
213.295
213.35
213.405
213.462
213.518
213.574
213.627
213.678
213.729
213.781
213.839
213.903
213.976
214.056
214.139
214.218
214.289
214.346
214.385
214.408
214.415
214.409
214.395
214.376
214.357
214.34
214.327
214.322
214.334
214.382
214.489
214.677
214.979
217.571
219.724
221.338
222.54
223.419
224.026
224.406
224.742
225.448
227.069
203.929
208.727
209.251
210.109
210.746
211.187
211.494
211.696
211.814
211.728
204.08
202.388
202.612
203.347
204.238
205.147
206.016
206.82
207.548
208.196
208.763
209.251
209.663
210.003
210.274
210.484
210.642
210.766
210.871
210.969
211.057
211.124
211.165
211.184
211.207
211.263
211.336
211.375
211.415
211.492
211.58
211.704
211.839
211.912
211.992
212.112
212.232
212.355
212.48
212.61
212.744
212.881
213.019
213.155
213.289
213.423
213.556
213.693
213.835
213.984
214.138
214.294
214.445
214.587
214.712
214.816
214.9
214.965
215.014
215.051
215.081
215.108
215.136
215.166
215.202
215.254
215.34
215.487
215.719
216.097
218.549
220.591
222.127
223.282
224.136
224.73
225.109
225.462
226.243
228.128
203.317
208.034
208.55
209.391
210.013
210.442
210.739
210.931
211.039
210.94
203.487
201.835
202.049
202.764
203.633
204.522
205.373
206.161
206.877
207.516
208.076
208.556
208.961
209.293
209.557
209.759
209.907
210.017
210.103
210.181
210.25
210.305
210.336
210.344
210.354
210.4
210.465
210.483
210.5
210.566
210.643
210.763
210.899
210.953
211.013
211.125
211.237
211.354
211.478
211.609
211.746
211.887
212.031
212.176
212.321
212.469
212.619
212.775
212.938
213.11
213.291
213.479
213.666
213.848
214.016
214.167
214.298
214.411
214.506
214.589
214.662
214.729
214.795
214.86
214.929
215.013
215.131
215.308
215.573
215.983
218.239
220.059
221.392
222.384
223.116
223.625
223.95
224.272
225.019
226.801
202.715
207.351
207.859
208.683
209.291
209.708
209.994
210.177
210.277
210.173
202.867
201.245
201.451
202.15
203.001
203.872
204.706
205.479
206.183
206.811
207.362
207.834
208.23
208.555
208.814
209.014
209.161
209.266
209.343
209.404
209.457
209.499
209.525
209.532
209.543
209.592
209.66
209.662
209.662
209.721
209.79
209.907
210.047
210.081
210.119
210.221
210.322
210.429
210.543
210.662
210.784
210.907
211.029
211.15
211.27
211.39
211.511
211.632
211.758
211.89
212.028
212.172
212.315
212.451
212.574
212.677
212.76
212.821
212.865
212.896
212.918
212.935
212.951
212.967
212.986
213.02
213.086
213.208
213.405
213.69
215.81
217.506
218.75
219.685
220.386
220.884
221.215
221.556
222.3
223.917
202.121
206.678
207.178
207.986
208.579
208.984
209.259
209.433
209.526
209.42
202.237
200.64
200.842
201.527
202.362
203.217
204.035
204.794
205.484
206.102
206.645
207.11
207.499
207.817
208.071
208.269
208.419
208.527
208.601
208.652
208.688
208.713
208.728
208.734
208.75
208.81
208.888
208.883
208.868
208.925
208.991
209.11
209.261
209.284
209.306
209.406
209.508
209.618
209.735
209.856
209.975
210.09
210.203
210.316
210.429
210.541
210.651
210.76
210.87
210.984
211.101
211.218
211.332
211.438
211.529
211.602
211.653
211.682
211.693
211.69
211.68
211.665
211.65
211.636
211.628
211.636
211.678
211.778
211.952
212.21
214.313
215.992
217.222
218.146
218.839
219.333
219.662
219.998
220.738
222.325
201.536
206.015
206.506
207.298
207.877
208.269
208.534
208.7
208.785
208.676
201.616
200.046
200.243
200.916
201.736
202.575
203.378
204.122
204.8
205.407
205.94
206.398
206.78
207.09
207.337
207.533
207.686
207.801
207.881
207.929
207.951
207.955
207.954
207.953
207.971
208.044
208.136
208.125
208.094
208.149
208.215
208.34
208.509
208.528
208.539
208.643
208.752
208.873
209
209.126
209.243
209.353
209.463
209.575
209.69
209.805
209.916
210.023
210.129
210.237
210.347
210.46
210.572
210.678
210.77
210.842
210.892
210.919
210.927
210.92
210.905
210.886
210.866
210.848
210.837
210.842
210.881
210.979
211.152
211.409
213.473
215.124
216.338
217.253
217.942
218.433
218.761
219.092
219.821
221.373
200.959
205.36
205.843
206.619
207.184
207.564
207.819
207.975
208.053
207.942
201.004
199.46
199.653
200.314
201.12
201.945
202.733
203.464
204.128
204.723
205.247
205.697
206.072
206.374
206.613
206.803
206.956
207.078
207.169
207.224
207.241
207.229
207.206
207.191
207.206
207.285
207.389
207.371
207.317
207.37
207.438
207.574
207.771
207.793
207.802
207.915
208.04
208.179
208.32
208.45
208.564
208.67
208.78
208.898
209.021
209.144
209.261
209.374
209.483
209.591
209.701
209.812
209.923
210.03
210.126
210.206
210.265
210.303
210.323
210.327
210.323
210.314
210.303
210.293
210.288
210.299
210.342
210.443
210.619
210.878
212.889
214.503
215.696
216.6
217.283
217.772
218.098
218.424
219.124
220.648
200.39
204.715
205.19
205.95
206.501
206.869
207.114
207.261
207.332
207.22
200.403
198.888
199.078
199.728
200.519
201.329
202.103
202.819
203.469
204.05
204.562
205.002
205.368
205.662
205.889
206.067
206.213
206.338
206.439
206.506
206.528
206.507
206.465
206.428
206.427
206.499
206.602
206.574
206.493
206.541
206.611
206.759
206.991
207.028
207.049
207.182
207.332
207.496
207.651
207.782
207.89
207.992
208.105
208.231
208.365
208.497
208.624
208.745
208.862
208.977
209.093
209.209
209.326
209.44
209.545
209.636
209.708
209.759
209.791
209.809
209.817
209.821
209.824
209.827
209.837
209.862
209.922
210.043
210.249
210.582
212.592
214.213
215.415
216.323
216.998
217.466
217.754
218.031
218.688
220.205
199.83
204.08
204.546
205.291
205.828
206.184
206.419
206.557
206.622
206.512
199.821
198.338
198.529
199.169
199.947
200.742
201.499
202.197
202.825
203.383
203.869
204.284
204.625
204.891
205.088
205.233
205.347
205.449
205.541
205.61
205.635
205.606
205.542
205.473
205.436
205.478
205.564
205.525
205.43
205.47
205.544
205.7
205.96
206.031
206.091
206.273
206.473
206.678
206.858
206.998
207.109
207.215
207.336
207.472
207.614
207.753
207.887
208.015
208.141
208.266
208.39
208.515
208.64
208.762
208.877
208.977
209.059
209.121
209.162
209.188
209.203
209.212
209.219
209.227
209.24
209.267
209.328
209.45
209.656
210.001
212.071
213.749
214.983
215.905
216.586
217.057
217.348
217.619
218.256
219.765
199.278
203.454
203.912
204.642
205.165
205.509
205.733
205.864
205.928
205.845
199.291
197.851
198.045
198.67
199.421
200.175
200.877
201.502
202.042
202.498
202.876
203.18
203.415
203.584
203.692
203.757
203.8
203.847
203.905
203.962
203.991
203.967
203.895
203.801
203.73
203.739
203.813
203.791
203.733
203.773
203.847
203.987
204.226
204.336
204.459
204.731
205.035
205.342
205.616
205.844
206.044
206.235
206.426
206.608
206.771
206.909
207.026
207.128
207.217
207.293
207.36
207.421
207.479
207.535
207.586
207.629
207.66
207.676
207.677
207.668
207.651
207.632
207.612
207.595
207.583
207.585
207.621
207.714
207.887
208.189
210.476
212.35
213.741
214.778
215.536
216.053
216.362
216.627
217.232
218.653
198.734
202.836
203.286
204
204.509
204.842
205.056
205.18
205.249
205.284
204.628
204.559
204.764
205.059
205.375
205.682
205.964
206.218
206.449
206.665
206.873
207.077
207.269
207.437
207.57
207.67
207.756
207.856
207.989
208.148
208.295
208.383
208.395
208.35
208.31
208.378
208.566
208.683
208.811
208.912
208.968
208.992
209.019
208.975
208.94
209.094
209.27
209.414
209.492
209.524
209.549
209.599
209.681
209.781
209.884
209.981
210.073
210.165
210.252
210.332
210.41
210.488
210.565
210.642
210.717
210.783
210.835
210.867
210.882
210.882
210.874
210.864
210.856
210.854
210.861
210.887
210.956
211.095
211.334
211.694
212.373
213.062
213.689
214.233
214.673
214.983
215.16
215.339
215.871
217.168
198.194
202.222
202.665
203.364
203.859
204.18
204.384
204.501
204.57
204.642
204.823
205.019
205.25
205.502
205.752
205.983
206.19
206.372
206.535
206.694
206.86
207.038
207.223
207.397
207.542
207.649
207.73
207.818
207.942
208.109
208.29
208.425
208.478
208.454
208.428
208.546
208.854
209.123
209.497
209.668
209.707
209.599
209.352
209.177
209.029
209.141
209.287
209.38
209.395
209.366
209.351
209.386
209.463
209.559
209.653
209.74
209.823
209.904
209.983
210.059
210.132
210.203
210.273
210.342
210.408
210.467
210.513
210.543
210.556
210.556
210.549
210.541
210.537
210.54
210.554
210.59
210.669
210.822
211.077
211.447
211.897
212.403
212.913
213.381
213.773
214.053
214.208
214.367
214.868
216.11
197.657
201.612
202.047
202.731
203.213
203.522
203.716
203.824
203.888
203.962
204.104
204.294
204.526
204.778
205.027
205.257
205.46
205.633
205.785
205.928
206.08
206.252
206.439
206.625
206.786
206.903
206.98
207.047
207.144
207.292
207.475
207.632
207.714
207.715
207.737
207.963
208.457
208.898
209.539
209.806
209.825
209.575
209.018
208.667
208.344
208.384
208.51
208.586
208.582
208.551
208.556
208.618
208.719
208.826
208.926
209.018
209.109
209.199
209.286
209.371
209.452
209.53
209.606
209.68
209.751
209.814
209.866
209.902
209.921
209.926
209.923
209.919
209.917
209.92
209.935
209.971
210.05
210.202
210.456
210.822
211.277
211.786
212.294
212.758
213.144
213.415
213.557
213.696
214.163
215.379
197.122
201.004
201.43
202.099
202.568
202.866
203.05
203.15
203.207
203.276
203.396
203.578
203.807
204.056
204.303
204.533
204.736
204.907
205.049
205.179
205.316
205.477
205.662
205.858
206.037
206.172
206.258
206.314
206.386
206.508
206.675
206.836
206.931
206.965
207.075
207.477
208.219
208.814
209.717
210.116
210.108
209.7
208.816
208.249
207.668
207.566
207.642
207.699
207.688
207.667
207.696
207.783
207.894
208.002
208.099
208.193
208.289
208.387
208.483
208.575
208.663
208.747
208.828
208.906
208.98
209.047
209.103
209.144
209.169
209.179
209.179
209.177
209.177
209.182
209.195
209.225
209.296
209.435
209.671
210.014
210.447
210.926
211.401
211.827
212.171
212.396
212.488
212.571
212.976
214.1
196.588
200.398
200.816
201.47
201.925
202.212
202.386
202.477
202.527
202.589
202.704
202.882
203.106
203.35
203.595
203.824
204.028
204.199
204.338
204.457
204.579
204.725
204.901
205.1
205.294
205.454
205.56
205.621
205.68
205.779
205.924
206.071
206.162
206.22
206.433
207.044
208.052
208.752
209.843
210.415
210.335
209.673
208.513
207.733
206.852
206.559
206.559
206.595
206.58
206.566
206.606
206.691
206.786
206.871
206.949
207.03
207.118
207.21
207.301
207.387
207.47
207.548
207.621
207.69
207.755
207.812
207.857
207.887
207.903
207.903
207.889
207.864
207.836
207.808
207.786
207.781
207.814
207.914
208.108
208.407
208.796
209.233
209.666
210.054
210.363
210.554
210.615
210.667
211.024
212.018
196.059
199.796
200.206
200.845
201.287
201.562
201.727
201.809
201.851
201.908
202.017
202.19
202.408
202.647
202.888
203.116
203.323
203.498
203.638
203.753
203.863
203.992
204.154
204.345
204.547
204.725
204.853
204.935
204.999
205.091
205.223
205.352
205.427
205.489
205.774
206.555
207.791
208.541
210.286
211.061
210.74
209.554
207.539
206.515
205.337
204.832
204.713
204.677
204.624
204.584
204.593
204.635
204.685
204.737
204.798
204.877
204.971
205.073
205.176
205.278
205.375
205.468
205.555
205.635
205.706
205.768
205.818
205.849
205.855
205.838
205.807
205.768
205.728
205.689
205.658
205.644
205.668
205.757
205.938
206.222
206.595
207.017
207.441
207.825
208.134
208.333
208.407
208.474
208.832
209.744
195.539
199.205
199.607
200.231
200.659
200.924
201.079
201.153
201.188
201.238
201.342
201.509
201.721
201.956
202.192
202.418
202.626
202.807
202.954
203.071
203.175
203.29
203.434
203.608
203.8
203.981
204.12
204.228
204.315
204.42
204.564
204.687
204.755
204.809
205.104
205.96
207.353
208.089
209.093
209.637
208.659
206.58
204.744
203.583
202.215
201.627
201.467
201.431
201.406
201.42
201.491
201.595
201.715
201.85
202.005
202.173
202.347
202.518
202.681
202.834
202.975
203.103
203.218
203.316
203.402
203.473
203.526
203.557
203.566
203.554
203.526
203.489
203.45
203.414
203.387
203.382
203.418
203.524
203.725
204.033
204.433
204.885
205.342
205.762
206.109
206.347
206.461
206.564
206.937
207.802
195.042
198.639
199.033
199.643
200.059
200.313
200.459
200.525
200.553
200.597
200.695
200.857
201.065
201.294
201.525
201.748
201.957
202.145
202.301
202.425
202.529
202.635
202.76
202.909
203.076
203.242
203.373
203.503
203.616
203.75
203.925
204.063
204.153
204.221
204.496
205.332
206.826
207.521
211.502
210.898
208.657
205.827
200.557
199.377
198.319
198.079
198.198
198.414
198.626
198.838
199.055
199.276
199.501
199.732
199.964
200.185
200.387
200.567
200.729
200.871
200.992
201.094
201.181
201.252
201.311
201.359
201.396
201.422
201.434
201.433
201.424
201.412
201.401
201.397
201.405
201.436
201.51
201.652
201.89
202.232
202.665
203.151
203.642
204.095
204.477
204.748
204.895
205.027
205.413
206.25
194.589
198.123
198.511
199.108
199.512
199.756
199.893
199.952
199.973
200.011
200.104
200.261
200.465
200.69
200.917
201.136
201.344
201.536
201.703
201.839
201.949
202.051
202.16
202.281
202.415
202.564
202.692
202.828
202.96
203.109
203.301
203.465
203.614
203.762
204.066
204.853
206.407
206.875
204.284
201.888
199.716
197.634
196.636
196.288
195.735
195.979
196.405
196.856
197.256
197.592
197.876
198.128
198.366
198.596
198.805
198.971
199.093
199.186
199.263
199.332
199.395
199.453
199.508
199.556
199.601
199.642
199.678
199.71
199.736
199.756
199.772
199.787
199.804
199.829
199.867
199.928
200.032
200.204
200.469
200.837
201.294
201.803
202.318
202.795
203.2
203.494
203.664
203.814
204.208
205.027
194.205
197.687
198.069
198.655
199.049
199.285
199.416
199.468
199.484
199.516
199.605
199.758
199.958
200.18
200.403
200.618
200.823
201.017
201.192
201.341
201.463
201.565
201.662
201.765
201.884
202.045
202.22
202.363
202.495
202.616
202.751
202.925
203.159
203.474
203.92
204.665
206.203
206.467
189.161
186.347
185.026
183.711
194.853
195.502
194.956
195.274
195.652
196.086
196.509
196.869
197.165
197.425
197.665
197.87
198.029
198.134
198.193
198.223
198.244
198.265
198.289
198.316
198.346
198.376
198.409
198.443
198.477
198.51
198.541
198.569
198.594
198.622
198.655
198.696
198.752
198.832
198.954
199.144
199.426
199.81
200.282
200.805
201.334
201.825
202.244
202.552
202.735
202.897
203.295
204.101
193.915
197.357
197.734
198.312
198.7
198.93
199.056
199.105
199.117
199.147
199.233
199.384
199.582
199.801
200.022
200.233
200.435
200.626
200.806
200.967
201.099
201.205
201.3
201.411
201.563
201.796
202.114
202.286
202.407
202.445
202.405
202.546
202.867
203.428
204.139
204.866
206.27
206.294
176.373
173.405
172.893
172.209
194.075
195.648
195.038
195.247
195.378
195.655
196.026
196.385
196.696
196.984
197.248
197.477
197.652
197.759
197.806
197.811
197.799
197.782
197.767
197.756
197.751
197.749
197.753
197.764
197.779
197.798
197.82
197.843
197.868
197.897
197.933
197.98
198.041
198.126
198.254
198.45
198.738
199.128
199.605
200.134
200.669
201.167
201.592
201.908
202.098
202.265
202.665
203.461
193.729
197.144
197.518
198.091
198.475
198.702
198.826
198.874
198.887
198.917
199.004
199.156
199.355
199.576
199.798
200.009
200.208
200.397
200.577
200.744
200.883
200.994
201.106
201.274
201.534
201.902
202.454
202.692
202.802
202.718
202.4
202.449
202.81
203.638
204.67
205.394
206.627
206.455
170.764
167.618
167.522
167.331
194.532
196.639
195.963
195.957
195.705
195.707
195.948
196.263
196.57
196.872
197.181
197.469
197.707
197.87
197.952
197.969
197.955
197.906
197.842
197.775
197.711
197.651
197.603
197.567
197.543
197.532
197.529
197.535
197.547
197.566
197.594
197.635
197.691
197.773
197.899
198.094
198.381
198.77
199.247
199.776
200.311
200.808
201.234
201.55
201.741
201.909
202.308
203.099
193.641
197.043
197.414
197.983
198.364
198.59
198.713
198.761
198.774
198.807
198.897
199.053
199.257
199.484
199.711
199.928
200.13
200.321
200.504
200.672
200.815
200.938
201.101
201.396
201.856
202.393
203.201
203.534
203.63
203.412
202.774
202.652
203.144
204.167
205.449
206.121
207.377
207.455
170.335
167.08
167.16
167.371
200.272
201.925
200.131
199.223
198.062
197.411
197.261
197.354
197.514
197.709
197.948
198.215
198.473
198.684
198.818
198.875
198.677
198.59
198.468
198.324
198.176
198.034
197.911
197.809
197.73
197.672
197.632
197.607
197.594
197.591
197.6
197.622
197.663
197.732
197.847
198.032
198.311
198.694
199.166
199.69
200.22
200.714
201.136
201.449
201.638
201.805
202.202
202.99
193.627
197.026
197.395
197.963
198.341
198.564
198.684
198.73
198.742
198.773
198.864
199.022
199.229
199.461
199.695
199.919
200.131
200.33
200.519
200.69
200.835
200.983
201.245
201.746
202.49
203.193
204.251
204.71
204.773
204.39
203.414
203.044
203.322
204.301
205.566
206.065
207.752
208.232
171.94
168.725
168.869
169.291
204.941
206.859
204.452
203.212
201.543
200.475
200.036
199.886
199.789
199.709
199.674
199.685
199.721
199.758
199.777
199.778
199.544
199.447
199.308
199.129
198.928
198.725
198.541
198.382
198.252
198.15
198.07
198.008
197.961
197.927
197.906
197.901
197.917
197.964
198.059
198.228
198.493
198.863
199.324
199.839
200.36
200.846
201.26
201.566
201.749
201.91
202.305
203.095
193.656
197.058
197.426
197.993
198.371
198.592
198.709
198.751
198.759
198.786
198.871
199.025
199.229
199.458
199.692
199.918
200.135
200.341
200.535
200.705
200.847
201.025
201.413
202.165
203.232
204.073
205.311
205.955
205.945
205.295
204.016
203.33
203.153
203.74
204.62
205.04
207.929
208.606
171.193
167.642
167.859
168.721
206.65
208.851
205.157
203.743
202.043
200.929
200.392
200.137
199.98
199.875
199.838
199.863
199.926
200.004
200.078
200.14
199.97
199.931
199.852
199.735
199.593
199.44
199.289
199.15
199.025
198.913
198.812
198.718
198.633
198.556
198.493
198.448
198.427
198.442
198.508
198.652
198.894
199.245
199.689
200.188
200.694
201.166
201.567
201.861
202.032
202.182
202.572
203.366
193.694
197.102
197.47
198.038
198.417
198.638
198.756
198.797
198.803
198.827
198.909
199.057
199.256
199.479
199.707
199.928
200.141
200.346
200.538
200.7
200.83
201.021
201.506
202.463
203.803
204.735
206.643
207.556
207.369
206.216
204.066
203.023
202.34
202.393
202.71
203.329
207.926
208.384
175.077
171.636
171.825
173.078
209.886
213.633
207.882
205.746
203.525
201.112
199.397
198.911
198.645
198.675
198.9
199.11
199.266
199.407
199.533
199.642
199.534
199.561
199.564
199.552
199.528
199.488
199.443
199.397
199.353
199.31
199.266
199.22
199.171
199.121
199.076
199.038
199.017
199.024
199.078
199.206
199.432
199.765
200.189
200.668
201.153
201.605
201.986
202.261
202.415
202.55
202.929
203.727
193.719
197.131
197.499
198.069
198.449
198.673
198.793
198.836
198.845
198.871
198.954
199.103
199.302
199.524
199.75
199.969
200.179
200.382
200.572
200.729
200.85
201.036
201.546
202.583
204.065
205.036
206.375
207.303
206.694
204.747
202.74
201.525
200.603
200.496
200.611
200.168
202.398
204.771
202.069
200.381
199.494
199.136
198.922
198.808
198.79
198.841
198.931
199.062
199.237
199.378
199.281
199.333
199.369
199.4
199.433
199.439
199.44
199.436
199.431
199.423
199.41
199.39
199.363
199.33
199.296
199.266
199.251
199.262
199.321
199.454
199.684
200.02
200.447
200.928
201.414
201.864
202.244
202.515
202.664
202.795
203.173
203.97
193.723
197.135
197.503
198.073
198.453
198.678
198.799
198.845
198.855
198.884
198.97
199.122
199.324
199.549
199.778
199.999
200.212
200.417
200.612
200.778
200.909
201.085
201.542
202.511
203.988
204.994
209.95
210.426
208.876
206.155
200.289
199.036
198.568
199.082
200.143
200.043
201.266
204.601
202.039
200.502
199.7
199.31
199.049
198.863
198.745
198.696
198.701
198.793
198.945
199.072
198.959
199.016
199.067
199.127
199.209
199.254
199.294
199.324
199.35
199.373
199.389
199.395
199.391
199.378
199.358
199.339
199.328
199.34
199.397
199.527
199.755
200.09
200.518
200.999
201.486
201.938
202.318
202.589
202.737
202.867
203.243
204.025
193.71
197.118
197.486
198.054
198.433
198.657
198.777
198.822
198.833
198.862
198.948
199.101
199.304
199.531
199.761
199.984
200.198
200.406
200.606
200.787
200.939
201.106
201.46
202.233
203.537
204.363
203.904
202.607
200.834
198.712
196.984
196.651
196.953
198.228
200.099
200.63
201.007
204.366
201.915
200.433
199.582
199.156
198.899
198.718
198.601
198.55
198.557
198.651
198.766
198.862
198.739
198.789
198.843
198.912
199.012
199.082
199.151
199.205
199.253
199.297
199.335
199.364
199.383
199.391
199.391
199.386
199.387
199.408
199.472
199.606
199.837
200.174
200.602
201.083
201.57
202.019
202.396
202.664
202.808
202.932
203.301
204.059
193.687
197.092
197.458
198.025
198.403
198.625
198.744
198.787
198.796
198.824
198.91
199.062
199.265
199.491
199.722
199.946
200.161
200.368
200.57
200.764
200.94
201.107
201.349
201.847
202.793
203.297
188.111
186.003
184.906
183.565
194.717
195.576
196.166
197.737
199.985
201.001
200.907
204.206
201.857
200.461
199.719
199.336
199.089
198.91
198.798
198.754
198.777
198.864
198.942
199.028
198.929
198.96
198.991
199.017
199.053
199.11
199.176
199.232
199.282
199.327
199.368
199.404
199.432
199.449
199.458
199.462
199.47
199.499
199.571
199.714
199.952
200.297
200.73
201.216
201.704
202.154
202.53
202.794
202.933
203.052
203.413
204.15
193.664
197.066
197.432
197.998
198.375
198.595
198.713
198.755
198.763
198.789
198.873
199.024
199.226
199.452
199.682
199.906
200.12
200.327
200.529
200.728
200.922
201.104
201.282
201.532
201.981
201.852
173.297
170.646
170.319
169.789
192.806
194.865
195.562
197.07
199.328
200.624
200.928
204.245
202.057
200.903
200.33
200.008
199.777
199.599
199.478
199.424
199.456
199.524
199.594
199.72
199.721
199.738
199.716
199.631
199.477
199.452
199.456
199.48
199.506
199.527
199.549
199.573
199.595
199.613
199.627
199.638
199.654
199.69
199.766
199.913
200.155
200.502
200.939
201.426
201.915
202.365
202.738
202.998
203.132
203.243
203.597
204.323
193.649
197.05
197.415
197.981
198.358
198.579
198.696
198.738
198.745
198.77
198.853
199.003
199.202
199.427
199.655
199.876
200.088
200.291
200.489
200.686
200.884
201.08
201.259
201.393
201.412
200.49
164.999
161.904
162.066
162.334
191.814
194.703
195.329
196.417
198.265
199.546
201.053
204.529
202.633
201.822