/*--------------------------------*- C++ -*----------------------------------*\
| =========                 |                                                 |
| \\      /  F ield         | OpenFOAM: The Open Source CFD Toolbox           |
|  \\    /   O peration     | Version:  v2012                                 |
|   \\  /    A nd           | Website:  www.openfoam.com                      |
|    \\/     M anipulation  |                                                 |
\*---------------------------------------------------------------------------*/
FoamFile
{
    version     2.0;
    format      ascii;
    class       volScalarField;
    location    "200/air";
    object      ILambda_11_0;
}
// * * * * * * * * * * * * * * * * * * * * * * * * * * * * * * * * * * * * * //

dimensions      [1 0 -3 0 0 0 0];


internalField   nonuniform List<scalar> 
287104
(
207.344
208.999
210.363
211.405
212.18
212.766
213.213
213.557
213.843
214.123
214.434
214.783
215.156
215.534
215.899
216.244
216.567
216.869
217.154
217.424
217.679
217.922
218.154
218.375
218.585
218.786
218.978
219.161
219.337
219.507
219.672
219.835
219.994
220.15
220.303
220.452
220.597
220.739
220.879
221.015
221.149
221.281
221.412
221.541
221.668
221.793
221.916
222.038
222.161
222.285
222.412
222.544
222.683
222.833
222.994
223.168
223.354
223.549
223.749
223.95
224.146
224.333
224.505
224.662
224.8
224.92
225.022
225.108
225.181
225.247
225.309
225.372
225.438
225.51
225.59
225.69
225.827
226.029
226.319
226.703
227.164
227.66
228.151
228.604
228.994
229.289
229.474
229.684
230.655
230.238
215.51
217.327
218.807
219.911
220.706
221.289
221.717
222.028
222.272
222.515
222.799
223.134
223.503
223.88
224.245
224.586
224.904
225.199
225.474
225.732
225.975
226.205
226.422
226.626
226.82
227.002
227.174
227.336
227.492
227.643
227.792
227.938
228.081
228.219
228.351
228.478
228.602
228.724
228.843
228.958
229.072
229.183
229.293
229.403
229.511
229.615
229.718
229.819
229.921
230.024
230.129
230.24
230.358
230.487
230.628
230.785
230.957
231.141
231.335
231.532
231.726
231.911
232.083
232.237
232.37
232.483
232.574
232.647
232.705
232.753
232.798
232.843
232.894
232.951
233.021
233.114
233.254
233.474
233.803
234.252
234.799
235.397
235.988
236.529
236.985
237.319
237.515
237.746
238.98
238.486
213.333
215.075
216.495
217.554
218.314
218.87
219.276
219.569
219.799
220.027
220.295
220.613
220.964
221.324
221.672
221.999
222.302
222.583
222.846
223.093
223.325
223.543
223.75
223.945
224.129
224.302
224.464
224.616
224.763
224.906
225.048
225.188
225.326
225.458
225.583
225.702
225.817
225.932
226.044
226.153
226.259
226.363
226.466
226.57
226.67
226.767
226.863
226.958
227.053
227.149
227.247
227.349
227.457
227.575
227.704
227.848
228.006
228.178
228.359
228.545
228.728
228.903
229.064
229.207
229.33
229.432
229.513
229.576
229.624
229.663
229.699
229.737
229.779
229.829
229.89
229.975
230.105
230.313
230.626
231.053
231.572
232.137
232.695
233.204
233.636
233.952
234.138
234.359
235.542
235.205
212.19
213.894
215.284
216.317
217.058
217.596
217.989
218.271
218.491
218.71
218.97
219.279
219.622
219.974
220.314
220.634
220.93
221.206
221.463
221.704
221.931
222.145
222.347
222.538
222.718
222.886
223.044
223.192
223.333
223.471
223.609
223.748
223.884
224.015
224.138
224.253
224.364
224.476
224.585
224.69
224.794
224.894
224.993
225.094
225.192
225.286
225.379
225.471
225.563
225.655
225.75
225.848
225.951
226.061
226.183
226.317
226.466
226.629
226.802
226.981
227.159
227.329
227.486
227.625
227.743
227.841
227.917
227.976
228.02
228.056
228.088
228.122
228.161
228.207
228.264
228.345
228.47
228.671
228.977
229.394
229.902
230.454
231
231.498
231.92
232.229
232.409
232.625
233.774
233.439
211.475
213.152
214.519
215.534
216.258
216.782
217.161
217.431
217.642
217.852
218.104
218.406
218.742
219.088
219.422
219.736
220.027
220.298
220.55
220.787
221.01
221.22
221.419
221.606
221.783
221.948
222.102
222.247
222.385
222.519
222.653
222.787
222.92
223.05
223.172
223.286
223.394
223.502
223.608
223.71
223.811
223.908
224.005
224.103
224.198
224.289
224.379
224.468
224.557
224.647
224.739
224.834
224.932
225.037
225.151
225.277
225.418
225.571
225.737
225.908
226.081
226.246
226.399
226.534
226.65
226.744
226.818
226.874
226.917
226.951
226.981
227.013
227.05
227.094
227.148
227.224
227.345
227.542
227.841
228.253
228.755
229.302
229.843
230.336
230.753
231.057
231.233
231.444
232.569
232.203
210.756
212.405
213.75
214.745
215.453
215.963
216.33
216.589
216.79
216.991
217.235
217.53
217.859
218.198
218.527
218.836
219.122
219.387
219.635
219.868
220.087
220.293
220.488
220.672
220.844
221.006
221.159
221.302
221.439
221.571
221.7
221.828
221.956
222.083
222.204
222.317
222.423
222.527
222.629
222.728
222.826
222.921
223.015
223.109
223.2
223.288
223.374
223.461
223.547
223.634
223.723
223.814
223.908
224.008
224.114
224.232
224.361
224.505
224.66
224.823
224.989
225.149
225.298
225.43
225.543
225.635
225.706
225.76
225.801
225.832
225.859
225.887
225.919
225.957
226.005
226.074
226.188
226.378
226.671
227.076
227.572
228.114
228.649
229.138
229.55
229.849
230.023
230.229
231.327
230.939
210.031
211.653
212.975
213.951
214.643
215.139
215.494
215.744
215.935
216.128
216.363
216.651
216.973
217.306
217.63
217.933
218.214
218.475
218.719
218.947
219.163
219.366
219.557
219.737
219.905
220.064
220.215
220.359
220.497
220.629
220.755
220.877
220.997
221.116
221.234
221.347
221.452
221.551
221.647
221.742
221.836
221.929
222.02
222.107
222.192
222.276
222.357
222.439
222.522
222.605
222.69
222.777
222.865
222.957
223.054
223.16
223.277
223.407
223.55
223.703
223.861
224.015
224.16
224.289
224.397
224.483
224.547
224.591
224.62
224.638
224.652
224.665
224.683
224.707
224.742
224.799
224.903
225.082
225.366
225.763
226.252
226.788
227.318
227.802
228.209
228.506
228.683
228.89
229.963
229.532
209.319
210.913
212.214
213.171
213.847
214.33
214.674
214.913
215.095
215.278
215.502
215.78
216.095
216.421
216.739
217.038
217.316
217.574
217.814
218.04
218.252
218.453
218.641
218.818
218.983
219.138
219.287
219.432
219.574
219.709
219.835
219.952
220.062
220.171
220.282
220.394
220.497
220.587
220.673
220.761
220.848
220.938
221.022
221.096
221.171
221.246
221.319
221.391
221.464
221.538
221.612
221.686
221.762
221.84
221.922
222.011
222.109
222.219
222.342
222.475
222.613
222.749
222.875
222.985
223.074
223.141
223.187
223.213
223.224
223.226
223.224
223.223
223.227
223.238
223.262
223.308
223.401
223.571
223.845
224.233
224.714
225.242
225.765
226.241
226.641
226.931
227.104
227.309
228.362
227.839
208.621
210.188
211.466
212.406
213.066
213.536
213.869
214.098
214.269
214.436
214.63
214.886
215.187
215.506
215.819
216.116
216.394
216.654
216.898
217.127
217.344
217.549
217.742
217.921
218.087
218.242
218.39
218.536
218.682
218.821
218.949
219.06
219.157
219.249
219.345
219.448
219.544
219.619
219.687
219.762
219.837
219.919
219.995
220.049
220.104
220.165
220.223
220.281
220.338
220.396
220.454
220.514
220.575
220.636
220.701
220.77
220.847
220.935
221.035
221.146
221.263
221.38
221.489
221.582
221.656
221.707
221.737
221.748
221.745
221.732
221.716
221.701
221.692
221.69
221.7
221.735
221.816
221.974
222.238
222.617
223.095
223.62
224.139
224.61
225.001
225.283
225.446
225.646
226.678
225.987
207.934
209.473
210.731
211.652
212.298
212.755
213.077
213.294
213.449
213.566
213.558
213.593
213.753
214.004
214.306
214.629
214.958
215.283
215.598
215.9
216.186
216.456
216.707
216.937
217.146
217.335
217.51
217.678
217.845
218.006
218.154
218.28
218.384
218.477
218.577
218.687
218.79
218.86
218.922
218.996
219.071
219.159
219.24
219.282
219.327
219.386
219.438
219.489
219.54
219.59
219.642
219.695
219.748
219.801
219.855
219.912
219.974
220.046
220.129
220.224
220.325
220.428
220.525
220.608
220.672
220.714
220.735
220.737
220.724
220.703
220.678
220.656
220.638
220.629
220.633
220.66
220.734
220.886
221.145
221.528
222.026
222.578
223.117
223.601
224
224.285
224.45
224.66
225.712
225.092
207.257
208.77
210.006
210.91
211.541
211.986
212.297
212.505
212.658
212.381
205.496
204.429
204.678
205.362
206.179
207.009
207.8
208.531
209.192
209.781
210.298
210.745
211.125
211.441
211.697
211.9
212.061
212.196
212.319
212.434
212.535
212.612
212.664
212.7
212.743
212.809
212.877
212.913
212.944
212.996
213.053
213.13
213.207
213.236
213.273
213.333
213.389
213.445
213.499
213.554
213.61
213.666
213.721
213.774
213.824
213.875
213.927
213.985
214.05
214.124
214.205
214.287
214.366
214.436
214.491
214.529
214.549
214.554
214.547
214.532
214.513
214.494
214.478
214.465
214.461
214.476
214.526
214.638
214.825
215.207
217.846
219.896
221.45
222.612
223.461
224.045
224.41
224.762
225.959
225.692
206.592
208.077
209.293
210.18
210.796
211.228
211.528
211.726
211.866
211.489
203.634
202.399
202.657
203.403
204.298
205.207
206.073
206.873
207.596
208.238
208.801
209.284
209.691
210.026
210.293
210.499
210.654
210.776
210.881
210.978
211.065
211.131
211.171
211.191
211.216
211.275
211.347
211.383
211.423
211.501
211.59
211.714
211.846
211.915
211.997
212.117
212.235
212.356
212.48
212.609
212.741
212.876
213.012
213.146
213.278
213.409
213.541
213.676
213.817
213.964
214.116
214.27
214.419
214.557
214.678
214.779
214.86
214.921
214.967
215.002
215.031
215.057
215.084
215.113
215.149
215.202
215.29
215.441
215.669
216.123
218.682
220.672
222.183
223.321
224.16
224.742
225.112
225.488
226.762
226.807
205.936
207.395
208.591
209.46
210.062
210.482
210.771
210.959
211.089
210.711
203.059
201.846
202.092
202.818
203.691
204.58
205.429
206.214
206.926
207.56
208.115
208.591
208.991
209.319
209.579
209.777
209.923
210.03
210.115
210.192
210.261
210.315
210.346
210.355
210.368
210.417
210.48
210.495
210.514
210.582
210.662
210.784
210.919
210.968
211.032
211.147
211.26
211.378
211.502
211.634
211.772
211.914
212.058
212.203
212.349
212.497
212.648
212.804
212.968
213.141
213.322
213.51
213.697
213.877
214.043
214.191
214.32
214.43
214.524
214.604
214.676
214.743
214.808
214.873
214.943
215.028
215.148
215.33
215.593
216.072
218.412
220.177
221.487
222.464
223.184
223.684
224.002
224.348
225.575
225.582
205.291
206.723
207.899
208.751
209.338
209.747
210.026
210.204
210.325
209.95
202.462
201.271
201.509
202.219
203.073
203.943
204.773
205.543
206.241
206.865
207.41
207.878
208.269
208.59
208.845
209.041
209.185
209.287
209.361
209.422
209.475
209.516
209.542
209.551
209.564
209.617
209.682
209.68
209.682
209.743
209.813
209.934
210.071
210.1
210.141
210.247
210.348
210.455
210.57
210.69
210.813
210.936
211.059
211.18
211.302
211.423
211.544
211.667
211.795
211.929
212.069
212.214
212.358
212.495
212.617
212.721
212.803
212.864
212.908
212.94
212.963
212.982
213
213.017
213.039
213.076
213.146
213.274
213.47
213.823
216.022
217.66
218.878
219.795
220.483
220.969
221.293
221.656
222.866
222.737
204.655
206.061
207.217
208.052
208.626
209.022
209.29
209.46
209.573
209.199
201.838
200.666
200.899
201.595
202.433
203.286
204.101
204.856
205.542
206.155
206.693
207.153
207.537
207.85
208.101
208.296
208.442
208.547
208.619
208.668
208.703
208.727
208.743
208.751
208.771
208.835
208.91
208.899
208.887
208.946
209.013
209.136
209.283
209.3
209.325
209.429
209.53
209.64
209.758
209.879
209.997
210.113
210.226
210.339
210.452
210.564
210.674
210.783
210.894
211.008
211.126
211.244
211.358
211.463
211.554
211.626
211.675
211.704
211.714
211.711
211.701
211.687
211.673
211.661
211.655
211.665
211.711
211.815
211.987
212.31
214.49
216.109
217.312
218.219
218.899
219.382
219.705
220.064
221.261
221.13
204.028
205.408
206.545
207.363
207.922
208.306
208.565
208.726
208.831
208.459
201.223
200.07
200.298
200.981
201.805
202.642
203.442
204.183
204.856
205.458
205.986
206.439
206.816
207.122
207.366
207.559
207.709
207.821
207.898
207.943
207.963
207.967
207.966
207.968
207.992
208.069
208.158
208.14
208.111
208.17
208.236
208.366
208.531
208.541
208.557
208.665
208.774
208.895
209.022
209.147
209.264
209.374
209.484
209.596
209.711
209.825
209.936
210.043
210.149
210.257
210.368
210.481
210.593
210.697
210.788
210.858
210.905
210.93
210.937
210.93
210.914
210.895
210.876
210.858
210.848
210.855
210.897
210.999
211.169
211.49
213.632
215.225
216.414
217.312
217.988
218.469
218.789
219.143
220.32
220.188
203.41
204.763
205.882
206.683
207.229
207.601
207.849
208.001
208.099
207.729
200.618
199.484
199.707
200.378
201.187
202.011
202.796
203.523
204.183
204.774
205.293
205.738
206.108
206.406
206.641
206.828
206.979
207.1
207.187
207.238
207.252
207.238
207.217
207.205
207.226
207.31
207.412
207.386
207.335
207.392
207.46
207.601
207.794
207.806
207.82
207.939
208.062
208.202
208.342
208.471
208.584
208.69
208.8
208.919
209.042
209.164
209.281
209.393
209.502
209.611
209.72
209.832
209.943
210.049
210.143
210.221
210.278
210.314
210.331
210.335
210.33
210.321
210.31
210.3
210.296
210.308
210.354
210.459
210.632
210.953
213.039
214.597
215.765
216.653
217.324
217.803
218.122
218.47
219.609
219.484
202.801
204.128
205.228
206.013
206.545
206.905
207.143
207.286
207.377
207.01
200.024
198.911
199.131
199.791
200.586
201.394
202.165
202.877
203.523
204.1
204.607
205.043
205.405
205.693
205.917
206.093
206.238
206.361
206.46
206.523
206.541
206.517
206.475
206.442
206.447
206.526
206.628
206.591
206.513
206.566
206.637
206.791
207.019
207.044
207.069
207.209
207.358
207.52
207.674
207.803
207.91
208.013
208.126
208.253
208.387
208.519
208.645
208.766
208.882
208.997
209.113
209.229
209.346
209.459
209.563
209.652
209.722
209.771
209.801
209.818
209.825
209.829
209.831
209.835
209.845
209.871
209.934
210.059
210.264
210.656
212.736
214.301
215.477
216.368
217.03
217.486
217.767
218.066
219.156
219.059
202.201
203.503
204.584
205.353
205.87
206.219
206.447
206.581
206.666
206.306
199.449
198.362
198.581
199.231
200.012
200.805
201.56
202.253
202.878
203.433
203.916
204.327
204.664
204.926
205.12
205.263
205.377
205.479
205.571
205.637
205.658
205.625
205.559
205.493
205.462
205.513
205.598
205.551
205.458
205.506
205.58
205.744
206.001
206.06
206.124
206.311
206.509
206.712
206.888
207.025
207.133
207.24
207.361
207.498
207.64
207.779
207.912
208.04
208.166
208.291
208.416
208.541
208.666
208.788
208.902
209.001
209.081
209.141
209.181
209.205
209.22
209.229
209.237
209.245
209.259
209.288
209.352
209.479
209.686
210.094
212.232
213.852
215.057
215.959
216.625
217.085
217.368
217.658
218.724
218.632
201.61
202.886
203.949
204.702
205.206
205.543
205.761
205.888
205.972
205.641
198.888
197.834
198.054
198.69
199.446
200.201
200.901
201.524
202.063
202.518
202.894
203.197
203.431
203.597
203.703
203.766
203.81
203.858
203.917
203.973
203.998
203.969
203.893
203.8
203.734
203.752
203.826
203.796
203.739
203.784
203.859
204.006
204.246
204.349
204.478
204.757
205.06
205.365
205.634
205.859
206.056
206.246
206.436
206.617
206.778
206.915
207.031
207.133
207.223
207.299
207.367
207.429
207.489
207.547
207.598
207.641
207.672
207.688
207.689
207.68
207.664
207.645
207.627
207.61
207.6
207.605
207.644
207.742
207.914
208.289
210.665
212.479
213.84
214.855
215.597
216.1
216.4
216.683
217.714
217.54
201.026
202.277
203.322
204.059
204.55
204.875
205.083
205.201
205.271
205.267
204.442
204.399
204.61
204.916
205.243
205.559
205.849
206.11
206.348
206.569
206.782
206.987
207.179
207.344
207.473
207.568
207.652
207.752
207.885
208.043
208.185
208.265
208.27
208.22
208.183
208.26
208.449
208.558
208.682
208.778
208.831
208.855
208.887
208.844
208.821
208.988
209.166
209.311
209.391
209.427
209.457
209.513
209.6
209.703
209.807
209.905
209.998
210.09
210.176
210.255
210.333
210.411
210.487
210.564
210.637
210.702
210.751
210.782
210.795
210.794
210.786
210.776
210.769
210.766
210.774
210.802
210.873
211.017
211.26
211.636
212.373
213.082
213.723
214.271
214.712
215.02
215.195
215.395
216.351
216.061
200.448
201.673
202.7
203.422
203.899
204.213
204.411
204.522
204.588
204.668
204.865
205.055
205.287
205.539
205.787
206.017
206.221
206.401
206.564
206.724
206.893
207.074
207.259
207.431
207.571
207.673
207.753
207.842
207.971
208.142
208.322
208.452
208.498
208.469
208.448
208.579
208.891
209.158
209.526
209.679
209.709
209.592
209.349
209.182
209.046
209.172
209.316
209.404
209.414
209.385
209.373
209.411
209.49
209.586
209.679
209.766
209.849
209.93
210.009
210.085
210.157
210.229
210.299
210.368
210.434
210.492
210.537
210.566
210.578
210.578
210.571
210.563
210.56
210.564
210.579
210.617
210.7
210.859
211.122
211.497
211.946
212.453
212.959
213.422
213.808
214.081
214.231
214.409
215.324
215.009
199.873
201.073
202.082
202.788
203.251
203.554
203.742
203.845
203.906
203.983
204.14
204.335
204.57
204.822
205.069
205.296
205.495
205.666
205.816
205.96
206.116
206.291
206.48
206.665
206.821
206.932
207.006
207.073
207.174
207.328
207.512
207.666
207.741
207.738
207.765
208.007
208.505
208.947
209.582
209.819
209.823
209.553
208.997
208.664
208.356
208.419
208.543
208.613
208.605
208.574
208.581
208.647
208.748
208.855
208.954
209.045
209.135
209.225
209.312
209.396
209.477
209.555
209.63
209.704
209.773
209.836
209.886
209.92
209.937
209.942
209.939
209.935
209.933
209.938
209.954
209.993
210.076
210.235
210.496
210.868
211.325
211.831
212.335
212.793
213.173
213.436
213.574
213.731
214.6
214.314
199.3
200.474
201.465
202.155
202.606
202.897
203.075
203.17
203.225
203.295
203.418
203.605
203.836
204.086
204.333
204.561
204.761
204.928
205.069
205.2
205.34
205.506
205.695
205.89
206.065
206.194
206.274
206.328
206.403
206.531
206.701
206.86
206.95
206.981
207.1
207.523
208.266
208.861
209.762
210.119
210.088
209.65
208.764
208.22
207.657
207.588
207.668
207.72
207.706
207.686
207.719
207.808
207.92
208.027
208.124
208.218
208.314
208.412
208.508
208.6
208.687
208.771
208.852
208.929
209.002
209.068
209.123
209.163
209.186
209.195
209.195
209.193
209.195
209.2
209.214
209.247
209.322
209.467
209.711
210.061
210.498
210.978
211.45
211.872
212.21
212.429
212.516
212.619
213.415
213.079
198.728
199.877
200.851
201.525
201.962
202.242
202.411
202.497
202.545
202.609
202.727
202.908
203.135
203.38
203.624
203.852
204.053
204.22
204.356
204.475
204.6
204.751
204.933
205.133
205.325
205.478
205.577
205.634
205.694
205.798
205.948
206.094
206.18
206.24
206.469
207.106
208.111
208.806
209.901
210.421
210.304
209.611
208.454
207.696
206.83
206.582
206.592
206.625
206.607
206.596
206.64
206.728
206.823
206.908
206.986
207.068
207.157
207.249
207.34
207.426
207.508
207.586
207.66
207.729
207.793
207.849
207.894
207.923
207.937
207.936
207.921
207.897
207.87
207.843
207.824
207.822
207.859
207.965
208.166
208.473
208.867
209.304
209.734
210.118
210.421
210.605
210.661
210.731
211.468
211.031
198.161
199.284
200.24
200.899
201.323
201.591
201.751
201.828
201.869
201.927
202.041
202.217
202.437
202.678
202.918
203.145
203.349
203.52
203.656
203.77
203.882
204.016
204.184
204.379
204.579
204.752
204.873
204.95
205.013
205.108
205.244
205.372
205.444
205.511
205.819
206.635
207.862
208.619
210.384
211.068
210.693
209.465
207.467
206.496
205.323
204.87
204.766
204.731
204.678
204.64
204.652
204.697
204.747
204.799
204.862
204.941
205.036
205.137
205.24
205.341
205.437
205.529
205.616
205.694
205.764
205.825
205.873
205.902
205.906
205.888
205.856
205.818
205.778
205.74
205.71
205.698
205.725
205.819
206.006
206.297
206.673
207.096
207.516
207.895
208.198
208.389
208.457
208.54
209.267
208.773
197.604
198.701
199.64
200.283
200.695
200.952
201.102
201.171
201.205
201.256
201.364
201.535
201.75
201.985
202.221
202.447
202.653
202.83
202.973
203.087
203.191
203.311
203.46
203.639
203.833
204.01
204.143
204.246
204.33
204.439
204.585
204.705
204.769
204.829
205.152
206.051
207.438
208.147
209.17
209.661
208.603
206.517
204.74
203.596
202.231
201.696
201.549
201.513
201.486
201.501
201.573
201.676
201.794
201.928
202.081
202.248
202.42
202.588
202.75
202.901
203.04
203.167
203.28
203.377
203.461
203.531
203.582
203.611
203.618
203.604
203.574
203.537
203.498
203.463
203.437
203.434
203.473
203.583
203.791
204.104
204.507
204.958
205.411
205.825
206.166
206.396
206.503
206.622
207.353
206.841
197.07
198.143
199.065
199.694
200.093
200.34
200.48
200.542
200.568
200.614
200.716
200.882
201.092
201.322
201.554
201.776
201.984
202.168
202.32
202.441
202.544
202.653
202.782
202.936
203.105
203.27
203.397
203.523
203.634
203.77
203.947
204.081
204.167
204.238
204.539
205.425
206.902
207.676
211.647
210.776
208.532
205.606
200.42
199.456
198.362
198.161
198.28
198.49
198.694
198.901
199.115
199.334
199.557
199.786
200.017
200.237
200.437
200.617
200.778
200.919
201.04
201.142
201.229
201.3
201.359
201.406
201.443
201.467
201.478
201.476
201.466
201.453
201.442
201.438
201.447
201.479
201.556
201.703
201.946
202.294
202.73
203.215
203.702
204.151
204.526
204.789
204.93
205.076
205.811
205.301
196.583
197.634
198.541
199.156
199.543
199.781
199.913
199.967
199.986
200.026
200.123
200.284
200.49
200.716
200.943
201.162
201.369
201.558
201.722
201.854
201.963
202.065
202.177
202.302
202.44
202.589
202.714
202.848
202.977
203.129
203.323
203.485
203.632
203.779
204.102
204.941
206.501
206.831
204.368
202.038
199.871
197.778
196.669
196.331
195.762
196.042
196.461
196.907
197.298
197.628
197.908
198.159
198.398
198.627
198.835
198.999
199.121
199.215
199.294
199.365
199.429
199.488
199.543
199.592
199.636
199.677
199.713
199.744
199.769
199.788
199.803
199.818
199.835
199.861
199.899
199.962
200.069
200.246
200.517
200.891
201.351
201.86
202.372
202.844
203.242
203.529
203.692
203.857
204.591
204.091
196.171
197.202
198.096
198.7
199.078
199.307
199.432
199.48
199.494
199.528
199.621
199.778
199.981
200.203
200.426
200.641
200.846
201.038
201.21
201.356
201.475
201.576
201.675
201.781
201.903
202.067
202.238
202.377
202.506
202.627
202.767
202.945
203.182
203.498
203.951
204.743
206.351
205.93
188.644
186.777
185.278
184.363
195.443
195.388
194.938
195.31
195.685
196.124
196.545
196.9
197.193
197.451
197.69
197.893
198.049
198.151
198.208
198.239
198.261
198.283
198.308
198.336
198.367
198.398
198.431
198.465
198.499
198.532
198.562
198.589
198.615
198.643
198.676
198.719
198.776
198.858
198.983
199.178
199.466
199.856
200.331
200.855
201.38
201.867
202.28
202.581
202.758
202.934
203.666
203.175
195.857
196.874
197.758
198.354
198.725
198.949
199.069
199.113
199.124
199.156
199.246
199.4
199.6
199.821
200.041
200.252
200.453
200.644
200.822
200.98
201.109
201.213
201.309
201.423
201.578
201.817
202.129
202.29
202.405
202.438
202.406
202.564
202.897
203.466
204.17
204.928
206.457
205.318
175.07
173.876
173.017
173.113
195.211
195.421
194.993
195.26
195.387
195.682
196.057
196.413
196.721
197.008
197.27
197.495
197.664
197.766
197.808
197.811
197.799
197.783
197.769
197.76
197.756
197.755
197.761
197.772
197.788
197.808
197.83
197.853
197.878
197.908
197.945
197.992
198.055
198.143
198.275
198.476
198.77
199.166
199.647
200.177
200.709
201.202
201.622
201.929
202.114
202.295
203.025
202.54
195.655
196.661
197.539
198.13
198.497
198.717
198.836
198.88
198.891
198.923
199.014
199.169
199.371
199.592
199.813
200.023
200.221
200.41
200.59
200.754
200.891
200.999
201.112
201.284
201.549
201.926
202.47
202.685
202.785
202.687
202.377
202.458
202.843
203.692
204.707
205.441
206.818
205.263
168.955
167.975
167.474
168.261
195.899
196.326
195.873
195.921
195.667
195.702
195.958
196.276
196.583
196.886
197.195
197.481
197.713
197.868
197.942
197.955
197.94
197.89
197.826
197.761
197.699
197.641
197.595
197.562
197.54
197.529
197.528
197.534
197.547
197.567
197.597
197.638
197.697
197.782
197.912
198.112
198.406
198.801
199.282
199.811
200.343
200.837
201.256
201.565
201.75
201.933
202.659
202.178
195.558
196.559
197.433
198.019
198.384
198.602
198.72
198.764
198.776
198.81
198.904
199.064
199.271
199.498
199.724
199.939
200.141
200.332
200.513
200.68
200.82
200.942
201.109
201.411
201.874
202.421
203.222
203.519
203.601
203.355
202.723
202.653
203.183
204.234
205.494
206.165
207.577
206.208
168.353
167.351
167.005
168.406
201.784
201.387
199.898
199.069
197.92
197.329
197.214
197.321
197.487
197.69
197.937
198.209
198.467
198.672
198.8
198.842
198.641
198.561
198.436
198.293
198.147
198.008
197.888
197.789
197.713
197.658
197.62
197.596
197.584
197.583
197.593
197.617
197.66
197.732
197.852
198.043
198.329
198.718
199.194
199.718
200.246
200.736
201.153
201.459
201.642
201.823
202.546
202.067
195.542
196.54
197.413
197.997
198.359
198.575
198.69
198.731
198.742
198.775
198.87
199.032
199.242
199.474
199.708
199.931
200.141
200.34
200.528
200.697
200.84
200.989
201.26
201.774
202.517
203.227
204.28
204.692
204.733
204.314
203.336
203.029
203.361
204.383
205.627
206.139
208
207.043
170.002
168.991
168.709
170.426
206.674
206.326
204.214
203.05
201.365
200.36
199.958
199.82
199.728
199.657
199.633
199.655
199.699
199.74
199.761
199.752
199.509
199.42
199.274
199.093
198.891
198.69
198.508
198.352
198.225
198.125
198.047
197.987
197.942
197.909
197.89
197.888
197.906
197.957
198.057
198.232
198.504
198.881
199.346
199.862
200.38
200.862
201.271
201.57
201.747
201.923
202.644
202.167
195.571
196.571
197.443
198.027
198.387
198.601
198.714
198.751
198.757
198.787
198.877
199.034
199.241
199.471
199.705
199.93
200.146
200.351
200.544
200.712
200.854
201.037
201.442
202.213
203.275
204.114
205.352
205.94
205.893
205.203
203.927
203.298
203.174
203.816
204.686
205.176
208.253
207.394
169.238
167.962
167.764
169.993
208.567
208.319
204.932
203.671
201.942
200.885
200.381
200.139
199.983
199.879
199.846
199.874
199.938
200.016
200.088
200.138
199.957
199.924
199.836
199.714
199.568
199.411
199.259
199.119
198.994
198.883
198.782
198.689
198.604
198.529
198.468
198.426
198.409
198.427
198.499
198.649
198.899
199.257
199.706
200.205
200.709
201.177
201.573
201.86
202.026
202.191
202.908
202.434
195.612
196.613
197.487
198.072
198.433
198.648
198.76
198.797
198.801
198.827
198.913
199.066
199.267
199.491
199.719
199.94
200.152
200.357
200.547
200.706
200.836
201.037
201.547
202.533
203.862
204.805
206.727
207.545
207.299
206.091
203.955
202.991
202.344
202.445
202.766
203.571
208.308
207.279
173.248
171.816
171.658
174.248
211.793
213.097
207.457
205.651
203.344
200.972
199.351
198.919
198.669
198.714
198.94
199.144
199.299
199.438
199.562
199.662
199.546
199.58
199.577
199.561
199.532
199.488
199.439
199.391
199.344
199.298
199.252
199.203
199.153
199.102
199.056
199.019
198.999
199.009
199.067
199.202
199.435
199.774
200.203
200.682
201.166
201.613
201.99
202.258
202.406
202.557
203.266
202.791
195.639
196.642
197.516
198.103
198.466
198.683
198.798
198.837
198.843
198.871
198.958
199.111
199.312
199.535
199.761
199.98
200.189
200.392
200.58
200.734
200.854
201.052
201.592
202.667
204.143
205.097
206.451
207.317
206.612
204.636
202.682
201.509
200.612
200.553
200.929
199.297
204.724
204.084
201.927
200.311
199.44
199.097
198.887
198.787
198.783
198.844
198.94
199.078
199.254
199.385
199.282
199.344
199.377
199.407
199.439
199.443
199.442
199.438
199.431
199.421
199.407
199.385
199.356
199.323
199.288
199.259
199.245
199.259
199.321
199.46
199.696
200.038
200.469
200.95
201.433
201.879
202.253
202.517
202.661
202.806
203.515
203.032
195.644
196.647
197.521
198.107
198.471
198.689
198.805
198.846
198.855
198.885
198.976
199.132
199.335
199.561
199.79
200.011
200.223
200.427
200.62
200.784
200.912
201.098
201.585
202.595
204.061
205.182
210.14
210.319
208.725
205.861
200.078
199.097
198.613
199.174
200.492
198.996
203.661
203.856
201.856
200.429
199.656
199.282
199.024
198.842
198.731
198.689
198.701
198.801
198.958
199.076
198.958
199.026
199.075
199.137
199.217
199.26
199.299
199.328
199.353
199.375
199.389
199.394
199.389
199.374
199.354
199.334
199.324
199.339
199.4
199.536
199.771
200.113
200.544
201.025
201.51
201.957
202.331
202.595
202.738
202.882
203.593
203.079
195.629
196.63
197.503
198.089
198.451
198.668
198.784
198.824
198.833
198.864
198.955
199.112
199.317
199.544
199.774
199.997
200.211
200.418
200.616
200.795
200.945
201.117
201.494
202.31
203.628
204.41
204.105
202.786
200.993
198.822
196.974
196.721
197.032
198.361
200.5
199.601
203.346
203.646
201.744
200.365
199.543
199.138
198.885
198.706
198.592
198.545
198.557
198.656
198.773
198.862
198.734
198.795
198.848
198.919
199.019
199.088
199.156
199.209
199.256
199.299
199.337
199.364
199.381
199.388
199.387
199.382
199.383
199.406
199.473
199.613
199.851
200.194
200.626
201.108
201.592
202.036
202.408
202.668
202.807
202.946
203.652
203.1
195.604
196.604
197.475
198.06
198.421
198.636
198.75
198.789
198.797
198.826
198.916
199.073
199.277
199.505
199.736
199.959
200.173
200.38
200.582
200.775
200.948
201.116
201.369
201.905
202.931
202.87
187.755
186.495
185.207
184.254
195.328
195.519
196.24
197.888
200.43
199.992
203.243
203.491
201.692
200.393
199.674
199.306
199.063
198.888
198.78
198.74
198.767
198.857
198.937
199.017
198.911
198.952
198.981
199.009
199.049
199.109
199.175
199.232
199.281
199.326
199.367
199.402
199.429
199.445
199.453
199.457
199.466
199.497
199.572
199.72
199.966
200.316
200.753
201.239
201.724
202.169
202.539
202.796
202.93
203.064
203.764
203.179
195.58
196.579
197.449
198.032
198.392
198.607
198.719
198.757
198.763
198.791
198.879
199.034
199.238
199.465
199.695
199.919
200.132
200.339
200.541
200.739
200.932
201.112
201.292
201.563
202.14
200.962
172.137
171.192
170.517
170.793
194.036
194.709
195.628
197.223
199.798
199.65
203.263
203.528
201.897
200.837
200.279
199.966
199.739
199.564
199.447
199.398
199.434
199.503
199.575
199.699
199.691
199.71
199.685
199.599
199.452
199.438
199.445
199.471
199.498
199.52
199.543
199.566
199.589
199.607
199.62
199.631
199.648
199.685
199.765
199.918
200.167
200.52
200.96
201.447
201.933
202.378
202.745
202.998
203.126
203.253
203.947
203.344
195.564
196.562
197.432
198.015
198.375
198.589
198.702
198.739
198.744
198.771
198.859
199.012
199.214
199.439
199.667
199.888
200.1
200.303
200.501
200.697
200.896
201.091
201.266
201.404
201.548
199.323
163.28
162.343
162.107
163.418
193.358
194.479
195.36
196.533
198.721
198.616
203.394
203.819
202.485
201.763
201.277
200.95