/*--------------------------------*- C++ -*----------------------------------*\
| =========                 |                                                 |
| \\      /  F ield         | OpenFOAM: The Open Source CFD Toolbox           |
|  \\    /   O peration     | Version:  v2012                                 |
|   \\  /    A nd           | Website:  www.openfoam.com                      |
|    \\/     M anipulation  |                                                 |
\*---------------------------------------------------------------------------*/
FoamFile
{
    version     2.0;
    format      ascii;
    class       volScalarField;
    location    "200/air";
    object      ILambda_46_0;
}
// * * * * * * * * * * * * * * * * * * * * * * * * * * * * * * * * * * * * * //

dimensions      [1 0 -3 0 0 0 0];


internalField   nonuniform List<scalar> 
287104
(
166.877
167.055
167.199
167.338
167.47
167.597
167.719
167.835
167.947
168.055
168.16
168.262
168.361
168.459
168.554
168.648
168.739
168.83
168.919
169.006
169.092
169.177
169.261
169.344
169.426
169.507
169.587
169.666
169.744
169.822
169.899
169.975
170.05
170.125
170.2
170.274
170.347
170.42
170.493
170.566
170.638
170.71
170.782
170.854
170.925
170.997
171.069
171.14
171.212
171.284
171.356
171.427
171.499
171.572
171.644
171.716
171.788
171.859
171.931
172.002
172.073
172.143
172.212
172.28
172.347
172.413
172.477
172.539
172.601
172.66
172.718
172.774
172.829
172.882
172.933
172.984
173.033
173.082
173.13
173.178
173.227
173.276
173.325
173.374
173.414
173.435
173.442
173.618
174.732
178.707
166.699
166.698
166.694
166.694
166.696
166.7
166.706
166.714
166.722
166.732
166.743
166.754
166.767
166.779
166.793
166.807
166.821
166.836
166.851
166.866
166.882
166.898
166.914
166.93
166.947
166.964
166.98
166.998
167.015
167.032
167.05
167.068
167.085
167.104
167.122
167.14
167.159
167.177
167.196
167.215
167.235
167.254
167.274
167.293
167.313
167.333
167.353
167.373
167.393
167.412
167.432
167.452
167.471
167.49
167.509
167.527
167.546
167.563
167.581
167.598
167.615
167.631
167.647
167.663
167.679
167.694
167.709
167.724
167.739
167.753
167.768
167.782
167.797
167.812
167.827
167.842
167.857
167.872
167.888
167.903
167.917
167.931
167.945
167.962
167.981
168.016
168.173
168.891
171.328
177.403
166.724
166.727
166.728
166.73
166.732
166.735
166.737
166.741
166.744
166.748
166.753
166.757
166.762
166.767
166.773
166.778
166.784
166.79
166.796
166.803
166.809
166.816
166.823
166.83
166.837
166.844
166.852
166.859
166.867
166.875
166.883
166.891
166.9
166.908
166.917
166.926
166.934
166.943
166.952
166.961
166.97
166.979
166.988
166.997
167.006
167.015
167.024
167.032
167.041
167.049
167.057
167.065
167.073
167.08
167.088
167.095
167.102
167.108
167.115
167.121
167.128
167.134
167.14
167.146
167.152
167.157
167.163
167.169
167.174
167.18
167.185
167.191
167.196
167.202
167.207
167.213
167.218
167.223
167.227
167.231
167.235
167.242
167.258
167.293
167.365
167.505
167.833
168.761
171.306
177.152
166.747
166.759
166.767
166.775
166.782
166.79
166.797
166.804
166.811
166.818
166.825
166.832
166.839
166.846
166.853
166.86
166.866
166.873
166.88
166.887
166.893
166.9
166.907
166.914
166.921
166.928
166.935
166.942
166.949
166.956
166.963
166.97
166.977
166.985
166.992
167
167.007
167.014
167.022
167.029
167.037
167.044
167.051
167.059
167.066
167.073
167.08
167.087
167.094
167.1
167.107
167.113
167.12
167.126
167.132
167.138
167.144
167.15
167.156
167.162
167.168
167.173
167.179
167.184
167.189
167.195
167.199
167.204
167.209
167.214
167.218
167.222
167.226
167.23
167.234
167.237
167.24
167.243
167.246
167.249
167.257
167.273
167.308
167.379
167.5
167.694
168.052
168.93
171.296
176.881
166.76
166.773
166.781
166.79
166.799
166.808
166.816
166.824
166.832
166.84
166.848
166.856
166.864
166.871
166.879
166.886
166.893
166.901
166.908
166.915
166.922
166.929
166.936
166.943
166.95
166.957
166.964
166.971
166.979
166.986
166.993
167
167.007
167.014
167.021
167.028
167.035
167.043
167.05
167.057
167.064
167.071
167.078
167.085
167.092
167.099
167.105
167.112
167.119
167.125
167.132
167.138
167.145
167.151
167.157
167.164
167.17
167.176
167.181
167.187
167.193
167.198
167.204
167.209
167.214
167.219
167.223
167.228
167.232
167.237
167.241
167.244
167.248
167.251
167.254
167.257
167.259
167.262
167.266
167.274
167.288
167.315
167.366
167.452
167.584
167.773
168.093
168.889
171.134
176.583
166.771
166.784
166.792
166.801
166.81
166.818
166.826
166.835
166.843
166.851
166.859
166.866
166.874
166.882
166.889
166.897
166.904
166.912
166.919
166.926
166.933
166.94
166.948
166.955
166.962
166.969
166.976
166.984
166.991
166.998
167.005
167.013
167.02
167.027
167.034
167.042
167.049
167.056
167.063
167.07
167.077
167.084
167.091
167.098
167.105
167.112
167.119
167.126
167.132
167.139
167.145
167.151
167.158
167.164
167.17
167.176
167.182
167.187
167.193
167.198
167.203
167.208
167.213
167.218
167.223
167.227
167.232
167.236
167.24
167.243
167.247
167.25
167.252
167.254
167.256
167.258
167.261
167.264
167.27
167.281
167.3
167.332
167.385
167.47
167.592
167.76
168.044
168.784
170.94
176.235
166.782
166.795
166.803
166.811
166.82
166.828
166.836
166.844
166.852
166.86
166.868
166.876
166.883
166.891
166.898
166.905
166.913
166.92
166.928
166.935
166.942
166.95
166.957
166.964
166.972
166.979
166.986
166.994
167.001
167.009
167.016
167.024
167.031
167.039
167.046
167.053
167.061
167.068
167.075
167.082
167.09
167.097
167.104
167.11
167.117
167.124
167.131
167.137
167.143
167.15
167.156
167.162
167.168
167.173
167.179
167.185
167.19
167.195
167.2
167.205
167.21
167.215
167.219
167.223
167.227
167.231
167.235
167.238
167.242
167.244
167.246
167.248
167.249
167.25
167.251
167.252
167.254
167.259
167.266
167.278
167.297
167.328
167.378
167.456
167.567
167.718
167.977
168.665
170.694
175.683
166.793
166.805
166.813
166.822
166.83
166.838
166.846
166.854
166.862
166.869
166.877
166.884
166.892
166.899
166.907
166.914
166.922
166.929
166.937
166.944
166.952
166.959
166.967
166.974
166.982
166.99
166.997
167.005
167.012
167.02
167.028
167.035
167.043
167.05
167.058
167.065
167.072
167.08
167.087
167.094
167.101
167.108
167.114
167.121
167.127
167.134
167.14
167.146
167.152
167.157
167.163
167.169
167.174
167.179
167.184
167.189
167.194
167.198
167.202
167.207
167.211
167.214
167.218
167.221
167.225
167.228
167.23
167.232
167.234
167.235
167.236
167.236
167.235
167.235
167.234
167.235
167.237
167.241
167.248
167.259
167.277
167.305
167.351
167.423
167.527
167.67
167.906
168.511
170.284
174.64
166.803
166.815
166.823
166.831
166.839
166.847
166.855
166.863
166.871
166.878
166.886
166.894
166.901
166.909
166.916
166.924
166.932
166.939
166.947
166.955
166.963
166.971
166.978
166.986
166.994
167.002
167.01
167.017
167.025
167.033
167.04
167.048
167.055
167.063
167.07
167.077
167.084
167.091
167.098
167.104
167.111
167.117
167.123
167.129
167.135
167.141
167.146
167.152
167.157
167.162
167.167
167.171
167.176
167.18
167.184
167.188
167.192
167.196
167.199
167.202
167.205
167.208
167.211
167.213
167.215
167.217
167.218
167.219
167.219
167.218
167.217
167.215
167.213
167.212
167.211
167.211
167.212
167.216
167.222
167.232
167.248
167.273
167.315
167.384
167.485
167.623
167.836
168.338
169.774
173.303
166.813
166.825
166.833
166.841
166.849
166.857
166.865
166.873
166.881
166.888
166.896
166.904
166.912
166.92
166.928
166.936
166.944
166.953
166.961
166.969
166.977
166.986
166.994
167.002
167.01
167.019
167.027
167.035
167.042
167.05
167.058
167.066
167.073
167.081
167.088
167.095
167.102
167.109
167.115
167.122
167.128
167.134
167.14
167.146
167.151
167.157
167.162
167.167
167.171
167.176
167.18
167.184
167.188
167.192
167.195
167.199
167.202
167.205
167.207
167.21
167.212
167.214
167.215
167.216
167.217
167.218
167.218
167.217
167.216
167.214
167.211
167.209
167.206
167.204
167.203
167.203
167.204
167.207
167.212
167.221
167.235
167.259
167.299
167.364
167.459
167.588
167.786
168.265
169.688
173.286
166.823
166.835
166.842
166.851
166.859
166.867
166.875
166.883
166.891
166.9
166.91
166.92
166.93
166.94
166.951
166.961
166.971
166.981
166.991
167.001
167.01
167.02
167.029
167.038
167.047
167.056
167.065
167.073
167.082
167.09
167.098
167.106
167.114
167.122
167.13
167.137
167.144
167.152
167.159
167.166
167.172
167.179
167.185
167.191
167.197
167.203
167.208
167.213
167.218
167.223
167.227
167.231
167.235
167.239
167.242
167.246
167.248
167.251
167.253
167.255
167.257
167.258
167.259
167.259
167.259
167.259
167.258
167.256
167.254
167.252
167.249
167.246
167.244
167.242
167.24
167.24
167.241
167.244
167.248
167.256
167.268
167.288
167.322
167.376
167.461
167.609
167.925
168.718
170.708
175.08
166.833
166.845
166.852
166.861
166.87
166.878
166.886
166.895
166.904
166.913
166.923
166.934
166.945
166.956
166.966
166.977
166.988
166.998
167.009
167.019
167.029
167.039
167.049
167.058
167.068
167.077
167.085
167.094
167.103
167.111
167.119
167.128
167.136
167.143
167.151
167.159
167.166
167.174
167.181
167.188
167.195
167.202
167.209
167.215
167.221
167.228
167.234
167.24
167.245
167.251
167.256
167.261
167.266
167.271
167.276
167.28
167.284
167.288
167.291
167.294
167.297
167.299
167.301
167.302
167.303
167.303
167.303
167.303
167.302
167.301
167.3
167.299
167.298
167.297
167.297
167.298
167.3
167.303
167.309
167.317
167.329
167.346
167.373
167.422
167.535
167.818
168.492
169.951
172.807
177.762
166.843
166.856
166.864
166.873
166.881
166.89
166.899
166.908
166.917
166.926
166.937
166.948
166.959
166.97
166.981
166.991
167.002
167.012
167.023
167.033
167.043
167.052
167.062
167.071
167.08
167.088
167.097
167.105
167.113
167.121
167.129
167.136
167.144
167.151
167.158
167.165
167.172
167.179
167.185
167.192
167.198
167.205
167.211
167.217
167.222
167.228
167.234
167.239
167.245
167.25
167.255
167.26
167.265
167.27
167.275
167.279
167.284
167.288
167.291
167.295
167.298
167.3
167.303
167.304
167.306
167.307
167.309
167.309
167.31
167.31
167.311
167.311
167.311
167.312
167.313
167.315
167.318
167.322
167.328
167.337
167.348
167.364
167.392
167.461
167.642
168.081
169.002
170.706
173.609
178.325
166.855
166.868
166.876
166.886
166.895
166.904
166.913
166.921
166.931
166.94
166.951
166.962
166.972
166.983
166.994
167.004
167.015
167.025
167.035
167.044
167.054
167.063
167.072
167.08
167.088
167.096
167.104
167.112
167.119
167.126
167.133
167.14
167.147
167.153
167.159
167.166
167.172
167.178
167.183
167.189
167.194
167.2
167.205
167.21
167.215
167.22
167.225
167.229
167.234
167.239
167.243
167.248
167.252
167.256
167.26
167.264
167.268
167.271
167.273
167.276
167.278
167.279
167.281
167.282
167.282
167.283
167.283
167.283
167.283
167.283
167.282
167.282
167.281
167.281
167.281
167.282
167.285
167.288
167.293
167.3
167.31
167.328
167.364
167.455
167.672
168.131
168.984
170.421
172.772
176.625
166.867
166.881
166.889
166.899
166.908
166.917
166.926
166.935
166.944
166.953
166.963
166.974
166.984
166.995
167.005
167.015
167.024
167.034
167.043
167.052
167.061
167.069
167.078
167.085
167.093
167.1
167.107
167.114
167.12
167.127
167.133
167.139
167.145
167.15
167.156
167.161
167.166
167.172
167.176
167.181
167.186
167.191
167.195
167.2
167.204
167.209
167.213
167.218
167.222
167.226
167.231
167.235
167.239
167.242
167.246
167.249
167.252
167.254
167.256
167.257
167.258
167.258
167.258
167.258
167.258
167.257
167.257
167.256
167.255
167.254
167.252
167.25
167.249
167.247
167.247
167.247
167.248
167.251
167.256
167.262
167.273
167.293
167.334
167.428
167.627
168.014
168.699
169.874
171.959
175.699
166.88
166.894
166.902
166.911
166.92
166.929
166.937
166.946
166.954
166.963
166.973
166.983
166.993
167.002
167.012
167.021
167.03
167.039
167.047
167.055
167.063
167.071
167.078
167.085
167.092
167.098
167.105
167.11
167.116
167.122
167.127
167.132
167.137
167.142
167.147
167.152
167.156
167.161
167.165
167.17
167.174
167.178
167.183
167.187
167.192
167.196
167.201
167.205
167.21
167.215
167.219
167.223
167.227
167.231
167.234
167.237
167.239
167.24
167.242
167.242
167.242
167.242
167.242
167.241
167.24
167.239
167.238
167.237
167.235
167.233
167.231
167.229
167.227
167.225
167.224
167.224
167.226
167.229
167.233
167.24
167.251
167.272
167.312
167.395
167.564
167.888
168.483
169.577
171.65
175.506
166.891
166.904
166.912
166.921
166.929
166.937
166.945
166.953
166.961
166.969
166.978
166.987
166.996
167.005
167.013
167.022
167.03
167.038
167.045
167.053
167.06
167.066
167.073
167.079
167.085
167.09
167.096
167.101
167.106
167.111
167.116
167.12
167.125
167.129
167.133
167.137
167.142
167.146
167.15
167.155
167.159
167.164
167.168
167.173
167.178
167.183
167.189
167.194
167.199
167.204
167.209
167.213
167.217
167.221
167.224
167.226
167.228
167.23
167.23
167.231
167.23
167.23
167.229
167.228
167.227
167.226
167.224
167.223
167.221
167.219
167.217
167.215
167.213
167.212
167.211
167.211
167.213
167.216
167.221
167.228
167.239
167.259
167.296
167.37
167.52
167.819
168.395
169.498
171.631
175.62
166.899
166.911
166.918
166.926
166.934
166.941
166.948
166.955
166.962
166.97
166.978
166.986
166.994
167.002
167.009
167.017
167.024
167.031
167.038
167.044
167.05
167.056
167.062
167.067
167.073
167.077
167.082
167.087
167.091
167.096
167.1
167.104
167.108
167.112
167.116
167.12
167.124
167.128
167.133
167.137
167.142
167.148
167.153
167.159
167.165
167.17
167.176
167.182
167.188
167.194
167.199
167.203
167.208
167.211
167.214
167.217
167.218
167.219
167.22
167.22
167.22
167.219
167.218
167.217
167.216
167.215
167.213
167.212
167.21
167.209
167.207
167.205
167.204
167.203
167.203
167.204
167.206
167.21
167.215
167.222
167.234
167.253
167.287
167.355
167.499
167.794
168.383
169.536
171.778
175.943
166.903
166.914
166.92
166.927
166.934
166.94
166.947
166.953
166.959
166.965
166.972
166.98
166.987
166.994
167
167.007
167.013
167.02
167.026
167.031
167.037
167.042
167.047
167.052
167.056
167.061
167.065
167.069
167.073
167.077
167.081
167.084
167.088
167.092
167.095
167.099
167.103
167.108
167.112
167.117
167.123
167.129
167.135
167.141
167.148
167.155
167.161
167.168
167.174
167.18
167.185
167.19
167.194
167.198
167.201
167.203
167.205
167.206
167.207
167.207
167.207
167.206
167.206
167.205
167.204
167.203
167.202
167.201
167.2
167.199
167.198
167.197
167.196
167.196
167.197
167.198
167.201
167.204
167.21
167.217
167.228
167.246
167.278
167.343
167.486
167.79
168.406
169.609
171.883
175.933
166.903
166.912
166.918
166.924
166.93
166.935
166.941
166.946
166.951
166.957
166.963
166.97
166.976
166.982
166.989
166.994
167
167.005
167.01
167.015
167.02
167.024
167.028
167.032
167.036
167.039
167.042
167.046
167.049
167.052
167.056
167.059
167.062
167.065
167.069
167.073
167.077
167.081
167.086
167.092
167.098
167.104
167.111
167.118
167.125
167.132
167.14
167.147
167.153
167.16
167.165
167.17
167.175
167.178
167.181
167.183
167.185
167.186
167.186
167.186
167.185
167.185
167.184
167.183
167.182
167.181
167.18
167.179
167.178
167.177
167.175
167.175
167.174
167.174
167.175
167.176
167.179
167.182
167.186
167.193
167.203
167.219
167.25
167.315
167.459
167.76
168.348
169.442
171.446
175.029
166.899
166.907
166.913
166.918
166.923
166.928
166.933
166.937
166.942
166.946
166.951
166.955
166.959
166.963
166.967
166.971
166.975
166.978
166.982
166.986
166.989
166.992
166.996
166.999
167.002
167.006
167.009
167.012
167.015
167.018
167.021
167.025
167.028
167.031
167.035
167.039
167.043
167.048
167.053
167.059
167.065
167.071
167.078
167.084
167.091
167.097
167.103
167.109
167.115
167.119
167.124
167.127
167.131
167.133
167.135
167.136
167.137
167.137
167.137
167.137
167.136
167.135
167.133
167.132
167.131
167.129
167.128
167.127
167.126
167.125
167.124
167.123
167.123
167.123
167.123
167.125
167.127
167.13
167.134
167.141
167.151
167.169
167.201
167.269
167.407
167.669
168.13
168.944
170.516
173.673
166.894
166.901
166.906
166.911
166.916
166.92
166.924
166.928
166.932
166.936
166.94
166.943
166.947
166.95
166.954
166.957
166.96
166.963
166.967
166.97
166.973
166.976
166.979
166.982
166.985
166.988
166.991
166.994
166.997
167.001
167.004
167.007
167.01
167.014
167.018
167.022
167.027
167.032
167.038
167.043
167.05
167.056
167.062
167.068
167.074
167.08
167.085
167.09
167.094
167.097
167.1
167.103
167.105
167.106
167.106
167.107
167.106
167.105
167.104
167.102
167.1
167.098
167.096
167.094
167.092
167.09
167.089
167.087
167.086
167.084
167.083
167.082
167.082
167.081
167.082
167.083
167.085
167.089
167.093
167.1
167.111
167.13
167.164
167.23
167.349
167.544
167.853
168.431
169.803
173.067
166.889
166.895
166.9
166.904
166.909
166.913
166.917
166.921
166.924
166.928
166.931
166.935
166.938
166.941
166.944
166.948
166.951
166.954
166.957
166.96
166.963
166.966
166.969
166.972
166.976
166.979
166.982
166.985
166.988
166.991
166.995
166.998
167.002
167.006
167.01
167.015
167.02
167.025
167.031
167.037
167.043
167.049
167.055
167.061
167.067
167.072
167.077
167.081
167.085
167.088
167.091
167.092
167.094
167.094
167.094
167.094
167.093
167.091
167.089
167.087
167.085
167.083
167.08
167.078
167.076
167.074
167.072
167.07
167.069
167.068
167.067
167.066
167.066
167.066
167.066
167.067
167.07
167.073
167.078
167.085
167.096
167.114
167.146
167.205
167.301
167.443
167.669
168.186
169.651
173.354
166.884
166.891
166.895
166.899
166.903
166.907
166.911
166.915
166.918
166.921
166.925
166.928
166.931
166.934
166.937
166.941
166.944
166.947
166.95
166.953
166.956
166.959
166.962
166.965
166.969
166.972
166.975
166.978
166.981
166.985
166.988
166.992
166.996
167
167.004
167.009
167.014
167.019
167.025
167.031
167.037
167.043
167.049
167.055
167.061
167.066
167.07
167.074
167.078
167.081
167.083
167.085
167.086
167.086
167.086
167.086
167.085
167.083
167.081
167.079
167.077
167.074
167.072
167.07
167.068
167.066
167.064
167.063
167.062
167.061
167.06
167.06
167.06
167.06
167.06
167.062
167.064
167.067
167.072
167.078
167.086
167.102
167.129
167.18
167.261
167.387
167.61
168.162
169.682
173.323
166.881
166.887
166.891
166.895
166.899
166.903
166.906
166.91
166.913
166.917
166.92
166.923
166.926
166.929
166.932
166.935
166.938
166.941
166.944
166.947
166.95
166.954
166.957
166.96
166.963
166.966
166.969
166.972
166.976
166.979
166.982
166.986
166.99
166.994
166.999
167.003
167.009
167.014
167.02
167.026
167.031
167.037
167.043
167.048
167.054
167.058
167.063
167.066
167.07
167.072
167.075
167.076
167.077
167.078
167.077
167.077
167.076
167.074
167.072
167.07
167.068
167.066
167.063
167.061
167.059
167.057
167.056
167.055
167.053
167.053
167.052
167.051
167.05
167.05
167.05
167.05
167.052
167.053
167.055
167.058
167.062
167.071
167.092
167.136
167.214
167.345
167.582
168.114
169.454
172.527
166.878
166.884
166.888
166.892
166.895
166.899
166.903
166.906
166.909
166.913
166.916
166.919
166.922
166.925
166.928
166.931
166.934
166.937
166.94
166.943
166.946
166.949
166.952
166.955
166.958
166.961
166.964
166.967
166.971
166.974
166.978
166.982
166.986
166.99
166.994
166.998
167.003
167.008
167.013
167.019
167.024
167.03
167.035
167.04
167.044
167.049
167.052
167.056
167.058
167.061
167.062
167.064
167.064
167.064
167.064
167.063
167.062
167.06
167.058
167.056
167.053
167.051
167.048
167.046
167.044
167.041
167.04
167.038
167.036
167.035
167.033
167.031
167.03
167.028
167.027
167.026
167.025
167.024
167.021
167.018
167.015
167.017
167.032
167.07
167.146
167.276
167.495
167.938
169.008
171.487
166.875
166.881
166.885
166.889
166.892
166.896
166.899
166.903
166.906
166.909
166.912
166.915
166.918
166.921
166.924
166.927
166.929
166.932
166.935
166.938
166.941
166.944
166.947
166.95
166.953
166.956
166.959
166.963
166.966
166.969
166.972
166.975
166.979
166.984
166.99
166.997
167.004
167.01
167.013
167.015
167.017
167.02
167.024
167.028
167.032
167.036
167.039
167.041
167.044
167.045
167.047
167.047
167.048
167.047
167.047
167.046
167.044
167.042
167.039
167.037
167.034
167.031
167.028
167.025
167.022
167.019
167.017
167.014
167.012
167.009
167.007
167.004
167.002
166.999
166.997
166.993
166.989
166.982
166.974
166.963
166.954
166.949
166.957
166.989
167.056
167.169
167.346
167.691
168.557
170.669
166.872
166.878
166.882
166.886
166.889
166.893
166.896
166.899
166.902
166.905
166.908
166.911
166.914
166.917
166.92
166.922
166.925
166.928
166.931
166.934
166.937
166.94
166.943
166.946
166.949
166.952
166.954
166.957
166.96
166.963
166.966
166.97
166.973
166.972
166.966
166.954
166.942
166.938
166.948
166.968
166.991
167.008
167.012
167.013
167.018
167.02
167.023
167.026
167.028
167.029
167.03
167.03
167.03
167.029
167.028
167.026
167.024
167.022
167.019
167.015
167.012
167.008
167.004
167.001
166.997
166.994
166.991
166.988
166.985
166.982
166.979
166.976
166.972
166.968
166.963
166.956
166.946
166.934
166.919
166.902
166.886
166.876
166.878
166.902
166.956
167.044
167.178
167.449
168.194
170.108
166.869
166.875
166.879
166.882
166.886
166.889
166.893
166.896
166.899
166.902
166.904
166.907
166.91
166.913
166.915
166.918
166.921
166.924
166.927
166.929
166.932
166.935
166.938
166.941
166.944
166.946
166.949
166.953
166.957
166.962
166.968
166.973
166.979
166.992
167.023
167.081
167.156
167.205
167.195
167.137
167.052
166.984
166.983
167
166.999
167.003
167.005
167.008
167.009
167.011
167.011
167.011
167.011
167.01
167.008
167.006
167.003
167
166.996
166.992
166.988
166.984
166.98
166.976
166.972
166.969
166.965
166.962
166.959
166.956
166.952
166.948
166.943
166.936
166.928
166.916
166.901
166.883
166.862
166.841
166.821
166.807
166.804
166.819
166.858
166.923
167.022
167.247
167.921
169.718
166.866
166.872
166.875
166.879
166.882
166.886
166.889
166.892
166.895
166.898
166.901
166.903
166.906
166.909
166.911
166.914
166.917
166.919
166.922
166.925
166.928
166.931
166.933
166.936
166.939
166.942
166.947
166.952
166.959
166.965
166.969
166.971
166.979
167.009
167.081
167.196
167.311
167.353
167.292
167.177
167.054
166.965
166.957
166.979
166.977
166.981
166.984
166.987
166.988
166.99
166.99
166.99
166.99
166.989
166.987
166.984
166.981
166.978
166.974
166.97
166.966
166.961
166.957
166.953
166.949
166.945
166.942
166.939
166.936
166.932
166.928
166.922
166.915
166.905
166.892
166.875
166.855
166.833
166.809
166.786
166.764
166.748
166.74
166.748
166.774
166.82
166.896
167.09
167.721
169.443
166.863
166.868
166.872
166.876
166.879
166.882
166.885
166.888
166.891
166.894
166.897
166.9
166.902
166.905
166.908
166.91
166.913
166.916
166.918
166.921
166.924
166.926
166.929
166.932
166.936
166.941
166.945
166.949
166.948
166.94
166.923
166.904
166.894
166.918
166.992
167.104
167.194
167.191
167.099
167.019
166.979
166.949
166.94
166.952
166.956
166.96
166.964
166.967
166.969
166.971
166.972
166.972
166.971
166.97
166.968
166.965
166.962
166.959
166.955
166.951
166.946
166.942
166.938
166.934
166.93
166.926
166.923
166.92
166.916
166.912
166.906
166.899
166.888
166.874
166.857
166.837
166.814
166.79
166.765
166.741
166.719
166.702
166.691
166.693
166.709
166.741
166.8
166.976
167.581
169.261
166.86
166.865
166.869
166.872
166.876
166.879
166.882
166.885
166.888
166.891
166.893
166.896
166.899
166.901
166.904
166.907
166.909
166.912
166.915
166.917
166.92
166.923
166.927
166.931
166.937
166.94
166.939
166.926
166.9
166.858
166.807
166.76
166.738
166.769
166.865
166.998
167.089
167.065
166.963
166.919
166.94
166.938
166.926
166.934
166.943
166.946
166.951
166.954
166.957
166.959
166.96
166.96
166.959
166.958
166.956
166.953
166.95
166.946
166.942
166.937
166.933
166.928
166.924
166.92
166.916
166.913
166.909
166.906
166.901
166.896
166.888
166.878
166.864
166.847
166.827
166.805
166.781
166.756
166.732
166.709
166.687
166.669
166.656
166.653
166.662
166.685
166.735
166.901
167.497
169.167
166.857
166.862
166.866
166.869
166.873
166.876
166.879
166.882
166.885
166.888
166.89
166.893
166.896
166.898
166.901
166.904
166.906
166.909
166.911
166.914
166.917
166.921
166.926
166.933
166.937
166.934
166.916
166.875
166.812
166.734
166.654
166.593
166.572
166.604
166.688
166.791
166.864
166.879
166.874
166.903
166.941
166.939
166.931
166.938
166.946
166.949
166.953
166.956
166.958
166.959
166.959
166.959
166.957
166.956
166.953
166.95
166.946
166.942
166.937
166.932
166.927
166.922
166.918
166.913
166.909
166.905
166.902
166.897
166.892
166.884
166.874
166.861
166.845
166.825
166.804
166.781
166.757
166.734
166.711
166.689
166.668
166.649
166.634
166.627
166.632
166.651
166.697
166.865
167.47
169.158
166.855
166.86
166.863
166.867
166.87
166.873
166.876
166.879
166.882
166.885
166.888
166.89
166.893
166.896
166.898
166.901
166.903
166.906
166.908
166.911
166.914
166.92
166.928
166.937
166.941
166.93
166.896
166.832
166.741
166.639
166.547
166.485
166.465
166.491
166.554
166.637
166.722
166.801
166.872
166.926
166.947
166.945
166.947
166.955
166.961
166.964
166.968
166.971
166.972
166.973
166.972
166.97
166.968
166.965
166.961
166.957
166.952
166.947
166.942
166.936
166.931
166.925
166.92
166.915
166.91
166.906
166.901
166.895
166.888
166.878
166.866
166.851
166.832
166.812
166.79
166.767
166.744
166.722
166.7
166.679
166.658
166.639
166.623
166.614
166.617
166.635
166.686
166.866
167.498
169.234
166.852
166.857
166.861
166.864
166.868
166.871
166.874
166.877
166.88
166.882
166.885
166.888
166.89
166.893
166.896
166.898
166.901
166.903
166.905
166.908
166.912
166.92
166.93
166.938
166.935
166.911
166.858
166.775
166.672
166.57
166.491
166.454
166.465
166.519
166.602
166.697
166.79
166.87
166.923
166.945
166.948
166.951
166.961
166.97
166.978
166.985
166.991
166.994
166.996
166.995
166.993
166.99
166.987
166.982
166.978
166.972
166.967
166.961
166.955
166.948
166.942
166.936
166.93
166.925
166.919
166.914
166.908
166.9
166.891
166.879
166.865
166.848
166.829
166.808
166.786
166.764
166.742
166.72
166.699
166.678
166.657
166.637
166.62
166.61
166.614
166.637
166.699
166.904
167.58
169.394
166.85
166.855
166.859
166.862
166.866
166.869
166.872
166.875
166.877
166.88
166.883
166.886
166.888
166.891
166.893
166.896
166.898
166.901
166.904
166.908
166.913
166.919
166.923
166.921
166.908
166.883
166.844
166.798
166.755
166.729
166.731
166.759
166.801
166.841
166.871
166.902
166.951
166.98
166.985
166.985
166.988
166.998
167.011
167.019
167.023
167.027
167.024
167.016
167.007
167.003
166.999
166.996
166.993
166.988
166.983
166.977
166.971
166.965
166.959
166.953
166.947
166.941
166.936
166.931
166.926
166.92
166.913
166.905
166.895
166.883
166.868
166.85
166.831
166.81
166.789
166.768
166.747
166.726
166.705
166.684
166.663
166.642
166.624
166.616
166.622
166.653
166.733
166.969
167.698
169.597
166.848
166.853
166.857
166.86
166.864
166.867
166.87
166.873
166.875
166.878
166.881
166.883
166.886
166.889
166.891
166.894
166.897
166.899
166.9
166.901
166.901
166.904
166.914
166.935
166.965
166.994
167.014
167.015
166.995
166.955
166.89
166.798
166.703
166.658
166.734
167.025
167.035
167.02
167.011
167.002
166.996
166.992
166.988
166.985
166.981
166.976
166.971
166.966
166.961
166.956
166.95
166.945
166.94
166.935
166.931
166.926
166.921
166.916
166.91
166.902
166.892
166.879
166.865
166.848
166.83
166.811
166.791
166.771
166.751
166.731
166.711
166.69
166.668
166.648
166.631
166.624
166.637
166.678
166.775
167.034
167.782
169.66
166.847
166.852
166.855
166.859
166.862
166.865
166.868
166.871
166.874
166.876
166.879
166.881
166.884
166.887
166.889
166.892
166.894
166.894
166.894
166.895
166.899
166.907
166.917
166.92
166.911
166.891
166.866
166.828
166.744
166.567
166.316
166.098
166.024
166.141
166.457
166.918
167.019
166.997
166.99
166.984
166.979
166.976
166.972
166.968
166.964
166.96
166.956
166.952
166.947
166.943
166.938
166.934
166.93
166.926
166.922
166.918
166.913
166.908
166.902
166.894
166.885
166.873
166.859
166.844
166.827
166.809
166.791
166.772
166.754
166.734
166.714
166.693
166.672
166.652
166.636
166.634
166.652
166.702
166.807
167.062
167.763
169.485
166.845
166.85
166.854
166.857
166.86
166.863
166.866
166.869
166.872
166.874
166.877
166.88
166.882
166.885
166.887
166.889
166.891
166.894
166.901
166.912
166.93
166.954
166.986
167.027
167.066
167.051
166.89
166.505
165.93
165.409
165.206
165.226
165.42
165.828
166.333
166.884
166.999
166.979
166.974
166.969
166.965
166.962
166.958
166.955
166.951
166.948
166.944
166.941
166.937
166.933
166.93
166.926
166.922
166.918
166.915
166.911
166.907
166.902
166.896
166.888
166.879
166.869
166.856
166.842
166.827
166.811
166.794
166.776
166.758
166.739
166.719
166.698
166.677
166.658
166.644
166.645
166.667
166.718
166.815
167.04
167.668
169.252
166.844
166.849
166.852
166.856
166.859
166.862
166.865
166.868
166.87
166.873
166.875
166.878
166.88
166.883
166.885
166.889
166.894
166.902
166.912
166.926
166.943
166.967
167.014
167.091
167.16
167.092
166.69
165.854
164.809
164.152
164.257
164.67
165.111
165.691
166.251
166.829
166.983
166.967
166.963
166.959
166.955
166.952
166.95
166.947
166.944
166.941
166.938
166.935
166.932
166.929
166.925
166.922
166.919
166.915
166.912
166.908
166.904
166.899
166.893
166.887
166.878
166.869
166.858
166.845
166.831
166.816
166.801
166.784
166.766
166.747
166.727
166.706
166.686
166.668
166.656
166.657
166.678
166.723
166.803
166.994
167.567
169.083
166.843
166.848
166.851
166.854
166.858
166.861
166.863
166.866
166.869
166.871
166.874
166.876
166.88
166.883
166.887
166.888
166.887
166.882
166.871
166.855
166.838
166.834
166.865
166.931
166.959
166.763
166.128
165.032
163.849
163.303
163.7
164.337
164.861
165.477
166.056
166.664
166.973
166.959
166.956
166.952
166.95
166.947
166.945
166.943
166.94
166.938
166.936
166.933
166.931
166.928
166.925
166.922
166.919
166.916
166.912
166.909
166.905
166.9
166.895
166.889
166.882
166.873
166.864
166.853
166.84
166.826
166.811
166.795
166.778
166.759
166.739
166.718
166.698
166.68
166.668
166.668
166.684
166.719
166.783
166.952
167.507
169.028
166.842
166.847
166.85
166.853
166.856
166.859
166.862
166.865
166.867
166.87
166.873
166.877
166.882
166.886
166.884
166.871
166.842
166.797
166.737
166.674
166.623
166.614
166.672
166.788
166.851
166.634
165.904
164.673
163.394
162.867
163.377
164.069
164.564
165.179
165.793
166.44
166.967
166.954
166.951
166.948
166.946