/*--------------------------------*- C++ -*----------------------------------*\
| =========                 |                                                 |
| \\      /  F ield         | OpenFOAM: The Open Source CFD Toolbox           |
|  \\    /   O peration     | Version:  v2012                                 |
|   \\  /    A nd           | Website:  www.openfoam.com                      |
|    \\/     M anipulation  |                                                 |
\*---------------------------------------------------------------------------*/
FoamFile
{
    version     2.0;
    format      ascii;
    class       volScalarField;
    location    "200/air";
    object      k;
}
// * * * * * * * * * * * * * * * * * * * * * * * * * * * * * * * * * * * * * //

dimensions      [0 2 -2 0 0 0 0];


internalField   nonuniform List<scalar> 
287104
(
0.0833953
0.0716916
0.0632912
0.0569684
0.0520527
0.0481363
0.0449539
0.0423252
0.0401235
0.0382574
0.0366593
0.0352783
0.0340753
0.0330198
0.0320877
0.0312596
0.03052
0.0298561
0.0292573
0.0287149
0.0282216
0.0277712
0.0273584
0.0269789
0.0266287
0.0263046
0.0260036
0.0257233
0.0254614
0.025216
0.0249853
0.0247678
0.0245622
0.0243671
0.0241814
0.0240041
0.0238342
0.0236708
0.023513
0.0233601
0.0232114
0.0230662
0.0229237
0.0227833
0.0226444
0.0225065
0.0223688
0.0222309
0.0220922
0.0219523
0.0218106
0.0216668
0.0215206
0.0213716
0.0212198
0.0210651
0.0209075
0.0207471
0.0205843
0.0204194
0.020253
0.0200859
0.0199187
0.0197523
0.0195879
0.0194265
0.0192692
0.0191172
0.0189716
0.0188336
0.0187042
0.0185843
0.0184747
0.0183761
0.0182889
0.0182132
0.0181491
0.0180964
0.0180547
0.0180232
0.0180011
0.0179873
0.0179802
0.0179783
0.0179792
0.01798
0.0179769
0.0179603
0.0179296
0.0177679
0.0833921
0.0716853
0.0632825
0.0569578
0.0520408
0.0481233
0.04494
0.0423107
0.0401085
0.038242
0.0366436
0.0352625
0.0340595
0.0330041
0.0320722
0.0312445
0.0305053
0.0298417
0.0292434
0.0287015
0.0282086
0.0277587
0.0273465
0.0269675
0.0266179
0.0262944
0.0259941
0.0257145
0.0254534
0.0252088
0.0249791
0.0247627
0.0245582
0.0243643
0.0241799
0.0240039
0.0238354
0.0236735
0.0235172
0.0233658
0.0232186
0.0230748
0.0229337
0.0227946
0.0226569
0.02252
0.0223831
0.0222459
0.0221077
0.021968
0.0218263
0.0216823
0.0215357
0.0213862
0.0212336
0.021078
0.0209194
0.020758
0.0205942
0.0204284
0.0202613
0.0200935
0.0199258
0.0197593
0.0195949
0.0194338
0.0192772
0.0191261
0.0189817
0.0188452
0.0187174
0.0185995
0.018492
0.0183955
0.0183104
0.0182368
0.0181746
0.0181236
0.0180834
0.018053
0.0180316
0.0180181
0.0180109
0.0180083
0.0180083
0.0180078
0.0180031
0.017985
0.0179527
0.0177921
0.0833907
0.0716826
0.0632788
0.0569532
0.0520353
0.0481171
0.0449332
0.0423033
0.0401006
0.0382337
0.0366351
0.0352538
0.0340508
0.0329955
0.0320638
0.0312363
0.0304973
0.0298341
0.0292361
0.0286945
0.028202
0.0277525
0.0273407
0.0269621
0.0266131
0.0262901
0.0259904
0.0257115
0.0254511
0.0252074
0.0249786
0.0247632
0.0245598
0.0243671
0.024184
0.0240094
0.0238423
0.0236819
0.0235272
0.0233775
0.0232319
0.0230898
0.0229504
0.022813
0.0226769
0.0225416
0.0224063
0.0222706
0.0221338
0.0219955
0.0218551
0.0217124
0.021567
0.0214187
0.0212673
0.0211129
0.0209556
0.0207956
0.0206333
0.0204692
0.0203039
0.0201381
0.0199728
0.0198089
0.0196474
0.0194895
0.0193364
0.0191892
0.0190492
0.0189173
0.0187946
0.018682
0.0185803
0.0184898
0.0184111
0.018344
0.0182887
0.0182446
0.0182113
0.0181879
0.0181736
0.018167
0.0181667
0.0181709
0.0181777
0.0181841
0.0181866
0.0181763
0.0181524
0.0180066
0.0833894
0.0716797
0.0632745
0.0569475
0.0520284
0.048109
0.044924
0.042293
0.0400895
0.0382218
0.0366226
0.035241
0.0340379
0.0329826
0.032051
0.0312236
0.0304848
0.0298218
0.0292239
0.0286825
0.0281902
0.0277409
0.0273293
0.026951
0.0266022
0.0262795
0.0259802
0.0257018
0.025442
0.0251989
0.0249709
0.0247564
0.024554
0.0243624
0.0241806
0.0240074
0.0238418
0.0236829
0.0235299
0.0233819
0.0232381
0.0230977
0.02296
0.0228242
0.0226898
0.0225559
0.0224221
0.0222877
0.022152
0.0220147
0.0218752
0.0217332
0.0215884
0.0214405
0.0212894
0.0211352
0.0209779
0.0208179
0.0206555
0.0204913
0.0203258
0.02016
0.0199946
0.0198306
0.0196693
0.0195116
0.0193589
0.0192122
0.0190729
0.018942
0.0188206
0.0187096
0.0186097
0.0185215
0.0184453
0.0183812
0.0183292
0.0182888
0.0182596
0.0182407
0.018231
0.0182294
0.0182343
0.0182441
0.0182568
0.0182697
0.0182792
0.018277
0.0182621
0.0181308
0.0833883
0.0716772
0.0632708
0.0569427
0.0520225
0.048102
0.0449159
0.0422839
0.0400794
0.0382109
0.036611
0.0352291
0.0340257
0.0329705
0.032039
0.0312119
0.0304733
0.0298105
0.0292129
0.0286718
0.0281797
0.0277306
0.0273192
0.0269412
0.0265926
0.0262703
0.0259715
0.0256935
0.0254343
0.025192
0.0249648
0.0247513
0.02455
0.0243597
0.0241793
0.0240076
0.0238436
0.0236865
0.0235353
0.0233892
0.0232473
0.0231088
0.022973
0.0228391
0.0227065
0.0225744
0.0224422
0.0223092
0.0221749
0.0220388
0.0219004
0.0217593
0.0216153
0.0214681
0.0213175
0.0211638
0.0210069
0.0208472
0.020685
0.020521
0.0203557
0.0201901
0.020025
0.0198614
0.0197005
0.0195434
0.0193914
0.0192457
0.0191075
0.0189779
0.0188582
0.0187491
0.0186515
0.0185661
0.018493
0.0184325
0.0183845
0.0183485
0.0183239
0.0183098
0.0183049
0.018308
0.0183175
0.0183318
0.0183488
0.0183659
0.01838
0.0183831
0.018374
0.0182539
0.0833871
0.0716746
0.0632668
0.0569374
0.0520158
0.0480939
0.0449065
0.0422731
0.0400673
0.0381978
0.0365974
0.0352153
0.0340122
0.0329573
0.0320262
0.0311994
0.0304612
0.0297987
0.0292012
0.0286601
0.0281681
0.027719
0.0273077
0.0269297
0.0265814
0.0262593
0.0259608
0.0256833
0.0254248
0.0251833
0.0249571
0.0247448
0.0245449
0.0243563
0.0241777
0.0240081
0.0238463
0.0236916
0.0235429
0.0233994
0.0232602
0.0231245
0.0229915
0.0228604
0.0227304
0.0226009
0.0224712
0.0223406
0.0222085
0.0220745
0.0219379
0.0217986
0.0216561
0.0215103
0.0213611
0.0212085
0.0210527
0.020894
0.0207328
0.0205697
0.0204054
0.0202408
0.0200767
0.0199142
0.0197546
0.0195989
0.0194486
0.0193048
0.019169
0.0190422
0.0189256
0.0188203
0.018727
0.0186463
0.0185785
0.0185235
0.018481
0.0184505
0.0184311
0.0184215
0.0184206
0.0184269
0.018439
0.0184553
0.0184742
0.0184931
0.0185092
0.018515
0.0185093
0.0183988
0.0833859
0.071672
0.0632629
0.0569321
0.052009
0.0480855
0.0448963
0.042261
0.0400531
0.0381815
0.0365796
0.0351967
0.0339934
0.0329387
0.0320081
0.0311818
0.030444
0.0297818
0.0291847
0.0286439
0.028152
0.0277031
0.0272919
0.0269141
0.026566
0.0262443
0.0259464
0.0256697
0.0254121
0.0251719
0.0249473
0.0247368
0.0245392
0.024353
0.0241772
0.0240108
0.0238525
0.0237015
0.0235567
0.0234173
0.0232824
0.0231511
0.0230225
0.0228959
0.0227704
0.0226453
0.0225199
0.0223935
0.0222655
0.0221354
0.0220027
0.0218671
0.0217282
0.021586
0.0214402
0.0212911
0.0211387
0.0209834
0.0208257
0.0206662
0.0205057
0.0203451
0.0201854
0.0200277
0.0198735
0.019724
0.0195808
0.0194454
0.0193187
0.0192019
0.0190959
0.0190013
0.0189186
0.0188478
0.0187888
0.0187413
0.0187047
0.0186783
0.0186613
0.0186524
0.0186505
0.0186543
0.0186629
0.018675
0.0186894
0.0187039
0.0187162
0.0187199
0.0187144
0.0186152
0.0833848
0.0716695
0.0632589
0.0569266
0.0520019
0.0480766
0.0448852
0.0422477
0.0400375
0.038164
0.0365614
0.0351791
0.033977
0.0329235
0.0319937
0.0311679
0.0304301
0.0297675
0.0291696
0.0286276
0.0281344
0.0276841
0.0272715
0.0268923
0.0265431
0.0262206
0.0259221
0.0256454
0.0253883
0.0251491
0.0249261
0.0247178
0.0245229
0.0243402
0.0241683
0.024006
0.0238521
0.0237055
0.0235655
0.023431
0.023301
0.0231747
0.023051
0.022929
0.022808
0.0226872
0.0225658
0.0224433
0.022319
0.0221924
0.0220632
0.021931
0.0217956
0.0216569
0.021515
0.0213699
0.0212219
0.0210716
0.0209193
0.0207658
0.020612
0.0204586
0.0203068
0.0201575
0.0200119
0.0198712
0.0197365
0.0196089
0.0194895
0.0193791
0.0192786
0.0191885
0.0191093
0.0190412
0.0189841
0.018938
0.0189023
0.0188764
0.0188596
0.0188506
0.018848
0.0188507
0.0188582
0.0188696
0.0188837
0.0188989
0.0189135
0.0189229
0.0189292
0.0188635
0.0833836
0.0716669
0.0632548
0.0569208
0.051994
0.0480661
0.0448714
0.0422294
0.0400129
0.0381318
0.036533
0.0351667
0.0339854
0.0329512
0.0320355
0.0312167
0.0304788
0.02981
0.029201
0.0286447
0.0281351
0.0276676
0.0272381
0.026843
0.0264795
0.0261447
0.0258361
0.0255514
0.0252886
0.0250457
0.0248208
0.0246123
0.0244184
0.0242377
0.0240688
0.0239105
0.0237616
0.0236208
0.023487
0.0233585
0.0232342
0.0231129
0.0229934
0.022875
0.0227567
0.022638
0.0225185
0.0223976
0.022275
0.0221502
0.0220227
0.0218923
0.0217589
0.0216222
0.0214824
0.0213397
0.0211943
0.0210467
0.0208974
0.0207473
0.0205971
0.0204477
0.0203002
0.0201556
0.0200152
0.0198799
0.019751
0.0196295
0.0195163
0.0194124
0.0193184
0.0192349
0.0191622
0.0191005
0.0190497
0.0190096
0.0189798
0.0189596
0.0189482
0.0189437
0.0189439
0.0189482
0.0189567
0.018969
0.0189841
0.0190007
0.0190174
0.0190315
0.0190481
0.0190206
0.0833825
0.0716643
0.0632507
0.056915
0.0519862
0.0480558
0.0448579
0.0422118
0.0399895
0.0381046
0.0375262
0.0372309
0.0367982
0.0361546
0.0353405
0.0344229
0.0334619
0.0325024
0.0315748
0.0306983
0.0298839
0.0291366
0.0284576
0.0278456
0.0272972
0.0268081
0.0263734
0.0259872
0.0256431
0.0253343
0.0250539
0.0247949
0.0245503
0.024313
0.0240884
0.0238983
0.0237334
0.0235864
0.0234519
0.0233259
0.0232055
0.0230883
0.0229723
0.0228575
0.0227451
0.0226352
0.0225268
0.0224191
0.0223108
0.0222011
0.0220892
0.0219745
0.0218565
0.0217349
0.0216097
0.0214809
0.0213488
0.0212139
0.0210767
0.0209381
0.0207989
0.0206602
0.020523
0.0203885
0.0202578
0.0201321
0.0200127
0.0199006
0.0197968
0.0197023
0.0196177
0.0195437
0.0194807
0.0194287
0.0193878
0.0193579
0.0193384
0.0193289
0.0193287
0.0193355
0.0192914
0.0192418
0.0192015
0.0191732
0.0191553
0.019145
0.0191389
0.0191313
0.0191232
0.0190606
0.0833814
0.0716618
0.0632465
0.0569088
0.0519773
0.0480431
0.0448386
0.0421808
0.0399269
0.0381572
0.11855
0.142021
0.141781
0.133378
0.123122
0.113307
0.104648
0.0972717
0.0911005
0.0860011
0.0818354
0.0784766
0.0758119
0.0737403
0.07217
0.0710166
0.0702019
0.0696535
0.0693056
0.0690996
0.0689848
0.068919
0.0688692
0.0688113
0.0687323
0.0686468
0.0685699
0.0685017
0.0684379
0.0683741
0.0683072
0.0682334
0.0681467
0.0680433
0.0679196
0.0677781
0.0676246
0.0674642
0.0673004
0.0671352
0.0669693
0.066803
0.0666366
0.0664708
0.0663059
0.0661423
0.06598
0.0658189
0.0656588
0.0654999
0.0653425
0.0651874
0.0650355
0.0648882
0.0647468
0.0646134
0.0644901
0.0643793
0.0642834
0.0642049
0.0641463
0.0641099
0.0640984
0.0641147
0.0641626
0.0642478
0.0643822
0.0645853
0.0649567
0.0653281
0.0429906
0.0320959
0.0262375
0.0228727
0.0208551
0.0196103
0.0188249
0.0183106
0.0179527
0.017608
0.0833803
0.0716593
0.0632426
0.0569032
0.0519697
0.048033
0.0448254
0.0421638
0.0399045
0.0381295
0.118546
0.142069
0.141767
0.133223
0.122791
0.112787
0.103942
0.0963875
0.090052
0.0848041
0.0805075
0.0770371
0.0742816
0.0721413
0.0705253
0.0693493
0.0685338
0.0680044
0.0676921
0.0675345
0.0674768
0.0674727
0.0674845
0.0674827
0.0674454
0.0673576
0.06721
0.0669972
0.0667162
0.0663662
0.0659476
0.0654651
0.0649269
0.0643366
0.0636991
0.0630208
0.0623069
0.061564
0.0607993
0.0600171
0.0592223
0.0584197
0.0576145
0.0568121
0.056018
0.0552372
0.0544745
0.0537346
0.0530217
0.0523397
0.0516918
0.0510806
0.0505079
0.0499752
0.0494832
0.049032
0.0486216
0.0482514
0.0479205
0.0476281
0.0473731
0.0471548
0.0469727
0.0468267
0.0467181
0.0466496
0.0466296
0.0466662
0.0468331
0.0469424
0.0328891
0.0256618
0.0216108
0.0191978
0.0176975
0.0167335
0.0160938
0.0156413
0.0152967
0.0148629
0.0833792
0.0716569
0.0632387
0.0568976
0.0519622
0.048023
0.0448121
0.042146
0.0398805
0.0380973
0.118319
0.141835
0.141587
0.133097
0.122704
0.112721
0.103881
0.0963214
0.0899754
0.0847159
0.0804106
0.0769378
0.0741891
0.0720672
0.070483
0.0693528
0.0685972
0.0681407
0.0679128
0.0678489
0.0678919
0.0679936
0.0681145
0.0682241
0.0682998
0.0683253
0.0682902
0.0681879
0.0680153
0.0677716
0.0674573
0.067074
0.0666243
0.0661112
0.0655383
0.06491
0.0642313
0.0635056
0.062737
0.0619323
0.0610957
0.0602315
0.0593442
0.058438
0.0575176
0.0565877
0.0556531
0.0547188
0.0537901
0.0528724
0.051971
0.0510913
0.0502385
0.0494172
0.0486318
0.0478861
0.047183
0.0465252
0.0459146
0.0453584
0.0448577
0.0444115
0.0440191
0.0436799
0.0433941
0.0431624
0.0429904
0.0428824
0.0428968
0.0428605
0.0306845
0.0247001
0.0215078
0.0196933
0.0186036
0.0179116
0.0174417
0.0170853
0.0167822
0.0163512
0.0833781
0.0716545
0.0632351
0.0568927
0.0519558
0.0480149
0.0448021
0.042134
0.0398662
0.038081
0.118242
0.141757
0.14152
0.133037
0.122644
0.112657
0.103809
0.0962409
0.0898865
0.0846199
0.0803096
0.0768346
0.0740869
0.0719696
0.070394
0.0692769
0.0685389
0.0681045
0.0679031
0.0678697
0.067947
0.0680863
0.0682479
0.0684007
0.0685218
0.0685948
0.0686087
0.0685559
0.0684321
0.0682352
0.0679646
0.0676211
0.067207
0.0667253
0.0661815
0.0655822
0.0649348
0.0642468
0.0635244
0.0627735
0.0620003
0.0612105
0.0604093
0.0596018
0.0587924
0.0579858
0.0571866
0.0563994
0.055629
0.0548804
0.0541586
0.0534685
0.0528149
0.0522023
0.0516346
0.0511154
0.0506476
0.0502333
0.0498742
0.0495665
0.0493124
0.0491128
0.0489678
0.0488777
0.0488427
0.0488652
0.0489536
0.0491273
0.0494841
0.0501034
0.0365468
0.0299979
0.0264817
0.02443
0.0231426
0.0222752
0.0216392
0.0211162
0.020658
0.0201666
0.0833771
0.0716522
0.0632316
0.056888
0.0519499
0.0480077
0.0447933
0.0421234
0.0398537
0.0380663
0.118147
0.141637
0.1414
0.132924
0.122539
0.112557
0.103712
0.0961446
0.0897893
0.0845213
0.0802098
0.0767345
0.073988
0.0718741
0.0703043
0.0691956
0.0684688
0.0680484
0.0678635
0.0678491
0.0679478
0.0681108
0.0682984
0.0684797
0.0686318
0.068738
0.0687865
0.0687682
0.0686771
0.0685091
0.0682615
0.0679337
0.067527
0.0670445
0.0664925
0.0658787
0.0652122
0.0645016
0.0637548
0.0629799
0.0621845
0.0613755
0.0605595
0.0597422
0.0589295
0.0581265
0.0573386
0.0565707
0.0558282
0.0551162
0.0544402
0.05381
0.053241
0.0527314
0.0522785
0.0518811
0.0515396
0.051255
0.051028
0.050857
0.0507388
0.0506721
0.0506549
0.0506845
0.050761
0.0508855
0.0510664
0.0513194
0.051739
0.0523996
0.0381191
0.0312623
0.0276064
0.0254882
0.024167
0.0232812
0.0226359
0.0221087
0.0215746
0.0209556
0.0833761
0.0716501
0.0632284
0.0568838
0.0519447
0.0480016
0.0447863
0.0421154
0.0398447
0.0380562
0.118082
0.141545
0.141295
0.132812
0.122422
0.112437
0.10359
0.0960211
0.0896653
0.0843978
0.080088
0.0766156
0.0738735
0.0717653
0.0702028
0.0691029
0.0683862
0.0679772
0.067805
0.0678044
0.0679181
0.0680975
0.0683035
0.0685055
0.0686808
0.0688131
0.0688896
0.0689
0.0688358
0.06869
0.0684571
0.0681339
0.0677203
0.0672193
0.0666384
0.0659877
0.065279
0.0645233
0.0637311
0.0629123
0.0620751
0.0612269
0.0603743
0.0595233
0.0586797
0.0578489
0.0570363
0.0562468
0.0554855
0.0547576
0.0540679
0.0534213
0.0528229
0.0522764
0.0517859
0.0513575
0.0510039
0.0507195
0.0504976
0.0503335
0.0502246
0.0501687
0.0501634
0.0502075
0.0502989
0.0504368
0.0506281
0.0508898
0.0513182
0.0519955
0.0379192
0.0311528
0.0275384
0.0254387
0.0241246
0.0232402
0.0225932
0.0220628
0.0215275
0.0209708
0.0833751
0.071648
0.0632254
0.05688
0.0519403
0.0479967
0.0447811
0.0421101
0.0398394
0.0380509
0.118049
0.141486
0.141211
0.132707
0.122299
0.112301
0.103444
0.0958694
0.0895111
0.0842443
0.0799382
0.0764722
0.0737389
0.0716415
0.070091
0.0690037
0.0682998
0.0679031
0.0677424
0.0677526
0.0678767
0.068067
0.0682852
0.0685022
0.0686966
0.0688526
0.0689572
0.0689984
0.0689643
0.0688435
0.0686253
0.0683024
0.0678723
0.0673381
0.0667089
0.0659987
0.0652226
0.0643956
0.0635314
0.062641
0.0617336
0.0608167
0.0598977
0.0589836
0.0580807
0.0571945
0.0563299
0.0554919
0.0546848
0.0539135
0.0531829
0.0524978
0.0518627
0.0512817
0.0507581
0.0502946
0.0498924
0.0495522
0.0492737
0.0490557
0.0488967
0.0487946
0.048747
0.0487518
0.0488056
0.0489109
0.0490801
0.049337
0.0497684
0.0504605
0.0369432
0.0304362
0.026953
0.0249242
0.0236504
0.0227893
0.0221552
0.0216334
0.0211822
0.0207126
0.0833741
0.0716459
0.0632225
0.0568765
0.0519364
0.0479926
0.0447769
0.042106
0.0398355
0.0380467
0.117989
0.141373
0.14106
0.132535
0.122121
0.112124
0.103273
0.0957089
0.0893633
0.0841114
0.0798228
0.0763777
0.0736688
0.0715993
0.0700795
0.0690244
0.0683528
0.0679872
0.0678558
0.0678936
0.0680448
0.0682637
0.0685144
0.0687705
0.0690127
0.0692255
0.0693951
0.0695049
0.0695356
0.0694663
0.069276
0.0689494
0.0684817
0.067878
0.0671546
0.0663344
0.0654413
0.0644982
0.0635234
0.0625343
0.0615407
0.060545
0.0595504
0.0585621
0.0575858
0.056627
0.0556904
0.0547807
0.053902
0.0530583
0.0522541
0.0514943
0.0507837
0.0501264
0.0495262
0.0489855
0.0485054
0.0480854
0.0477261
0.0474271
0.0471877
0.0470063
0.0468801
0.0468067
0.0467865
0.0468178
0.0469032
0.047045
0.0473039
0.0475637
0.0346629
0.0284136
0.0250683
0.0231706
0.0220415
0.0213245
0.0208318
0.0204546
0.0201293
0.0197144
0.0833732
0.071644
0.0632199
0.0568736
0.0519335
0.0479903
0.0447761
0.0421077
0.0398416
0.0380588
0.11809
0.141432
0.141043
0.13245
0.121989
0.111972
0.10313
0.0956046
0.0893303
0.0841839
0.0800353
0.0767626
0.074254
0.0724048
0.0711163
0.0702939
0.0698484
0.0696973
0.069767
0.0699944
0.0703274
0.0707255
0.0711582
0.071603
0.0720418
0.072458
0.0728309
0.0731313
0.0733216
0.0733566
0.0731909
0.072793
0.0721543
0.0712904
0.0702394
0.0690521
0.0677813
0.066475
0.0651716
0.0638936
0.0626573
0.0614782
0.0603454
0.0592503
0.0581862
0.0571474
0.0561303
0.0551334
0.0541576
0.0532075
0.0522959
0.0514303
0.050618
0.0498654
0.0491782
0.04856
0.0480126
0.0475385
0.0471381
0.0468103
0.0465528
0.0463628
0.0462375
0.0461746
0.0461722
0.0462295
0.0463508
0.046541
0.0468654
0.0471677
0.0338121
0.0272346
0.0237074
0.0216891
0.0204713
0.0197003
0.0191862
0.018817
0.0185249
0.0181695
0.0833722
0.0716421
0.0632173
0.0568707
0.0519307
0.0479879
0.0447748
0.0421081
0.0398451
0.0380643
0.117922
0.141146
0.140801
0.132341
0.122108
0.112458
0.104141
0.0972954
0.091837
0.0876108
0.0844455
0.0821744
0.0806415
0.079705
0.0792387
0.0791332
0.0792965
0.0796537
0.0801462
0.0807296
0.0813721
0.0820515
0.0827533
0.0834673
0.0841845
0.0848928
0.0855703
0.0861786
0.0866591
0.086929
0.0868924
0.0864649
0.0855941
0.0842708
0.0825297
0.0804381
0.0780826
0.0755597
0.0729687
0.0704056
0.0679551
0.0657184
0.0637695
0.0621309
0.0607681
0.0596269
0.0586538
0.0577957
0.0570539
0.0564326
0.0559154
0.0554867
0.0551311
0.0548363
0.0545937
0.0543935
0.0542273
0.0540948
0.0540003
0.0539476
0.0539401
0.0539801
0.0540697
0.0542112
0.0544071
0.0546601
0.0549785
0.0553748
0.055934
0.0565007
0.0382861
0.029444
0.0247248
0.0220416
0.0204514
0.0194825
0.0188833
0.01851
0.0182653
0.0180136
0.0833713
0.0716403
0.063215
0.0568683
0.051929
0.0479881
0.0447796
0.0421228
0.0398898
0.0379925
0.0367077
0.0356172
0.0345169
0.0334639
0.0324968
0.031608
0.0307929
0.0300474
0.0293676
0.0287493
0.0281881
0.0276799
0.0272205
0.0268058
0.0264318
0.0260951
0.0257921
0.02552
0.0252761
0.0250581
0.024864
0.0246925
0.0245423
0.0244128
0.024304
0.0242161
0.0241494
0.0241037
0.0240773
0.0240663
0.0240637
0.0240612
0.0240502
0.0240235
0.0239758
0.0239046
0.0238088
0.0236888
0.0235461
0.023382
0.023198
0.0230121
0.0228475
0.0226803
0.0224956
0.0222846
0.0220426
0.0217739
0.0215122
0.0212564
0.0210052
0.0207578
0.0205137
0.0202732
0.0200371
0.0198087
0.0195935
0.0193953
0.019216
0.0190569
0.0189177
0.018798
0.0186972
0.0186146
0.0185498
0.018502
0.0184705
0.0184542
0.0184523
0.0184639
0.0184423
0.0184212
0.0184118
0.0184151
0.0184291
0.0184501
0.0184736
0.018492
0.0184936
0.0184207
0.0833704
0.0716384
0.0632125
0.0568654
0.0519261
0.0479856
0.0447781
0.042123
0.0398928
0.0379975
0.0363747
0.0349749
0.0337563
0.032686
0.0317389
0.0308953
0.0301392
0.0294582
0.028842
0.0282823
0.0277725
0.027307
0.0268811
0.0264909
0.0261332
0.0258051
0.0255043
0.025229
0.0249776
0.0247489
0.024542
0.0243563
0.0241917
0.0240483
0.0239273
0.02383
0.0237586
0.023714
0.0236963
0.0237008
0.0237189
0.0237393
0.0237507
0.0237448
0.0237159
0.0236604
0.0235786
0.0234717
0.0233428
0.0231942
0.0230279
0.0228459
0.0226503
0.0224431
0.0222259
0.0220001
0.0217671
0.0215287
0.021287
0.0210443
0.0208027
0.020564
0.0203303
0.0201035
0.0198853
0.0196772
0.0194802
0.0192952
0.0191229
0.0189641
0.0188197
0.0186909
0.0185782
0.0184818
0.0184018
0.0183383
0.018291
0.0182595
0.0182432
0.0182403
0.0182486
0.0182664
0.0182935
0.0183291
0.0183718
0.0184197
0.0184704
0.0185193
0.0185609
0.0185462
0.0833695
0.0716365
0.0632099
0.0568625
0.0519231
0.0479831
0.0447769
0.042124
0.0398978
0.0380077
0.0363876
0.0349869
0.0337652
0.0326912
0.0317402
0.0308926
0.0301326
0.0294476
0.0288273
0.0282633
0.0277488
0.0272782
0.0268468
0.0264508
0.0260869
0.0257523
0.0254447
0.0251623
0.0249036
0.0246677
0.0244536
0.0242611
0.0240903
0.023942
0.023818
0.0237215
0.0236564
0.0236265
0.0236345
0.0236755
0.0237366
0.0238008
0.0238511
0.0238751
0.0238662
0.0238221
0.0237434
0.0236333
0.0234953
0.0233328
0.0231493
0.022948
0.022732
0.0225038
0.0222659
0.0220204
0.0217697
0.0215155
0.0212602
0.0210056
0.0207538
0.0205061
0.0202649
0.0200324
0.0198105
0.019601
0.0194053
0.0192246
0.0190598
0.0189117
0.0187809
0.0186677
0.0185721
0.0184942
0.0184332
0.0183885
0.0183593
0.0183445
0.0183435
0.0183553
0.0183788
0.0184133
0.0184584
0.0185136
0.0185782
0.0186506
0.0187285
0.0188078
0.0188859
0.0189148
0.0833686
0.0716346
0.0632071
0.0568591
0.0519192
0.0479788
0.0447723
0.0421191
0.0398926
0.0380015
0.0363789
0.0349743
0.0337481
0.0326695
0.0317139
0.0308618
0.0300975
0.0294081
0.0287834
0.028215
0.0276959
0.0272206
0.0267844
0.0263836
0.0260147
0.0256752
0.0253627
0.0250754
0.0248119
0.0245709
0.0243518
0.0241543
0.0239787
0.0238262
0.0236995
0.0236037
0.0235457
0.0235341
0.0235788
0.0236766
0.0238096
0.0239508
0.0240712
0.0241514
0.0241821
0.0241616
0.024092
0.0239801
0.0238338
0.0236582
0.023458
0.0232372
0.0229995
0.022748
0.0224858
0.0222156
0.0219401
0.021662
0.0213837
0.0211079
0.0208368
0.0205729
0.0203182
0.020075
0.019845
0.01963
0.0194314
0.0192504
0.0190881
0.0189449
0.0188216
0.0187181
0.0186347
0.0185712
0.0185327
0.0185186
0.018528
0.0185602
0.0186148
0.0186909
0.0187873
0.0189027
0.0190361
0.0191861
0.0193509
0.0195282
0.0197143
0.0199043
0.0200886
0.0202231
0.0833676
0.0716326
0.0632042
0.0568554
0.0519148
0.0479739
0.0447669
0.0421132
0.0398862
0.0379943
0.0363703
0.0349632
0.0337337
0.032651
0.0316908
0.0308337
0.030064
0.029369
0.0287384
0.0281638
0.0276385
0.0271568
0.0267142
0.0263069
0.0259318
0.0255862
0.0252677
0.0249745
0.0247051
0.0244582
0.024233
0.0240289
0.0238463
0.0236863
0.0235524
0.0234516
0.0233947
0.0233994
0.0234987
0.0237088
0.0240107
0.0243507
0.0246633
0.024908
0.0250673
0.0251384
0.0251269
0.025039
0.0249101
0.0247476
0.0245577
0.0243454
0.0241147
0.0238688
0.023611
0.0233439
0.0230704
0.0227935
0.0225161
0.0222412
0.021972
0.0217114
0.0214623
0.0212273
0.021009
0.0208094
0.0206304
0.0204735
0.02034
0.0202309
0.0201516
0.0201107
0.020106
0.0201352
0.0201919
0.0202761
0.0203881
0.0205269
0.0206907
0.0208779
0.0210865
0.0213138
0.021557
0.0218126
0.022077
0.0223462
0.0226147
0.0228768
0.0231191
0.0233114
0.0833667
0.0716305
0.0632012
0.0568514
0.0519099
0.0479679
0.0447597
0.0421048
0.0398761
0.0379821
0.0363553
0.0349447
0.033711
0.0326237
0.0316585
0.030796
0.0300206
0.0293196
0.0286829
0.0281019
0.0275699
0.0270814
0.0266318
0.0262174
0.0258353
0.0254828
0.0251576
0.0248578
0.0245818
0.0243281
0.0240957
0.0238836
0.0236917
0.0235209
0.0233743
0.023261
0.0231952
0.0232141
0.0234591
0.0240664
0.0250219
0.0261294
0.0271711
0.0280545
0.0287472
0.0292545
0.0295968
0.0297967
0.0298486
0.0298231
0.0297423
0.0296024
0.0294019
0.0291428
0.0288306
0.0284737
0.0280823
0.0276676
0.0272407
0.0268123
0.0263918
0.0259875
0.0256062
0.0252534
0.0249334
0.0246496
0.0244042
0.0242012
0.0240544
0.0239602
0.0239113
0.0238977
0.0239194
0.0239771
0.0240715
0.0241995
0.0243571
0.0245406
0.0247471
0.0249787
0.0252282
0.025487
0.0257481
0.0260059
0.0262553
0.0264924
0.0267115
0.0269084
0.0270622
0.0271642
0.0833658
0.0716285
0.0631981
0.0568473
0.0519046
0.0479614
0.044752
0.0420955
0.039865
0.0379688
0.0363393
0.0349254
0.0336878
0.032596
0.0316257
0.0307575
0.029976
0.0292684
0.0286245
0.0280359
0.027496
0.0269991
0.026541
0.026118
0.0257273
0.0253664
0.0250331
0.0247254
0.0244415
0.0241798
0.0239388
0.023717
0.0235131
0.0233268
0.0231589
0.0230191
0.0229222
0.0229516
0.0238838
0.0264359
0.0303286
0.0344773
0.0380437
0.0408193
0.0427807
0.0440226
0.044666
0.0448279
0.0446091
0.0440458
0.0432218
0.0422348
0.0411516
0.0400142
0.03886
0.0377202
0.0366191
0.0355747
0.0345995
0.0337016
0.0328858
0.0321539
0.031506
0.0309408
0.0304559
0.0300485
0.0297227
0.0294772
0.0292943
0.029172
0.0291182
0.0291171
0.0291567
0.0292281
0.0293225
0.0294333
0.0295549
0.0296833
0.0298147
0.0299458
0.0300737
0.0301959
0.0303104
0.0304152
0.0305083
0.0305882
0.0306513
0.0306962
0.0307032
0.0306785
0.0833649
0.0716265
0.0631951
0.0568431
0.0518992
0.0479546
0.0447435
0.0420852
0.0398525
0.0379537
0.036321
0.0349033
0.0336614
0.0325646
0.0315888
0.0307145
0.0299261
0.0292112
0.0285593
0.0279623
0.0274133
0.0269069
0.026439
0.026006
0.0256054
0.0252348
0.0248921
0.0245754
0.0242828
0.0240125
0.0237626
0.0235312
0.0233158
0.0231146
0.022924
0.0227526
0.0226067
0.0227316
0.027447
0.0384263
0.0515708
0.0620779
0.0683498
0.0710377
0.0710929
0.0694783
0.0669329
0.0639611
0.0608779
0.057865
0.0550143
0.0523736
0.0499673
0.0478079
0.0458888
0.0441956
0.0427105
0.041416
0.0402963
0.0393382
0.0385275
0.0378657
0.0373154
0.036853
0.0364637
0.0361373
0.0358585
0.0356219
0.0354262
0.035265
0.0351323
0.035023
0.0349329
0.0348547
0.0347855
0.0347236
0.034667
0.0346135
0.0345605
0.0345064
0.0344496
0.0343887
0.0343227
0.0342507
0.0341716
0.0340849
0.0339879
0.0338812
0.0337452
0.0335966
0.0833641
0.0716247
0.0631922
0.056839
0.0518938
0.0479478
0.044735
0.0420747
0.0398397
0.0379381
0.0363021
0.0348807
0.0336343
0.0325324
0.0315507
0.0306699
0.0298742
0.029151
0.0284901
0.0278832
0.0273236
0.026806
0.0263263
0.0258814
0.0254688
0.0250865
0.0247328
0.0244058
0.0241034
0.0238237
0.0235645
0.0233238
0.023098
0.0228833
0.0226689
0.0224555
0.0222072
0.0227785
0.0425308
0.0729468
0.0967759
0.107864
0.108218
0.102499
0.0943256
0.0858197
0.077997
0.0712229
0.0655412
0.060859
0.0570387
0.0539403
0.0514436
0.0494445
0.0478613
0.0466427
0.0457412
0.0450356
0.0444547
0.0439563
0.0435143
0.0431121
0.0427395
0.0423902
0.0420607
0.0417486
0.0414525
0.0411657
0.040885
0.0406115
0.0403458
0.0400887
0.0398433
0.0396061
0.0393732
0.0391416
0.03891
0.0386793
0.0384497
0.0382206
0.0379916
0.0377626
0.0375333
0.0373038
0.0370737
0.0368434
0.0366107
0.0363773
0.0361235
0.0358735
0.0833635
0.0716231
0.0631896
0.0568353
0.0518888
0.0479413
0.0447267
0.0420643
0.0398268
0.0379223
0.0362828
0.0348573
0.0336062
0.0324988
0.0315109
0.0306228
0.0298189
0.0290866
0.0284155
0.0277973
0.0272254
0.0266945
0.0262009
0.0257418
0.025315
0.0249191
0.0245528
0.0242143
0.0239015
0.0236122
0.0233451
0.0230993
0.0228738
0.0226683
0.0224731
0.0222893
0.022064
0.0226915
0.0443054
0.0774465
0.103205
0.113917
0.113742
0.107235
0.0980353
0.0884551
0.0796645
0.0721096
0.0658559
0.060799
0.0567795
0.0536414
0.0512694
0.0496282
0.0485261
0.0478024
0.0473367
0.0470366
0.0468334
0.0466774
0.0465348
0.0463844
0.0462145
0.0460197
0.0457991
0.0455542
0.0452876
0.0450026
0.0447021
0.0443891
0.0440662
0.0437343
0.0433917
0.0430419
0.0426875
0.0423303
0.0419717
0.041612
0.0412534
0.0408965
0.0405416
0.0401895
0.0398409
0.0394967
0.0391572
0.0388232
0.0384932
0.0381698
0.0378327
0.0375123
0.0833629
0.0716219
0.0631875
0.0568322
0.0518844
0.0479354
0.0447191
0.0420545
0.0398145
0.0379069
0.036264
0.0348342
0.0335783
0.0324652
0.0314705
0.0305747
0.029762
0.0290195
0.0283367
0.0277055
0.0271191
0.0265724
0.026062
0.0255855
0.0251416
0.0247295
0.0243486
0.0239971
0.0236726
0.0233731
0.0230977
0.0228495
0.0226334
0.0224615
0.0223358
0.0222728
0.0221814
0.0228074
0.0435148
0.0763156
0.102333
0.11336
0.113328
0.10693
0.0978293
0.088359
0.0796717
0.0721864
0.0659473
0.0608378
0.0566958
0.0533819
0.0508742
0.0490702
0.0478311
0.0470509
0.0466334
0.0464845
0.0465153
0.0466475
0.0468179
0.04698
0.0471037
0.0471714
0.0471758
0.047116
0.0469953
0.0468192
0.0465944
0.0463275
0.046025
0.0456931
0.0453373
0.0449623
0.0445726
0.0441717
0.0437629
0.0433489
0.0429307
0.0425106
0.0420911
0.041674
0.0412608
0.0408532
0.040452
0.0400591
0.0396732
0.0392982
0.0389127
0.0385527
0.0833626
0.071621
0.0631859
0.0568296
0.0518807
0.0479303
0.0447122
0.0420455
0.0398029
0.0378924
0.0362458
0.0348118
0.0335508
0.0324317
0.03143
0.0305259
0.0297035
0.0289496
0.0282539
0.0276076
0.0270043
0.026439
0.0259084
0.0254109
0.0249463
0.024515
0.0241175
0.0237521
0.0234154
0.0231051
0.0228218
0.0225757
0.0223859
0.0222955
0.0223467
0.0226146
0.0228608
0.0235017
0.0412202
0.0708491
0.0953481
0.106788
0.10705
0.10102
0.0926824
0.0842785
0.0767121
0.0702192
0.0647586
0.0601585
0.0562306
0.0528664
0.0500074
0.0476962
0.0459357
0.0446911
0.0439304
0.0436011
0.0436244
0.043903
0.0443364
0.044835
0.0453286
0.0457683
0.046125
0.0463849
0.0465451
0.0466094
0.0465856
0.0464834
0.0463131
0.0460847
0.0458078
0.0454907
0.0451413
0.0447661
0.0443712
0.0439617
0.0435423
0.0431168
0.0426887
0.0422608
0.0418355
0.0414149
0.0410005
0.0405939
0.0401939
0.0398052
0.0394056
0.039036
0.0833624
0.0716205
0.0631848
0.0568277
0.0518777
0.0479259
0.0447062
0.0420375
0.0397924
0.0378789
0.0362288
0.0347905
0.0335243
0.0323991
0.0313901
0.0304773
0.0296445
0.0288783
0.0281679
0.0275045
0.0268814
0.0262937
0.0257384
0.0252151
0.0247248
0.02427
0.0238538
0.0234744
0.0231271
0.0228089
0.022524
0.0222973
0.0221794
0.0222903
0.0227954
0.0239162
0.0248406
0.0253689
0.026247
0.0295583
0.0356589
0.0421028
0.0478167
0.0522703
0.05484
0.0557929
0.0555621
0.0545738
0.053127
0.0513913
0.0495129
0.0475658
0.0456181
0.0437475
0.0420406
0.0405871
0.0394777
0.0388256
0.0386696
0.0389387
0.03953
0.0403243
0.0412067
0.0420828
0.042886
0.0435761
0.0441343
0.0445567
0.0448488
0.0450211
0.0450868
0.0450597
0.0449531
0.0447796
0.0445506