/*--------------------------------*- C++ -*----------------------------------*\
| =========                 |                                                 |
| \\      /  F ield         | OpenFOAM: The Open Source CFD Toolbox           |
|  \\    /   O peration     | Version:  v2012                                 |
|   \\  /    A nd           | Website:  www.openfoam.com                      |
|    \\/     M anipulation  |                                                 |
\*---------------------------------------------------------------------------*/
FoamFile
{
    version     2.0;
    format      ascii;
    class       volScalarField;
    location    "200/air";
    object      nut;
}
// * * * * * * * * * * * * * * * * * * * * * * * * * * * * * * * * * * * * * //

dimensions      [0 2 -1 0 0 0 0];


internalField   nonuniform List<scalar> 
287104
(
0.00648509
0.00601285
0.00564962
0.00536001
0.00512356
0.00492707
0.00476143
0.00462013
0.00449838
0.00439254
0.00429983
0.00421807
0.00414554
0.00408085
0.00402285
0.00397063
0.00392339
0.0038805
0.00384141
0.00380566
0.00377285
0.00374264
0.00371475
0.00368892
0.00366493
0.00364259
0.00362173
0.00360219
0.00358384
0.00356657
0.00355027
0.00353483
0.00352018
0.00350623
0.0034929
0.00348014
0.00346787
0.00345604
0.00344458
0.00343346
0.00342262
0.003412
0.00340158
0.00339129
0.0033811
0.00337096
0.00336084
0.00335069
0.00334048
0.00333016
0.0033197
0.00330907
0.00329823
0.00328717
0.00327586
0.00326429
0.00325244
0.00324033
0.00322795
0.00321533
0.0032025
0.0031895
0.00317637
0.00316317
0.00314998
0.00313688
0.00312396
0.00311131
0.00309902
0.0030872
0.00307594
0.00306533
0.00305547
0.00304641
0.00303823
0.00303096
0.00302462
0.00301923
0.00301477
0.0030112
0.00300847
0.00300649
0.00300516
0.00300433
0.00300381
0.00300337
0.00300267
0.00300091
0.00299802
0.00298401
0.00648496
0.00601259
0.00564923
0.00535952
0.00512298
0.0049264
0.00476069
0.00461934
0.00449753
0.00439165
0.00429891
0.00421713
0.00414458
0.00407988
0.00402189
0.00396966
0.00392244
0.00387957
0.0038405
0.00380477
0.00377198
0.0037418
0.00371394
0.00368814
0.00366419
0.00364189
0.00362106
0.00360157
0.00358328
0.00356607
0.00354983
0.00353447
0.00351989
0.00350603
0.00349279
0.00348013
0.00346796
0.00345624
0.0034449
0.00343389
0.00342316
0.00341266
0.00340234
0.00339215
0.00338206
0.003372
0.00336196
0.00335187
0.0033417
0.0033314
0.00332096
0.00331032
0.00329946
0.00328836
0.00327699
0.00326535
0.00325343
0.00324123
0.00322877
0.00321607
0.00320315
0.00319008
0.00317689
0.00316365
0.00315045
0.00313735
0.00312445
0.00311184
0.00309963
0.00308791
0.00307678
0.00306632
0.00305662
0.00304775
0.00303975
0.00303266
0.00302652
0.0030213
0.003017
0.00301356
0.00301094
0.00300904
0.00300775
0.00300691
0.00300637
0.00300587
0.00300509
0.00300325
0.00300026
0.0029864
0.00648491
0.00601247
0.00564907
0.0053593
0.00512271
0.00492609
0.00476033
0.00461894
0.00449709
0.00439118
0.00429841
0.00421661
0.00414406
0.00407935
0.00402136
0.00396914
0.00392193
0.00387907
0.00384002
0.0038043
0.00377154
0.00374138
0.00371355
0.00368778
0.00366385
0.00364159
0.0036208
0.00360136
0.00358312
0.00356596
0.00354979
0.0035345
0.00352
0.00350622
0.00349308
0.00348052
0.00346846
0.00345685
0.00344563
0.00343474
0.00342414
0.00341376
0.00340357
0.00339352
0.00338355
0.00337363
0.0033637
0.00335373
0.00334368
0.0033335
0.00332316
0.00331263
0.00330187
0.00329087
0.00327961
0.00326806
0.00325625
0.00324416
0.00323182
0.00321925
0.00320648
0.00319356
0.00318056
0.00316753
0.00315455
0.0031417
0.00312909
0.0031168
0.00310494
0.0030936
0.00308288
0.00307287
0.00306365
0.00305528
0.00304782
0.00304129
0.00303572
0.0030311
0.00302741
0.00302459
0.00302258
0.00302129
0.0030206
0.00302037
0.00302044
0.00302054
0.0030204
0.00301924
0.003017
0.00300449
0.00648486
0.00601235
0.00564887
0.00535903
0.00512237
0.00492567
0.00475985
0.00461838
0.00449647
0.00439049
0.00429768
0.00421585
0.00414327
0.00407855
0.00402055
0.00396834
0.00392113
0.00387827
0.00383922
0.00380351
0.00377075
0.0037406
0.00371277
0.00368701
0.0036631
0.00364085
0.00362009
0.00360068
0.00358247
0.00356536
0.00354924
0.00353401
0.00351958
0.00350588
0.00349284
0.00348037
0.00346842
0.00345692
0.00344582
0.00343506
0.00342458
0.00341434
0.00340428
0.00339435
0.00338451
0.00337471
0.00336489
0.00335503
0.00334507
0.00333497
0.0033247
0.00331423
0.00330352
0.00329256
0.00328132
0.0032698
0.003258
0.00324592
0.00323357
0.003221
0.00320822
0.0031953
0.00318229
0.00316926
0.00315628
0.00314345
0.00313086
0.00311861
0.0031068
0.00309553
0.0030849
0.003075
0.00306591
0.0030577
0.00305043
0.00304413
0.00303881
0.00303447
0.00303109
0.00302862
0.00302698
0.00302608
0.0030258
0.00302603
0.00302657
0.0030272
0.00302763
0.00302714
0.00302564
0.00301435
0.00648482
0.00601225
0.00564871
0.00535881
0.00512208
0.00492531
0.00475942
0.00461788
0.0044959
0.00438987
0.004297
0.00421513
0.00414253
0.0040778
0.0040198
0.00396759
0.00392039
0.00387754
0.0038385
0.0038028
0.00377005
0.00373991
0.00371209
0.00368634
0.00366245
0.00364022
0.00361948
0.0036001
0.00358193
0.00356487
0.0035488
0.00353364
0.00351929
0.00350568
0.00349274
0.00348038
0.00346855
0.00345718
0.00344621
0.00343559
0.00342526
0.00341516
0.00340525
0.00339546
0.00338576
0.00337609
0.0033664
0.00335665
0.0033468
0.00333681
0.00332663
0.00331624
0.0033056
0.0032947
0.00328351
0.00327203
0.00326026
0.00324821
0.00323589
0.00322334
0.00321059
0.00319769
0.0031847
0.0031717
0.00315876
0.00314597
0.00313344
0.00312125
0.00310952
0.00309834
0.00308783
0.00307806
0.00306914
0.00306113
0.00305408
0.00304804
0.00304302
0.00303901
0.00303598
0.00303388
0.00303263
0.00303212
0.00303224
0.00303284
0.00303376
0.00303477
0.0030356
0.00303557
0.00303457
0.00302425
0.00648477
0.00601214
0.00564853
0.00535856
0.00512175
0.0049249
0.00475892
0.00461729
0.00449523
0.00438912
0.0042962
0.00421431
0.00414171
0.00407699
0.004019
0.0039668
0.00391961
0.00387677
0.00383773
0.00380203
0.00376927
0.00373913
0.0037113
0.00368556
0.00366167
0.00363945
0.00361873
0.00359938
0.00358125
0.00356425
0.00354825
0.00353317
0.00351893
0.00350543
0.00349262
0.00348041
0.00346874
0.00345755
0.00344677
0.00343634
0.00342621
0.00341632
0.00340662
0.00339704
0.00338755
0.00337808
0.00336859
0.00335903
0.00334935
0.00333952
0.0033295
0.00331925
0.00330875
0.00329797
0.00328689
0.00327552
0.00326385
0.00325188
0.00323966
0.00322719
0.00321452
0.00320171
0.00318882
0.00317592
0.00316308
0.00315042
0.00313801
0.00312598
0.00311443
0.00310346
0.00309319
0.00308372
0.00307513
0.0030675
0.00306087
0.00305529
0.00305076
0.00304723
0.00304468
0.00304301
0.00304214
0.00304196
0.00304236
0.0030432
0.00304433
0.00304555
0.0030466
0.00304684
0.00304617
0.00303672
0.00648472
0.00601203
0.00564836
0.00535831
0.00512142
0.00492447
0.00475838
0.00461663
0.00449443
0.00438818
0.00429515
0.0042132
0.00414057
0.00407584
0.00401786
0.00396568
0.0039185
0.00387567
0.00383664
0.00380094
0.00376819
0.00373805
0.00371023
0.00368449
0.00366061
0.00363841
0.00361773
0.00359842
0.00358037
0.00356344
0.00354755
0.0035326
0.00351851
0.0035052
0.00349258
0.0034806
0.00346919
0.00345827
0.00344778
0.00343766
0.00342785
0.00341829
0.00340893
0.0033997
0.00339054
0.00338141
0.00337226
0.00336302
0.00335367
0.00334416
0.00333444
0.0033245
0.00331429
0.0033038
0.00329301
0.00328193
0.00327054
0.00325887
0.00324693
0.00323477
0.00322243
0.00320996
0.00319743
0.00318492
0.00317253
0.00316035
0.0031485
0.00313715
0.00312635
0.00311622
0.00310687
0.00309836
0.00309076
0.0030841
0.00307839
0.00307363
0.00306978
0.00306681
0.00306465
0.00306323
0.00306243
0.00306217
0.00306236
0.00306291
0.0030637
0.00306456
0.00306528
0.00306535
0.00306469
0.00305625
0.00648468
0.00601192
0.00564818
0.00535805
0.00512107
0.00492401
0.0047578
0.00461591
0.00449355
0.00438717
0.00429409
0.00421215
0.00413957
0.0040749
0.00401696
0.0039648
0.00391761
0.00387474
0.00383565
0.00379987
0.00376702
0.00373677
0.00370884
0.003683
0.00365903
0.00363676
0.00361604
0.00359672
0.00357869
0.00356183
0.00354605
0.00353125
0.00351735
0.00350427
0.00349194
0.00348026
0.00346915
0.00345855
0.00344841
0.00343865
0.00342921
0.00342003
0.00341102
0.00340215
0.00339333
0.00338453
0.00337569
0.00336675
0.00335769
0.00334845
0.003339
0.00332931
0.00331937
0.00330916
0.00329866
0.00328789
0.00327684
0.00326554
0.00325401
0.00324231
0.00323047
0.00321857
0.00320665
0.00319482
0.00318314
0.00317171
0.00316062
0.00314998
0.00313986
0.00313037
0.00312158
0.00311355
0.00310635
0.00310002
0.00309456
0.00308999
0.0030863
0.00308343
0.00308134
0.00307994
0.00307912
0.0030788
0.00307893
0.00307943
0.00308022
0.00308116
0.0030821
0.00308266
0.00308306
0.00307761
0.00648463
0.00601182
0.005648
0.00535778
0.00512068
0.00492348
0.00475706
0.00461491
0.00449217
0.00438532
0.00429242
0.0042114
0.00414008
0.00407662
0.00401959
0.00396791
0.00392075
0.00387751
0.00383772
0.003801
0.00376707
0.00373566
0.00370657
0.00367962
0.00365464
0.0036315
0.00361003
0.00359012
0.00357165
0.00355449
0.00353854
0.00352368
0.00350983
0.00349687
0.00348472
0.00347331
0.00346255
0.00345235
0.00344264
0.00343332
0.00342428
0.00341545
0.00340676
0.00339813
0.00338951
0.00338086
0.00337215
0.00336333
0.00335438
0.00334526
0.00333593
0.00332637
0.00331656
0.00330649
0.00329614
0.00328551
0.00327463
0.00326352
0.00325219
0.00324071
0.00322913
0.00321749
0.00320589
0.00319439
0.00318308
0.00317205
0.0031614
0.00315122
0.0031416
0.00313262
0.00312436
0.00311688
0.00311023
0.00310443
0.00309952
0.00309548
0.0030923
0.00308994
0.00308833
0.00308734
0.00308679
0.00308663
0.00308688
0.0030875
0.0030884
0.00308948
0.00309062
0.0030916
0.00309285
0.0030906
0.00648459
0.00601171
0.00564782
0.00535751
0.00512029
0.00492295
0.00475635
0.00461395
0.00449086
0.00438376
0.00435041
0.00433331
0.00430808
0.00427026
0.00422192
0.00416675
0.00410817
0.00404883
0.00399063
0.00393484
0.00388228
0.00383341
0.00378847
0.0037475
0.00371041
0.00367701
0.00364707
0.00362027
0.00359622
0.00357451
0.00355468
0.00353627
0.00351881
0.00350179
0.00348576
0.00347213
0.00346027
0.00344967
0.00343996
0.00343084
0.00342212
0.00341363
0.00340522
0.00339688
0.00338872
0.00338074
0.00337288
0.00336508
0.00335724
0.00334929
0.00334117
0.00333284
0.00332424
0.00331536
0.00330616
0.00329666
0.00328685
0.00327676
0.00326642
0.00325588
0.00324521
0.00323446
0.00322371
0.00321306
0.00320257
0.00319237
0.00318252
0.00317315
0.00316433
0.00315616
0.0031487
0.00314204
0.0031362
0.00313124
0.00312717
0.00312398
0.00312167
0.0031202
0.00311952
0.00311946
0.00311525
0.00311065
0.00310685
0.00310409
0.00310225
0.0031011
0.00310035
0.00309956
0.00309882
0.00309382
0.00648455
0.0060116
0.00564763
0.00535721
0.00511986
0.0049223
0.00475532
0.00461225
0.00448735
0.00438679
0.00773249
0.00846346
0.00845638
0.00820202
0.00788044
0.0075599
0.00726536
0.00700469
0.00677891
0.00658651
0.00642506
0.00629186
0.00618415
0.00609909
0.00603382
0.00598543
0.00595102
0.00592775
0.00591295
0.00590419
0.00589932
0.00589655
0.0058945
0.00589211
0.00588888
0.00588542
0.00588235
0.00587968
0.00587721
0.00587477
0.00587224
0.00586949
0.00586623
0.00586233
0.00585763
0.0058522
0.00584632
0.00584018
0.00583394
0.00582767
0.00582141
0.00581515
0.00580891
0.00580269
0.0057965
0.00579035
0.00578425
0.00577817
0.00577211
0.00576606
0.00576002
0.00575402
0.00574809
0.00574228
0.00573663
0.00573123
0.00572618
0.00572157
0.00571753
0.00571416
0.0057116
0.00570997
0.0057094
0.00571003
0.00571206
0.00571574
0.00572161
0.00573059
0.005747
0.00576365
0.00467105
0.00403253
0.00364327
0.0033996
0.00324469
0.00314529
0.00308093
0.00303807
0.00300754
0.00297806
0.0064845
0.0060115
0.00564745
0.00535695
0.00511948
0.00492179
0.00475463
0.00461132
0.00448609
0.00438519
0.00773234
0.00846489
0.00845596
0.00819724
0.00786983
0.00754254
0.00724081
0.00697279
0.00673981
0.00654053
0.00637274
0.00623392
0.00612144
0.00603264
0.00596471
0.00591479
0.00587993
0.00585721
0.00584377
0.00583701
0.00583456
0.00583444
0.00583503
0.00583506
0.00583359
0.00582996
0.00582378
0.00581479
0.00580287
0.00578794
0.00577002
0.00574927
0.00572605
0.00570048
0.00567276
0.00564312
0.00561178
0.00557897
0.00554501
0.00551006
0.00547429
0.0054379
0.00540109
0.0053641
0.00532714
0.00529046
0.00525429
0.00521885
0.00518436
0.00515106
0.00511912
0.00508872
0.00505998
0.00503304
0.00500795
0.00498478
0.00496356
0.0049443
0.004927
0.00491163
0.00489819
0.00488664
0.00487699
0.00486927
0.00486353
0.00485996
0.00485899
0.00486106
0.00487002
0.00487617
0.00407924
0.00360015
0.00330053
0.00310783
0.00298143
0.00289719
0.00283989
0.00279871
0.00276702
0.0027269
0.00648446
0.00601139
0.00564728
0.00535669
0.00511911
0.00492127
0.00475392
0.00461035
0.00448474
0.00438334
0.00772494
0.00845792
0.00845058
0.00819338
0.00786705
0.00754033
0.00723869
0.00697041
0.00673695
0.00653715
0.00636893
0.00622993
0.00611768
0.0060296
0.00596299
0.00591502
0.00588275
0.00586319
0.00585343
0.00585073
0.00585266
0.00585712
0.00586243
0.00586727
0.00587068
0.00587197
0.00587069
0.00586657
0.00585945
0.0058493
0.00583613
0.00581999
0.00580097
0.00577919
0.00575476
0.00572786
0.00569864
0.00566725
0.00563377
0.00559848
0.0055615
0.00552299
0.00548306
0.00544186
0.00539955
0.00535628
0.00531224
0.00526762
0.00522264
0.00517753
0.00513255
0.00508797
0.00504406
0.00500109
0.00495934
0.00491903
0.00488041
0.00484368
0.00480902
0.00477683
0.00474734
0.0047206
0.00469664
0.00467548
0.0046572
0.00464191
0.00462992
0.00462151
0.00461988
0.00461554
0.00390229
0.00349727
0.00325957
0.00311559
0.00302529
0.00296619
0.00292518
0.00289357
0.00286645
0.00282734
0.00648442
0.0060113
0.00564712
0.00535645
0.0051188
0.00492086
0.00475339
0.00460969
0.00448393
0.00438241
0.00772243
0.00845558
0.00844857
0.00819152
0.00786513
0.00753818
0.00723618
0.00696749
0.00673362
0.00653344
0.00636492
0.00622574
0.00611345
0.0060255
0.00595922
0.00591178
0.00588024
0.00586163
0.005853
0.00585162
0.00585503
0.00586111
0.00586815
0.00587484
0.0058802
0.00588352
0.00588435
0.00588237
0.00587737
0.00586928
0.00585804
0.00584369
0.00582631
0.005806
0.00578298
0.00575749
0.00572982
0.00570027
0.00566908
0.00563645
0.00560262
0.0055678
0.00553218
0.00549594
0.00545925
0.00542229
0.00538523
0.00534828
0.00531164
0.00527553
0.00524021
0.00520591
0.00517291
0.00514146
0.00511181
0.00508418
0.00505879
0.00503582
0.00501544
0.00499758
0.00498235
0.00496987
0.00496022
0.00495345
0.0049496
0.00494878
0.00495133
0.00495811
0.00497472
0.00500473
0.00427362
0.00387087
0.00363596
0.00349139
0.00339738
0.00333243
0.00328388
0.0032434
0.00320908
0.00317063
0.00648438
0.0060112
0.00564696
0.00535624
0.0051185
0.00492048
0.00475292
0.00460911
0.00448323
0.00438156
0.00771933
0.008452
0.00844498
0.00818803
0.00786175
0.00753483
0.0072328
0.006964
0.00672997
0.00652962
0.00636096
0.00622167
0.00610936
0.00602149
0.0059554
0.00590829
0.00587721
0.00585919
0.00585127
0.00585071
0.00585502
0.00586212
0.00587028
0.00587818
0.00588485
0.00588958
0.00589188
0.00589137
0.00588778
0.00588093
0.0058707
0.00585706
0.00584004
0.00581974
0.00579641
0.00577035
0.0057419
0.00571142
0.0056792
0.00564556
0.00561079
0.00557514
0.00553887
0.00550221
0.00546539
0.0054286
0.00539209
0.00535606
0.00532076
0.00528643
0.00525334
0.00522179
0.00519283
0.00516649
0.0051427
0.00512145
0.00510279
0.00508683
0.00507368
0.00506336
0.00505573
0.00505079
0.00504848
0.00504868
0.0050514
0.00505669
0.00506496
0.00507695
0.00509723
0.00512924
0.00437372
0.00396007
0.00372082
0.00357493
0.00348088
0.00341638
0.0033686
0.003329
0.00328829
0.0032394
0.00648434
0.00601111
0.00564682
0.00535604
0.00511825
0.00492017
0.00475255
0.00460867
0.00448272
0.00438098
0.00771719
0.00844926
0.00844185
0.00818458
0.007858
0.00753081
0.00722853
0.00695951
0.00672531
0.00652484
0.00635611
0.00621684
0.00610461
0.00601691
0.00595108
0.0059043
0.00587363
0.00585608
0.0058487
0.00584872
0.00585368
0.00586148
0.00587042
0.0058792
0.00588685
0.00589268
0.00589617
0.00589686
0.00589441
0.00588851
0.00587892
0.00586548
0.00584818
0.0058271
0.00580253
0.00577488
0.00574459
0.00571213
0.00567789
0.00564226
0.00560557
0.00556811
0.00553012
0.00549184
0.0054535
0.00541531
0.00537752
0.00534033
0.00530399
0.00526874
0.00523484
0.00520256
0.00517218
0.00514394
0.00511806
0.00509467
0.00507479
0.00505848
0.00504538
0.00503525
0.00502797
0.00502348
0.00502168
0.00502253
0.00502598
0.00503202
0.00504087
0.00505336
0.00507417
0.00510717
0.00436078
0.00395216
0.00371554
0.00357093
0.00347738
0.00341297
0.00336503
0.00332513
0.00328423
0.00324047
0.0064843
0.00601102
0.00564668
0.00535586
0.00511803
0.00491992
0.00475227
0.00460838
0.00448242
0.00438067
0.00771611
0.00844748
0.00843934
0.00818134
0.00785406
0.00752624
0.00722343
0.006954
0.00671951
0.00651888
0.00635014
0.00621099
0.00609902
0.00601169
0.00594631
0.00590003
0.00586988
0.00585284
0.00584594
0.00584642
0.00585182
0.00586008
0.00586954
0.00587895
0.0058874
0.00589422
0.00589889
0.00590088
0.00589971
0.00589487
0.00588591
0.00587249
0.00585448
0.00583198
0.00580533
0.00577508
0.00574182
0.00570617
0.00566868
0.00562978
0.00558984
0.00554916
0.00550799
0.00546662
0.00542531
0.00538429
0.00534377
0.00530397
0.0052651
0.00522741
0.00519116
0.00515661
0.00512404
0.0050937
0.00506582
0.00504062
0.00501825
0.00499883
0.00498242
0.00496906
0.00495871
0.00495133
0.00494684
0.00494515
0.00494612
0.00494974
0.00495646
0.00496805
0.00498886
0.0050229
0.0042977
0.00390079
0.00367075
0.0035299
0.00343851
0.00337529
0.00332788
0.00328822
0.00325397
0.00321736
0.00648427
0.00601093
0.00564655
0.00535569
0.00511784
0.00491971
0.00475205
0.00460816
0.00448221
0.00438043
0.00771416
0.0084441
0.00843482
0.00817605
0.00784831
0.00752029
0.00721746
0.00694817
0.00671394
0.00651371
0.00634553
0.00620712
0.00609609
0.00600989
0.00594579
0.00590088
0.00587213
0.00585643
0.0058508
0.00585246
0.00585903
0.00586851
0.00587935
0.00589043
0.00590092
0.00591017
0.0059176
0.00592253
0.00592414
0.00592155
0.00591386
0.00590038
0.00588088
0.00585552
0.00582492
0.00579
0.00575171
0.005711
0.0056686
0.00562522
0.00558132
0.005537
0.00549231
0.00544742
0.00540257
0.00535797
0.00531384
0.00527037
0.00522777
0.00518622
0.00514599
0.00510735
0.00507057
0.00503592
0.00500367
0.00497401
0.00494709
0.00492298
0.0049018
0.00488363
0.00486851
0.00485642
0.00484729
0.00484103
0.00483766
0.00483717
0.0048397
0.00484533
0.00485715
0.00486719
0.00415313
0.00375837
0.00352899
0.0033942
0.00331122
0.00325723
0.00321937
0.00318984
0.00316396
0.00313025
0.00648423
0.00601085
0.00564644
0.00535556
0.0051177
0.00491959
0.004752
0.00460825
0.00448255
0.00438112
0.00771745
0.00844587
0.0084343
0.00817342
0.00784407
0.00751519
0.00721244
0.00694437
0.0067127
0.00651653
0.006354
0.0062228
0.00612035
0.00604373
0.00598978
0.00595512
0.00593629
0.00592994
0.00593298
0.00594272
0.00595694
0.0059739
0.00599228
0.00601114
0.00602973
0.00604735
0.00606316
0.00607599
0.00608429
0.00608621
0.00607987
0.00606394
0.00603797
0.00600248
0.00595891
0.00590923
0.00585554
0.00579981
0.00574366
0.00568812
0.00563367
0.00558135
0.00553066
0.00548119
0.00543263
0.00538468
0.00533714
0.0052899
0.00524299
0.00519667
0.00515153
0.00510795
0.00506633
0.00502708
0.00499058
0.0049571
0.00492687
0.00490012
0.00487697
0.00485749
0.00484163
0.00482932
0.00482048
0.00481502
0.00481288
0.00481401
0.00481866
0.00482707
0.0048426
0.00485702
0.00410978
0.00368539
0.00343561
0.00328378
0.00318852
0.00312667
0.00308479
0.0030544
0.00303021
0.00300033
0.00648419
0.00601077
0.00564632
0.00535542
0.00511756
0.00491947
0.00475193
0.00460827
0.00448274
0.00438143
0.00771197
0.00843732
0.00842706
0.00817004
0.00784792
0.00753156
0.00724785
0.00700573
0.00680655
0.00664825
0.00652722
0.00643901
0.00637883
0.00634183
0.00632338
0.00631929
0.00632592
0.00634026
0.00635993
0.00638314
0.0064086
0.00643542
0.00646303
0.00649102
0.00651904
0.00654664
0.00657299
0.00659667
0.00661547
0.00662632
0.00662561
0.00661014
0.00657781
0.00652802
0.00646172
0.00638102
0.00628881
0.00618845
0.00608352
0.00597776
0.00587471
0.00577797
0.00569142
0.00561743
0.00555527
0.00550292
0.00545813
0.00541833
0.00538445
0.00535603
0.00533212
0.00531193
0.0052948
0.00528025
0.00526794
0.00525746
0.00524848
0.00524101
0.00523529
0.00523153
0.00522989
0.0052305
0.00523348
0.00523894
0.00524699
0.00525777
0.00527166
0.00528926
0.00531455
0.00533998
0.00439122
0.00384682
0.00352173
0.00332258
0.00319862
0.00312065
0.00307134
0.00304019
0.00301962
0.00299828
0.00648416
0.0060107
0.00564622
0.00535531
0.00511747
0.00491948
0.00475219
0.00460907
0.00448525
0.0043773
0.00430261
0.00423816
0.00417212
0.00410805
0.00404831
0.00399261
0.00394082
0.00389286
0.0038486
0.00380789
0.00377057
0.00373645
0.00370534
0.00367702
0.00365131
0.00362801
0.00360691
0.00358786
0.0035707
0.00355529
0.00354153
0.00352932
0.0035186
0.00350934
0.00350155
0.00349525
0.00349048
0.00348723
0.00348539
0.00348466
0.00348458
0.00348451
0.00348386
0.00348209
0.00347884
0.00347392
0.00346723
0.00345882
0.00344877
0.00343713
0.003424
0.0034092
0.0033965
0.00338398
0.00337044
0.00335509
0.00333745
0.00331867
0.00329995
0.00328129
0.00326266
0.00324402
0.00322536
0.00320668
0.00318806
0.00316977
0.00315225
0.00313582
0.00312068
0.00310697
0.0030947
0.0030839
0.00307454
0.00306662
0.00306013
0.00305504
0.00305132
0.0030489
0.00304773
0.00304773
0.00304504
0.00304248
0.00304097
0.00304062
0.00304123
0.00304251
0.00304406
0.00304527
0.00304521
0.00303904
0.00648412
0.00601062
0.0056461
0.00535517
0.00511733
0.00491935
0.00475211
0.00460908
0.00448542
0.00437758
0.0042831
0.00419989
0.00412608
0.00406016
0.00400092
0.0039474
0.00389881
0.00385452
0.00381401
0.00377684
0.00374265
0.00371117
0.00368213
0.00365533
0.00363058
0.00360774
0.00358668
0.00356729
0.00354949
0.00353323
0.00351845
0.00350514
0.0034933
0.00348297
0.00347422
0.00346718
0.00346201
0.00345881
0.00345756
0.00345796
0.00345935
0.00346094
0.00346189
0.00346161
0.00345965
0.0034558
0.00345007
0.00344252
0.00343339
0.00342282
0.00341096
0.00339792
0.00338385
0.00336887
0.00335309
0.00333658
0.00331945
0.0033018
0.00328377
0.0032655
0.00324712
0.00322876
0.00321058
0.00319271
0.0031753
0.00315848
0.00314233
0.00312695
0.00311243
0.00309883
0.00308627
0.00307486
0.00306468
0.00305576
0.00304816
0.00304189
0.00303696
0.00303336
0.00303106
0.00302993
0.00302977
0.00303048
0.00303203
0.00303434
0.0030373
0.00304076
0.00304448
0.0030481
0.00305121
0.00304969
0.00648408
0.00601054
0.00564599
0.00535503
0.00511718
0.00491922
0.00475204
0.00460914
0.0044857
0.00437817
0.00428386
0.0042006
0.00412663
0.00406048
0.00400099
0.00394722
0.00389838
0.00385382
0.00381303
0.00377555
0.00374104
0.00370919
0.00367976
0.00365254
0.00362734
0.00360402
0.00358245
0.00356254
0.0035442
0.00352738
0.00351207
0.00349824
0.00348592
0.0034752
0.00346622
0.00345921
0.00345449
0.00345234
0.00345297
0.00345601
0.00346053
0.0034653
0.00346907
0.00347097
0.0034705
0.00346751
0.00346206
0.00345433
0.0034446
0.00343308
0.00342003
0.00340565
0.00339014
0.00337367
0.0033564
0.00333848
0.00332003
0.0033012
0.0032821
0.00326289
0.00324369
0.0032246
0.00320578
0.00318741
0.00316965
0.00315264
0.00313651
0.00312138
0.00310735
0.00309452
0.00308297
0.00307275
0.0030639
0.00305645
0.0030504
0.0030457
0.00304228
0.0030401
0.00303908
0.00303914
0.00304021
0.00304221
0.0030451
0.00304885
0.00305338
0.00305855
0.00306417
0.00306989
0.00307549
0.00307697
0.00648405
0.00601046
0.00564586
0.00535487
0.00511698
0.00491899
0.0047518
0.00460887
0.0044854
0.00437781
0.00428334
0.00419985
0.00412558
0.00405913
0.00399933
0.00394525
0.0038961
0.00385123
0.00381012
0.00377232
0.00373747
0.00370527
0.00367548
0.00364788
0.00362231
0.00359861
0.00357667
0.00355637
0.00353765
0.00352044
0.00350473
0.00349051
0.00347782
0.00346677
0.00345756
0.00345059
0.00344637
0.00344554
0.00344884
0.00345603
0.00346578
0.00347612
0.00348497
0.00349093
0.00349335
0.00349212
0.0034874
0.00347963
0.00346939
0.00345705
0.0034429
0.00342724
0.00341028
0.00339224
0.00337332
0.00335367
0.00333349
0.00331293
0.00329217
0.00327138
0.00325072
0.00323037
0.00321049
0.00319124
0.00317278
0.00315526
0.00313882
0.00312357
0.00310963
0.00309708
0.003086
0.00307643
0.00306841
0.00306186
0.00305723
0.00305462
0.00305394
0.00305513
0.00305818
0.00306302
0.00306955
0.00307767
0.00308727
0.00309825
0.00311044
0.00312366
0.00313761
0.00315188
0.00316571
0.00317551
0.00648401
0.00601037
0.00564573
0.00535469
0.00511677
0.00491874
0.00475151
0.00460854
0.00448504
0.0043774
0.00428283
0.00419918
0.0041247
0.00405798
0.00399787
0.00394345
0.00389393
0.00384867
0.00380714
0.0037689
0.00373359
0.00370092
0.00367065
0.00364257
0.00361653
0.00359236
0.00356995
0.0035492
0.00353002
0.00351235
0.00349616
0.00348143
0.00346819
0.00345656
0.00344679
0.00343943
0.00343527
0.00343563
0.00344294
0.00345833
0.00348034
0.00350499
0.00352757
0.00354524
0.00355684
0.00356225
0.00356189
0.00355608
0.00354742
0.00353641
0.00352348
0.00350893
0.00349304
0.00347599
0.00345798
0.00343915
0.00341969
0.00339977
0.00337957
0.00335931
0.00333918
0.00331941
0.00330021
0.00328179
0.00326436
0.00324812
0.00323322
0.00321983
0.00320808
0.00319807
0.00318993
0.00318476
0.00318241
0.00318284
0.00318552
0.00319031
0.00319731
0.00320648
0.00321767
0.00323075
0.00324555
0.00326188
0.00327949
0.00329812
0.00331747
0.00333722
0.00335694
0.0033762
0.003394
0.00340804
0.00648398
0.00601029
0.0056456
0.0053545
0.00511652
0.00491843
0.00475113
0.00460808
0.00448448
0.00437669
0.00428195
0.00419806
0.00412331
0.00405627
0.00399583
0.00394103
0.00389111
0.00384543
0.00380346
0.00376475
0.00372895
0.00369577
0.00366498
0.00363637
0.00360979
0.00358509
0.00356216
0.00354089
0.00352119
0.00350299
0.00348623
0.00347088
0.00345692
0.00344446
0.00343372
0.00342541
0.00342057
0.00342197
0.00343999
0.00348428
0.00355288
0.00363081
0.00370272
0.00376276
0.00380937
0.00384341
0.00386655
0.00388061
0.00388519
0.0038844
0.00388007
0.0038719
0.00385973
0.0038436
0.00382377
0.00380069
0.00377496
0.00374725
0.00371829
0.00368875
0.00365928
0.00363047
0.00360283
0.0035768
0.00355273
0.00353092
0.00351161
0.00349484
0.003482
0.00347292
0.00346742
0.00346447
0.00346413
0.00346641
0.00347144
0.00347907
0.00348899
0.00350089
0.00351446
0.00352971
0.00354664
0.00356451
0.00358274
0.00360085
0.00361848
0.00363528
0.00365087
0.00366493
0.00367599
0.00368344
0.00648394
0.0060102
0.00564546
0.00535431
0.00511626
0.0049181
0.00475071
0.00460757
0.00448385
0.00437592
0.004281
0.0041969
0.00412188
0.00405455
0.00399376
0.00393857
0.00388822
0.00384207
0.00379958
0.00376033
0.00372395
0.00369016
0.00365872
0.00362947
0.00360223
0.00357689
0.00355333
0.00353144
0.00351112
0.00349229
0.00347486
0.00345875
0.00344386
0.00343021
0.00341785
0.00340753
0.00340036
0.00340253
0.00347097
0.00365184
0.00391165
0.00417069
0.00438125
0.00453855
0.00464676
0.00471435
0.00474947
0.00475901
0.00474844
0.0047198
0.0046768
0.00462413
0.00456535
0.00450251
0.00443756
0.00437219
0.00430781
0.00424556
0.00418631
0.0041307
0.00407921
0.00403215
0.00398971
0.00395197
0.00391895
0.0038906
0.00386715
0.00384903
0.00383494
0.00382436
0.00381875
0.00381704
0.00381834
0.00382204
0.00382752
0.00383429
0.00384196
0.00385022
0.00385881
0.00386749
0.00387606
0.00388434
0.00389217
0.00389944
0.00390599
0.00391172
0.00391639
0.00391988
0.00392091
0.00391987
0.00648391
0.00601012
0.00564532
0.00535411
0.00511599
0.00491775
0.00475026
0.004607
0.00448314
0.00437505
0.00427992
0.00419557
0.00412027
0.0040526
0.00399142
0.00393581
0.00388498
0.00383831
0.00379525
0.00375538
0.00371834
0.00368385
0.00365168
0.00362167
0.00359368
0.00356759
0.0035433
0.00352071
0.0034997
0.00348019
0.00346205
0.00344517
0.00342938
0.00341456
0.00340047
0.00338775
0.00337687
0.00338619
0.00372102
0.00440304
0.00510092
0.00559629
0.00587232
0.00598705
0.00598997
0.00592229
0.00581357
0.00568379
0.00554576
0.00540736
0.00527282
0.00514495
0.00502532
0.00491521
0.00481497
0.00472448
0.00464336
0.00457118
0.00450739
0.00445177
0.00440326
0.00436334
0.00432983
0.0043014
0.00427722
0.00425671
0.00423922
0.00422417
0.00421165
0.00420129
0.00419276
0.00418577
0.00418007
0.00417527
0.0041711
0.00416746
0.00416424
0.00416129
0.00415846
0.00415564
0.0041527
0.00414957
0.00414616
0.0041424
0.00413822
0.00413358
0.00412829
0.00412238
0.0041146
0.00410602
0.00648388
0.00601004
0.00564519
0.00535392
0.00511573
0.0049174
0.00474981
0.00460643
0.00448242
0.00437415
0.00427881
0.00419421
0.00411861
0.00405059
0.00398902
0.00393295
0.00388161
0.00383435
0.00379065
0.00375006
0.00371225
0.00367693
0.00364389
0.00361298
0.00358408
0.00355709
0.00353194
0.00350853
0.00348675
0.00346647
0.00344759
0.00342995
0.00341333
0.00339745
0.00338151
0.00336557
0.00334691
0.00338971
0.00463249
0.00606719
0.00698838
0.00737773
0.00739003
0.00719257
0.00690033
0.0065823
0.0062754
0.00599671
0.00575223
0.00554227
0.00536446
0.00521532
0.00509142
0.00498951
0.00490659
0.00484049
0.00479112
0.00475227
0.0047202
0.00469265
0.00466821
0.00464597
0.00462536
0.00460602
0.00458776
0.00457045
0.00455401
0.00453818
0.00452269
0.00450761
0.00449296
0.00447877
0.00446526
0.00445226
0.00443956
0.00442696
0.00441436
0.00440179
0.00438927
0.00437677
0.00436425
0.00435169
0.00433907
0.00432638
0.00431361
0.00430075
0.00428768
0.00427449
0.00425998
0.00424565
0.00648385
0.00600997
0.00564508
0.00535374
0.00511548
0.00491706
0.00474937
0.00460586
0.00448169
0.00437323
0.00427767
0.0041928
0.00411688
0.0040485
0.00398649
0.00392993
0.00387802
0.00383011
0.00378568
0.00374428
0.00370557
0.00366928
0.0036352
0.00360322
0.00357324
0.0035452
0.00351907
0.00349474
0.00347211
0.00345105
0.0034315
0.00341341
0.00339673
0.00338146
0.0033669
0.00335312
0.00333614
0.00338331
0.00472851
0.00625202
0.00721736
0.0075828
0.00757709
0.00735771
0.00703557
0.00668332
0.00634253
0.00603382
0.00576528
0.00553806
0.0053499
0.00519738
0.00507786
0.00499144
0.00493173
0.00489145
0.00486489
0.00484749
0.00483572
0.00482695
0.00481932
0.0048116
0.00480308
0.0047934
0.00478244
0.00477024
0.0047569