/*--------------------------------*- C++ -*----------------------------------*\
| =========                 |                                                 |
| \\      /  F ield         | OpenFOAM: The Open Source CFD Toolbox           |
|  \\    /   O peration     | Version:  v2012                                 |
|   \\  /    A nd           | Website:  www.openfoam.com                      |
|    \\/     M anipulation  |                                                 |
\*---------------------------------------------------------------------------*/
FoamFile
{
    version     2.0;
    format      ascii;
    class       volScalarField;
    location    "200/air";
    object      qin;
}
// * * * * * * * * * * * * * * * * * * * * * * * * * * * * * * * * * * * * * //

dimensions      [1 0 -3 0 0 0 0];


internalField   uniform 0;

boundaryField
{
    inlet
    {
        type            calculated;
        value           nonuniform List<scalar> 
3200
(
567.193
571.011
569.474
568.304
567.305
566.338
565.372
564.405
563.437
562.472
561.514
560.566
559.631
558.709
557.801
556.904
556.018
555.144
554.284
553.437
552.6
551.768
550.938
550.11
549.283
548.461
547.659
546.902
546.224
545.665
545.253
545.006
544.917
544.952
545.043
545.117
545.141
545.126
545.096
545.065
545.034
545
544.97
544.955
544.955
544.964
544.982
545.011
545.057
545.122
545.214
545.337
545.502
545.716
545.986
546.312
546.68
547.071
547.468
547.869
548.294
548.785
549.38
550.091
550.884
551.679
552.384
552.932
553.318
553.603
553.884
554.253
554.747
555.329
555.903
556.335
556.46
556.039
554.663
549.082
557.628
568.23
567.934
566.489
565.241
564.124
563.082
562.08
561.095
560.124
559.172
558.245
557.344
556.456
555.568
554.668
553.759
552.851
551.956
551.078
550.215
549.368
548.538
547.725
546.934
546.168
545.438
544.761
544.164
543.675
543.321
543.121
543.072
543.133
543.234
543.317
543.367
543.392
543.404
543.406
543.399
543.384
543.377
543.388
543.413
543.445
543.486
543.537
543.602
543.686
543.793
543.931
544.108
544.334
544.616
544.958
545.356
545.795
546.263
546.758
547.294
547.903
548.618
549.449
550.366
551.295
552.137
552.807
553.262
553.521
553.644
553.702
553.739
553.736
553.602
553.183
552.311
550.977
548.991
542.501
548.548
562.444
564.806
564.035
562.977
561.908
560.849
559.824
558.836
557.883
556.959
556.056
555.159
554.256
553.342
552.422
551.508
550.614
549.744
548.89
548.035
547.17
546.303
545.446
544.621
543.848
543.144
542.521
541.994
541.577
541.289
541.14
541.121
541.196
541.31
541.417
541.499
541.557
541.595
541.618
541.627
541.629
541.637
541.66
541.694
541.735
541.784
541.844
541.916
542.007
542.122
542.269
542.458
542.701
543.007
543.381
543.82
544.311
544.842
545.405
546.008
546.672
547.417
548.242
549.108
549.931
550.606
551.043
551.203
551.119
550.883
550.614
550.392
550.208
549.94
549.423
548.661
547.892
546.296
539.568
542.315
556.626
561.326
561.625
561.053
560.258
559.298
558.259
557.217
556.203
555.237
554.297
553.352
552.395
551.445
550.527
549.663
548.85
548.062
547.259
546.387
545.437
544.442
543.457
542.538
541.728
541.046
540.494
540.065
539.757
539.571
539.504
539.542
539.65
539.785
539.915
540.025
540.111
540.172
540.213
540.236
540.251
540.269
540.298
540.336
540.383
540.442
540.516
540.61
540.728
540.876
541.06
541.286
541.563
541.901
542.306
542.777
543.301
543.856
544.416
544.964
545.501
546.038
546.583
547.12
547.602
547.967
548.166
548.192
548.099
547.978
547.908
547.903
547.88
547.71
547.375
547.112
546.923
544.949
537.836
537.932
551.229
557.516
558.773
558.584
558.078
557.342
556.435
555.449
554.443
553.456
552.48
551.495
550.502
549.519
548.581
547.712
546.907
546.123
545.3
544.384
543.381
542.348
541.362
540.496
539.788
539.234
538.806
538.478
538.237
538.083
538.02
538.04
538.123
538.243
538.373
538.498
538.602
538.683
538.739
538.78
538.814
538.851
538.898
538.955
539.026
539.114
539.222
539.353
539.509
539.693
539.905
540.146
540.421
540.733
541.084
541.469
541.873
542.274
542.65
542.989
543.301
543.613
543.954
544.341
544.763
545.184
545.559
545.859
546.075
546.217
546.29
546.283
546.182
546.037
546.049
546.395
546.359
543.517
536.479
534.448
546.029
553.249
555.377
555.472
555.194
554.762
554.177
553.481
552.708
551.821
550.802
549.714
548.614
547.519
546.458
545.469
544.569
543.733
542.901
542.067
541.248
540.441
539.668
538.988
538.432
537.986
537.614
537.284
536.987
536.738
536.559
536.47
536.468
536.536
536.647
536.773
536.895
536.999
537.085
537.159
537.229
537.304
537.389
537.484
537.59
537.707
537.837
537.978
538.129
538.289
538.455
538.629
538.814
539.014
539.235
539.479
539.737
539.997
540.247
540.489
540.745
541.059
541.474
542.015
542.663
543.352
543.983
544.456
544.707
544.731
544.588
544.389
544.282
544.453
545.063
545.854
545.441
541.717
535.308
531.293
541.018
548.751
551.865
552.371
552.316
552.175
551.93
551.589
551.181
550.51
549.457
548.189
546.886
545.601
544.362
543.229
542.249
541.433
540.698
540.095
539.64
539.19
538.641
538.033
537.441
536.901
536.413
535.964
535.547
535.175
534.878
534.687
534.616
534.649
534.752
534.892
535.041
535.185
535.317
535.439
535.556
535.673
535.791
535.909
536.024
536.134
536.236
536.332
536.42
536.502
536.581
536.663
536.756
536.872
537.023
537.216
537.451
537.72
538.018
538.352
538.745
539.234
539.847
540.58
541.373
542.114
542.669
542.934
542.892
542.636
542.345
542.231
542.476
543.192
544.283
545.041
543.887
539.617
534.225
528.472
536.565
544.492
548.708
549.823
549.999
550.058
550.017
549.877
549.733
549.299
548.302
546.919
545.443
543.996
542.625
541.412
540.43
539.705
539.12
538.733
538.564
538.356
537.874
537.14
536.309
535.514
534.817
534.23
533.738
533.327
533.007
532.8
532.722
532.761
532.882
533.048
533.231
533.415
533.587
533.743
533.883
534.009
534.123
534.223
534.307
534.374
534.426
534.466
534.5
534.534
534.577
534.638
534.729
534.864
535.055
535.313
535.638
536.023
536.461
536.948
537.491
538.098
538.765
539.454
540.086
540.557
540.777
540.722
540.471
540.194
540.102
540.365
541.074
542.189
543.371
543.667
541.738
537.373
533.152
526.336
533.058
540.787
545.998
547.816
548.182
548.338
548.413
548.346
548.276
547.983
547.117
545.767
544.253
542.758
541.356
540.139
539.191
538.546
538.059
537.75
537.65
537.49
536.969
536.075
535.019
534.012
533.171
532.522
532.036
531.666
531.391
531.219
531.161
531.21
531.335
531.502
531.686
531.87
532.039
532.185
532.303
532.396
532.47
532.528
532.574
532.609
532.639
532.67
532.709
532.764
532.842
532.952
533.105
533.313
533.589
533.943
534.372
534.867
535.404
535.96
536.511
537.039
537.52
537.923
538.208
538.341
538.316
538.179
538.039
538.039
538.313
538.947
539.949
541.168
542.1
541.743
539.229
535.138
532.058
525.208
530.673
537.713
543.561
546.066
546.58
546.746
546.943
546.998
546.938
546.658
545.88
544.622
543.165
541.729
540.399
539.254
538.364
537.759
537.303
536.959
536.764
536.535
535.988
535.071
533.981
532.947
532.104
531.475
531.02
530.682
530.428
530.257
530.178
530.187
530.26
530.366
530.487
530.61
530.722
530.815
530.884
530.936
530.98
531.022
531.065
531.108
531.157
531.216
531.292
531.389
531.515
531.678
531.889
532.161
532.506
532.928
533.418
533.947
534.472
534.945
535.327
535.6
535.766
535.845
535.869
535.87
535.881
535.938
536.093
536.407
536.953
537.779
538.861
539.96
540.455
539.441
536.603
533.015
530.937
525.054
529.309
535.221
541.232
544.374
545.072
545.163
545.443
545.726
545.788
545.509
544.731
543.489
542.058
540.69
539.49
538.497
537.729
537.183
536.742
536.332
535.994
535.661
535.137
534.342
533.401
532.503
531.756
531.172
530.709
530.329
530.014
529.772
529.61
529.525
529.495
529.499
529.521
529.553
529.587
529.615
529.642
529.678
529.732
529.803
529.881
529.958
530.035
530.116
530.212
530.329
530.477
530.669
530.917
531.231
531.612
532.05
532.515
532.961
533.331
533.582
533.694
533.687
533.615
533.551
533.562
533.685
533.921
534.245
534.643
535.138
535.796
536.676
537.709
538.553
538.527
536.954
534.044
531.062
529.803
525.438
528.628
533.184
538.919
542.642
543.675
543.656
543.863
544.349
544.686
544.551
543.79
542.487
540.965
539.561
538.444
537.632
537.064
536.655
536.276
535.845
535.401
534.972
534.472
533.824
533.079
532.35
531.707
531.146
530.634
530.159
529.733
529.38
529.112
528.925
528.8
528.719
528.667
528.638
528.622
528.615
528.623
528.655
528.716
528.799
528.891
528.98
529.067
529.157
529.264
529.4
529.576
529.802
530.078
530.401
530.755
531.112
531.435
531.681
531.812
531.819
531.725
531.589
531.494
531.516
531.699
532.036
532.477
532.959
533.454
534.003
534.694
535.564
536.466
536.96
536.401
534.424
531.656
529.288
528.653
525.77
528.172
531.39
536.522
540.728
542.307
542.282
542.255
542.758
543.383
543.558
542.968
541.666
540.012
538.455
537.302
536.609
536.244
536.014
535.752
535.369
534.893
534.395
533.881
533.311
532.685
532.057
531.464
530.9
530.34
529.787
529.273
528.834
528.487
528.233
528.059
527.946
527.883
527.855
527.855
527.875
527.898
527.901
527.875
527.839
527.82
527.84
527.904
528.011
528.164
528.369
528.625
528.916
529.213
529.49
529.725
529.903
530.01
530.035
529.982
529.874
529.758
529.697
529.752
529.96
530.322
530.795
531.315
531.828
532.337
532.909
533.617
534.432
535.117
535.195
534.152
531.956
529.485
527.668
527.481
525.704
527.639
529.723
534.041
538.537
540.823
541.043
540.787
541.101
541.851
542.355
542.086
540.952
539.252
537.514
536.203
535.484
535.214
535.12
534.993
534.73
534.321
533.818
533.282
532.721
532.123
531.515
530.923
530.347
529.77
529.196
528.652
528.175
527.789
527.502
527.313
527.211
527.179
527.201
527.282
527.401
527.478
527.411
527.17
526.832
526.53
526.365
526.36
526.487
526.718
527.037
527.417
527.798
528.109
528.306
528.384
528.373
528.311
528.229
528.152
528.108
528.126
528.236
528.459
528.798
529.232
529.721
530.222
530.72
531.245
531.851
532.554
533.242
533.627
533.271
531.849
529.617
527.53
526.169
526.277
525.254
527
528.237
531.632
536.129
539.139
539.914
539.657
539.713
540.345
540.999
541.046
540.209
538.636
536.825
535.344
534.478
534.133
534.034
533.97
533.82
533.521
533.081
532.574
532.042
531.475
530.881
530.286
529.702
529.127
528.561
528.018
527.528
527.119
526.811
526.619
526.539
526.546
526.628
526.809
527.052
527.192
527.035
526.531
525.83
525.182
524.778
524.659
524.764
525.031
525.424
525.897
526.354
526.686
526.832
526.809
526.697
526.59
526.56
526.644
526.849
527.159
527.547
527.985
528.455
528.951
529.485
530.071
530.727
531.453
532.205
532.87
533.248
533.064
532.012
530.03
527.641
525.78
524.661
524.94
524.659
526.42
527.096
529.542
533.7
537.255
538.792
538.844
538.702
538.99
539.494
539.691
539.211
538.017
536.452
535.028
534.06
533.52
533.214
533.001
532.78
532.474
532.066
531.63
531.209
530.771
530.281
529.74
529.175
528.603
528.036
527.486
526.977
526.542
526.213
526.017
525.95
525.979
526.098
526.339
526.64
526.78
526.527
525.841
524.925
524.084
523.534
523.308
523.326
523.517
523.854
524.301
524.759
525.104
525.265
525.265
525.2
525.173
525.252
525.456
525.767
526.151
526.572
527.004
527.438
527.885
528.379
528.956
529.64
530.398
531.122
531.639
531.748
531.223
529.866
527.791
525.646
524.196
523.326
523.696
524.141
526.038
526.381
527.917
531.416
535.173
537.453
538.024
537.799
537.613
537.696
537.821
537.672
537.07
536.114
535.09
534.21
533.492
532.872
532.333
531.835
531.342
530.856
530.449
530.155
529.909
529.614
529.219
528.736
528.2
527.644
527.091
526.569
526.114
525.757
525.529
525.433
525.443
525.56
525.793
526.033
526.057
525.691
524.961
524.083
523.318
522.813
522.553
522.449
522.455
522.592
522.869
523.222
523.545
523.762
523.88
523.961
524.075
524.263
524.53
524.859
525.229
525.617
526.009
526.405
526.824
527.311
527.911
528.625
529.374
529.993
530.299
530.125
529.302
527.729
525.68
523.849
522.764
522.059
522.461
523.754
525.81
525.983
526.718
529.347
532.929
535.762
536.944
536.818
536.224
535.79
535.653
535.66
535.589
535.314
534.838
534.204
533.445
532.613
531.796
531.019
530.296
529.659
529.19
528.933
528.821
528.717
528.515
528.189
527.766
527.291
526.804
526.329
525.884
525.482
525.155
524.934
524.84
524.898
525.066
525.167
525.003
524.522
523.844
523.168
522.648
522.318
522.097
521.882
521.662
521.521
521.537
521.705
521.955
522.229
522.509
522.804
523.111
523.418
523.717
524.017
524.328
524.66
525.014
525.392
525.816
526.329
526.961
527.676
528.345
528.789
528.859
528.432
527.374
525.676
523.747
522.258
521.47
520.859
521.261
523.374
525.533
525.651
525.763
527.496
530.63
533.776
535.604
535.836
535.113
534.278
533.785
533.693
533.834
533.968
533.898
533.526
532.87
532.034
531.141
530.243
529.381
528.612
528.026
527.693
527.584
527.573
527.524
527.37
527.116
526.808
526.486
526.149
525.76
525.297
524.797
524.344
524.051
523.99
524.065
524.03
523.715
523.174
522.591
522.119
521.811
521.622
521.435
521.129
520.707
520.306
520.072
520.055
520.223
520.543
520.996
521.541
522.094
522.569
522.93
523.206
523.456
523.73
524.052
524.433
524.89
525.447
526.097
526.755
527.272
527.503
527.357
526.731
525.505
523.762
522.029
520.876
520.303
519.734
520.119
522.846
525.023
525.168
524.864
525.814
528.357
531.584
534.027
534.865
534.368
533.373
532.559
532.197
532.23
532.417
532.488
532.28
531.788
531.102
530.306
529.442
528.556
527.713
527.014
526.552
526.344
526.305
526.303
526.249
526.134
526.005
525.89
525.738
525.441
524.937
524.267
523.575
523.066
522.86
522.834
522.712
522.353
521.857
521.402
521.062
520.817
520.621
520.38
519.979
519.413
518.85
518.482
518.376
518.508
518.863
519.446
520.203
520.992
521.656
522.116
522.4
522.605
522.826
523.119
523.514
524.019
524.618
525.245
525.777
526.091
526.117
525.806
525.036
523.696
521.987
520.51
519.666
519.225
518.664
519.024
522.047
524.168
524.413
523.883
524.181
525.97
528.929
531.819
533.464
533.61
532.805
531.829
531.169
530.907
530.867
530.804
530.577
530.191
529.701
529.118
528.454
527.702
526.907
526.169
525.6
525.257
525.107
525.043
524.971
524.877
524.811
524.789
524.72
524.467
523.965
523.268
522.537
521.991
521.737
521.637
521.464
521.148
520.802
520.526
520.277
519.977
519.626
519.221
518.709
518.112
517.602
517.348
517.359
517.55
517.897
518.444
519.188
520.011
520.739
521.255
521.564
521.76
521.957
522.246
522.664
523.196
523.765
524.251
524.552
524.631
524.49
524.056
523.156
521.75
520.198
519.084
518.535
518.147
517.572
517.899
521.061
523.069
523.443
522.846
522.691
523.69
526.01
528.923
531.241
532.239
531.94
531.042
530.194
529.63
529.266
528.923
528.512
528.07
527.662
527.272
526.908
526.468
525.91
525.304
524.759
524.358
524.119
523.972
523.829
523.656
523.482
523.307
523.065
522.682
522.166
521.595
521.084
520.755
520.62
520.529
520.349
520.109
519.93
519.829
519.671
519.335
518.852
518.303
517.737
517.245
516.992
517.062
517.342
517.653
517.933
518.259
518.709
519.258
519.797
520.228
520.532
520.764
521.016
521.357
521.803
522.288
522.698
522.931
522.972
522.874
522.629
522.075
521.037
519.642
518.388
517.697
517.379
516.976
516.398
516.69
520.171
522.029
522.513
521.943
521.571
521.97
523.525
526.032
528.605
530.315
530.652
530.048
529.182
528.415
527.785
527.194
526.578
525.986
525.509
525.165
525.035
524.947
524.747
524.436
524.086
523.772
523.543
523.373
523.183
522.909
522.528
522.033
521.424
520.757
520.145
519.69
519.427
519.346
519.359
519.334
519.222
519.108
519.087
519.123
519.061
518.79
518.34
517.807
517.288
516.929
516.896
517.212
517.687
518.082
518.3
518.409
518.527
518.709
518.938
519.18
519.426
519.702
520.043
520.456
520.891
521.248
521.435
521.436
521.327
521.16
520.832
520.12
518.959
517.672
516.776
516.437
516.229
515.778
515.231
515.503
519.308
520.998
521.571
521.063
520.631
520.661
521.53
523.403
525.831
527.969
528.929
528.78
528.076
527.233
526.432
525.686
524.952
524.242
523.641
523.209
523.144
523.284
523.401
523.429
523.378
523.282
523.176
523.051
522.838
522.446
521.817
520.954
519.947
518.975
518.232
517.813
517.677
517.705
517.766
517.787
517.808
517.917
518.128
518.335
518.4
518.271
517.995
517.628
517.218
516.895
516.84
517.109
517.553
517.942
518.145
518.179
518.138
518.1
518.108
518.183
518.348
518.62
518.987
519.392
519.733
519.918
519.924
519.827
519.712
519.535
519.087
518.185
516.955
515.865
515.317
515.207
515.004
514.506
514.023
514.292
518.393
519.942
520.613
520.193
519.793
519.659
520.035
521.25
523.26
525.506
526.967
527.369
527.012
526.254
525.386
524.563
523.795
523.049
522.359
521.783
521.615
521.763
521.999
522.243
522.466
522.636
522.728
522.694
522.452
521.909
521.023
519.846
518.555
517.397
516.584
516.179
516.08
516.103
516.114
516.127
516.281
516.665
517.191
517.648
517.882
517.91
517.836
517.681
517.388
516.99
516.672
516.61
516.8
517.083
517.298
517.391
517.401
517.387
517.391
517.434
517.54
517.72
517.956
518.182
518.313
518.317
518.247
518.193
518.151
517.94
517.32
516.253
515.063
514.239
513.982
513.971
513.707
513.184
512.789
513.065
517.421
518.911
519.72
519.424
519.106
518.95
519.046
519.72
521.201
523.284
525.04
525.978
526.103
525.598
524.771
523.908
523.119
522.377
521.654
520.957
520.605
520.581
520.711
520.957
521.3
521.661
521.931
521.981
521.693
521.002
519.928
518.598
517.235
516.083
515.312
514.945
514.855
514.846
514.788
514.754
514.958
515.522
516.305
517
517.398
517.54
517.594
517.594
517.399
516.917
516.303
515.845
515.708
515.825
516.032
516.228
516.419
516.635
516.86
517.039
517.128
517.126
517.054
516.928
516.769
516.628
516.578
516.627
516.619
516.289
515.472
514.327
513.296
512.771
512.721
512.714
512.368
511.853
511.562
511.848
516.501
518.041
519.033
518.897
518.675
518.567
518.549
518.855
519.828
521.563
523.367
524.696
525.321
525.187
524.506
523.625
522.779
522.008
521.272
520.511
520.001
519.758
519.658
519.724
519.984
520.356
520.667
520.723
520.382
519.616
518.522
517.278
516.086
515.119
514.474
514.15
514.047
514.003
513.905
513.814
513.952
514.475
515.272
516.028
516.49
516.672
516.756
516.816
516.7
516.242
515.531
514.875
514.526
514.493
514.649
514.918
515.325
515.878
516.463
516.88
516.967
516.705
516.213
515.667
515.238
515.035
515.065
515.178
515.091
514.552
513.562
512.448
511.656
511.401
511.467
511.405
510.993
510.525
510.346
510.648
515.801
517.47
518.663
518.698
518.552
518.496
518.457
518.549
519.104
520.393
522.001
523.481
524.499
524.78
524.345
523.501
522.57
521.711
520.935
520.154
519.568
519.176
518.863
518.679
518.699
518.872
519.03
518.974
518.578
517.855
516.939
515.997
515.151
514.465
513.966
513.656
513.498
513.402
513.279
513.141
513.135
513.411
513.941
514.504
514.877
515.023
515.077
515.13
515.084
514.781
514.239
513.682
513.326
513.215
513.298
513.594
514.191
515.077
516.023
516.658
516.699
516.136
515.225
514.338
513.77
513.616
513.742
513.835
513.565
512.795
511.708
510.717
510.174
510.105
510.186
510.032
509.578
509.186
509.119
509.444
515.431
517.235
518.601
518.774
518.655
518.607
518.564
518.543
518.782
519.606
520.839
522.223
523.455
524.121
524.017
523.306
522.322
521.336
520.469
519.668
519.072
518.638
518.209
517.807
517.524
517.361
517.216
516.958
516.518
515.934
515.316
514.76
514.284
513.86
513.477
513.16
512.933
512.781
512.646
512.488
512.349
512.322
512.452
512.664
512.831
512.895
512.91
512.939
512.953
512.855
512.62
512.342
512.126
512.01
512.032
512.324
513.044
514.158
515.327
516.051
515.974
515.134
513.934
512.897
512.368
512.351
512.55
512.552
512.076
511.148
510.083
509.279
508.939
508.944
508.945
508.666
508.179
507.865
507.895
508.246
515.372
517.244
518.712
518.961
518.807
518.707
518.638
518.548
518.566
518.98
519.769
520.881
522.144
523.109
523.376
522.899
521.938
520.832
519.83
518.973
518.383
517.975
517.526
516.982
516.421
515.902
515.423
514.96
514.505
514.088
513.751
513.492
513.254
512.977
512.66
512.359
512.133
511.996
511.901
511.779
511.587
511.357
511.16
511.043
510.993
510.969
510.96
510.982
511.037
511.094
511.118
511.097
511.032
510.941
510.922
511.186
511.921
513.069
514.237
514.878
514.649
513.656
512.398
511.446
511.098
511.235
511.449
511.329
510.713
509.771
508.862
508.283
508.087
508.068
507.918
507.487
506.954
506.693
506.786
507.145
515.476
517.305
518.796
519.055
518.82
518.627
518.504
518.368
518.251
518.363
518.754
519.525
520.67
521.797
522.388
522.191
521.333
520.161
519.028
518.091
517.496
517.135
516.715
516.099
515.335
514.537
513.807
513.214
512.785
512.502
512.319
512.162
511.958
511.687
511.404
511.192
511.1
511.11
511.153
511.138
510.994
510.716
510.374
510.073
509.878
509.789
509.771
509.801
509.88
510.002
510.136
510.23
510.234
510.152
510.098
510.289
510.893
511.839
512.761
513.184
512.848
511.913
510.869
510.206
510.098
510.327
510.478
510.237
509.593
508.795
508.152
507.819
507.724
507.632
507.306
506.716
506.122
505.874
505.984
506.314
515.562
517.246
518.698
518.932
518.607
518.315
518.133
517.971
517.798
517.74
517.846
518.292
519.207
520.317
521.086
521.13
520.433
519.289
518.102
517.121
516.53
516.216
515.84
515.193
514.307
513.343
512.489
511.868
511.492
511.278
511.101
510.861
510.532
510.185
509.942
509.9
510.062
510.338
510.603
510.751
510.716
510.497
510.162
509.823
509.576
509.452
509.429
509.47
509.556
509.676
509.804
509.889
509.883
509.784
509.682
509.733
510.054
510.59
511.086
511.235
510.9
510.247
509.637
509.373
509.476
509.694
509.708
509.375
508.809
508.266
507.944
507.854
507.842
507.677
507.2
506.478
505.827
505.563
505.649
505.908
515.504
516.983
518.372
518.581
518.193
517.829
517.608
517.444
517.274
517.156
517.1
517.274
517.883
518.789
519.543
519.727
519.219
518.224
517.124
516.203
515.665
515.407
515.072
514.413
513.46
512.423
511.545
510.962
510.644
510.437
510.172
509.769
509.28
508.864
508.698
508.867
509.312
509.87
510.364
510.671
510.75
510.623
510.36
510.062
509.822
509.685
509.65
509.689
509.771
509.871
509.959
510.001
509.965
509.844
509.674
509.528
509.471
509.493
509.507
509.409
509.183
508.944
508.851
508.97
509.191
509.299
509.142
508.755
508.337
508.088
508.079
508.207
508.273
508.068
507.495
506.698
506.02
505.738
505.783
505.947
515.27
516.534
517.87
518.086
517.68
517.286
517.052
516.901
516.76
516.645
516.513
516.47
516.739
517.31
517.884
518.104
517.799
517.067
516.204
515.465
515.045
514.859
514.558
513.894
512.909
511.851
510.993
510.461
510.179
509.943
509.578
509.046
508.468
508.059
508.003
508.352
508.995
509.731
510.359
510.761
510.915
510.864
510.68
510.447
510.235
510.094
510.038
510.06
510.131
510.219
510.293
510.326
510.289
510.156
509.908
509.551
509.119
508.673
508.284
508.027
507.965
508.124
508.458
508.827
509.047
508.987
508.671
508.278
508.03
508.049
508.294
508.594
508.733
508.524
507.921
507.116
506.461
506.185
506.2
506.275
514.903
515.978
517.285
517.547
517.167
516.775
516.546
516.409
516.292
516.189
516.017
515.808
515.759
515.961
516.281
516.476
516.374
515.97
515.438
514.961
514.701
514.592
514.321
513.658
512.663
511.61
510.781
510.282
510.004
509.731
509.307
508.736
508.176
507.843
507.891
508.327
509.014
509.753
510.37
510.771
510.95
510.951
510.839
510.672
510.501
510.363
510.286
510.282
510.337
510.426
510.518
510.579
510.567
510.429
510.109
509.577
508.874
508.124
507.51
507.204
507.291
507.708
508.257
508.681
508.787
508.549
508.124
507.767
507.678
507.9
508.32
508.737
508.935
508.749
508.166
507.412
506.828
506.593
506.604
506.627
514.465
515.392
516.695
517.032
516.705
516.328
516.104
515.968
515.849
515.737
515.533
515.207
514.917
514.818
514.91
515.07
515.145
515.056
514.858
514.645
514.541
514.5
514.255
513.607
512.633
511.613
510.818
510.334
510.04
509.732
509.288
508.743
508.26
508.02
508.122
508.532
509.114
509.704
510.182
510.501
510.663
510.698
510.651
510.558
510.439
510.322
510.24
510.217
510.26
510.354
510.468
510.557
510.559
510.403
510.019
509.387
508.569
507.729
507.088
506.831
507.009
507.495
508.024
508.322
508.246
507.858
507.388
507.095
507.132
507.48
507.996
508.478
508.718
508.563
508.031
507.366
506.887
506.719
506.753
506.772
514.017
514.834
516.146
516.57
516.301
515.936
515.705
515.551
515.404
515.258
515.021
514.633
514.214
513.938
513.886
514.017
514.212
514.351
514.407
514.402
514.421
514.431
514.214
513.606
512.693
511.744
511.005
510.535
510.211
509.858
509.393
508.876
508.457
508.272
508.363
508.666
509.061
509.429
509.713
509.909
510.031
510.083
510.091
510.072
510.021
509.95
509.89
509.875
509.918
510.011
510.123
510.2
510.171
509.964
509.529
508.873
508.088
507.342
506.826
506.673
506.876
507.275
507.615
507.681
507.408
506.922
506.462
506.247
506.37
506.779
507.332
507.839
508.1
507.974
507.504
506.944
506.58
506.491
506.56
506.613
513.565
514.295
515.615
516.121
515.904
515.54
515.288
515.103
514.913
514.722
514.459
514.062
513.619
513.29
513.173
513.268
513.491
513.727
513.919
514.045
514.148
514.199
514.019
513.476
512.667
511.834
511.181
510.734
510.372
509.95
509.429
508.893
508.48
508.29
508.323
508.496
508.706
508.871
508.982
509.068
509.138
509.183
509.217
509.251
509.267
509.259
509.253
509.277
509.34
509.428
509.504
509.516
509.403
509.118
508.648
508.037
507.388
506.841
506.523
506.484
506.662
506.893
506.982
506.802
506.372
505.848
505.438
505.299
505.474
505.9
506.45
506.951
507.21
507.105
506.7
506.248
505.994
505.977
506.08
506.18
513.207
513.877
515.201
515.77
515.587
515.212
514.933
514.718
514.491
514.263
513.992
513.623
513.225
512.921
512.789
512.835
513.01
513.239
513.474
513.675
513.846
513.942
513.809
513.346
512.655
511.952
511.392
510.964
510.543
510.016
509.388
508.775
508.319
508.095
508.071
508.147
508.23
508.261
508.258
508.269
508.295
508.314
508.343
508.406
508.482
508.549
508.616
508.698
508.791
508.867
508.883
508.797
508.573
508.201
507.708
507.165
506.672
506.328
506.189
506.234
506.361
506.421
506.285
505.915
505.39
504.872
504.528
504.456
504.663
505.089
505.625
506.112
506.361
506.263
505.907
505.541
505.372
505.409
505.538
505.684
512.584
513.148
514.438
515.085
514.956
514.566
514.248
513.996
513.731
513.464
513.191
512.882
512.576
512.328
512.147
512.025
511.979
512.034
512.209
512.447
512.681
512.824
512.746
512.393
511.869
511.343
510.896
510.472
509.957
509.288
508.528
507.821
507.306
507.034
506.956
506.973
507.005
507.013
507.013
507.01
506.982
506.924
506.875
506.876
506.939
507.052
507.198
507.355
507.484
507.534
507.457
507.235
506.888
506.468
506.042
505.678
505.433
505.334
505.363
505.45
505.485
505.363
505.037
504.548
504.014
503.576
503.339
503.344
503.577
503.991
504.495
504.937
505.148
505.061
504.789
504.551
504.479
504.547
504.669
504.826
)
;
    }
    outlet
    {
        type            calculated;
        value           nonuniform List<scalar> 
3200
(
604.668
605.069
601.122
598.146
595.485
592.915
590.323
587.589
584.954
583.836
584.691
585.584
583.026
580.026
578.37
577.162
576.113
575.327
574.581
573.216
571.431
570.049
568.826
566.804
563.916
560.975
558.504
556.509
554.927
553.73
552.911
552.459
552.342
552.499
552.86
553.313
553.635
553.75
553.848
554.017
554.285
554.611
554.892
554.949
554.618
553.842
552.641
551.353
550.392
549.955
550.108
550.902
552.393
554.639
557.651
560.903
562.915
563.73
564.302
564.88
565.469
566.049
566.626
567.246
567.972
568.844
569.835
570.842
571.689
572.228
572.419
572.313
572.066
571.906
572.031
572.536
573.412
574.588
576.173
576.851
586.933
598.6
597.171
594.544
592.039
589.621
587.24
584.836
582.595
581.507
581.889
582.131
580.006
577.586
576.022
574.821
573.767
572.9
572.08
570.872
569.34
567.968
566.607
564.621
561.971
559.265
556.928
555.008
553.475
552.31
551.509
551.06
550.93
551.06
551.374
551.768
552.076
552.228
552.347
552.508
552.732
552.984
553.172
553.138
552.737
551.935
550.794
549.601
548.703
548.29
548.441
549.201
550.612
552.693
555.41
558.332
560.291
561.221
561.831
562.394
562.953
563.498
564.046
564.647
565.368
566.245
567.24
568.24
569.079
569.627
569.861
569.849
569.741
569.718
569.898
570.257
570.684
571.164
571.196
566.387
573.129
590.237
592.432
591.032
589.058
586.86
584.58
582.324
580.291
579.123
578.958
578.674
576.934
574.966
573.506
572.307
571.224
570.266
569.347
568.195
566.863
565.553
564.15
562.265
559.883
557.435
555.255
553.424
551.94
550.799
550.002
549.538
549.379
549.471
549.741
550.095
550.401
550.594
550.737
550.88
551.048
551.22
551.328
551.246
550.844
550.095
549.078
548.036
547.251
546.896
547.047
547.742
549.005
550.848
553.224
555.793
557.66
558.711
559.423
560.036
560.609
561.149
561.677
562.25
562.939
563.785
564.76
565.76
566.636
567.272
567.639
567.781
567.784
567.722
567.597
567.385
567.251
567.42
566.343
559.205
563.485
581.664
586.656
586.578
585.401
583.739
581.77
579.724
577.854
576.621
576.001
575.337
573.825
572.186
570.84
569.654
568.541
567.507
566.513
565.377
564.213
563.035
561.686
559.929
557.785
555.563
553.519
551.749
550.28
549.13
548.317
547.839
547.669
547.749
548
548.326
548.615
548.808
548.943
549.061
549.194
549.331
549.411
549.33
548.975
548.319
547.441
546.548
545.868
545.545
545.65
546.226
547.312
548.931
551.013
553.266
554.998
556.096
556.889
557.562
558.17
558.72
559.24
559.796
560.471
561.319
562.319
563.368
564.311
565.01
565.392
565.451
565.229
564.795
564.254
563.86
564.018
564.397
562.128
554.124
556.678
573.829
580.665
581.574
580.986
579.901
578.44
576.812
575.229
574.038
573.081
572.069
570.633
569.193
567.924
566.736
565.59
564.506
563.478
562.348
561.322
560.313
559.079
557.469
555.55
553.549
551.664
549.986
548.557
547.408
546.566
546.041
545.814
545.831
546.012
546.267
546.502
546.67
546.797
546.921
547.066
547.213
547.3
547.236
546.94
546.381
545.625
544.846
544.232
543.906
543.945
544.408
545.357
546.8
548.629
550.584
552.15
553.235
554.063
554.773
555.411
555.983
556.516
557.087
557.786
558.672
559.715
560.787
561.698
562.273
562.42
562.154
561.593
560.939
560.497
560.669
561.537
561.709
558.028
550.256
551.611
566.896
574.964
576.693
576.406
575.669
574.636
573.454
572.26
571.291
570.232
568.965
567.493
566.124
564.878
563.679
562.52
561.429
560.415
559.302
558.37
557.531
556.454
555.002
553.274
551.455
549.699
548.099
546.708
545.564
544.701
544.132
543.842
543.78
543.872
544.04
544.214
544.36
544.499
544.656
544.836
545.004
545.094
545.038
544.784
544.304
543.638
542.931
542.352
542.022
542.024
542.433
543.303
544.604
546.193
547.863
549.255
550.292
551.122
551.851
552.521
553.134
553.713
554.329