/*--------------------------------*- C++ -*----------------------------------*\
| =========                 |                                                 |
| \\      /  F ield         | OpenFOAM: The Open Source CFD Toolbox           |
|  \\    /   O peration     | Version:  v2012                                 |
|   \\  /    A nd           | Website:  www.openfoam.com                      |
|    \\/     M anipulation  |                                                 |
\*---------------------------------------------------------------------------*/
FoamFile
{
    version     2.0;
    format      ascii;
    class       volScalarField;
    location    "200/air";
    object      qr;
}
// * * * * * * * * * * * * * * * * * * * * * * * * * * * * * * * * * * * * * //

dimensions      [1 0 -3 0 0 0 0];


internalField   uniform 0;

boundaryField
{
    inlet
    {
        type            calculated;
        value           nonuniform List<scalar> 
3200
(
58.6817
62.4995
60.9631
59.7927
58.7935
57.8262
56.8608
55.8936
54.9257
53.9606
53.0026
52.0549
51.1197
50.1981
49.2896
48.3927
47.5067
46.633
45.7731
44.9261
44.0884
43.2564
42.4269
41.5984
40.7712
39.95
39.1479
38.3902
37.7127
37.1532
36.7418
36.4942
36.4059
36.441
36.5314
36.6055
36.6299
36.6147
36.5844
36.5536
36.5224
36.4883
36.4587
36.4441
36.444
36.4525
36.4702
36.4998
36.5452
36.6111
36.7025
36.8261
36.9903
37.2044
37.4749
37.8004
38.1685
38.5597
38.9566
39.3573
39.7831
40.2739
40.8688
41.58
42.3725
43.1679
43.8727
44.4207
44.8065
45.0915
45.3731
45.7421
46.2358
46.8181
47.3918
47.8241
47.9486
47.5276
46.1522
40.5702
49.1168
59.719
59.423
57.9781
56.7298
55.613
54.5711
53.569
52.5839
51.6122
50.6602
49.7341
48.8326
47.9452
47.0568
46.1571
45.2477
44.3399
43.4449
42.5662
41.7039
40.857
40.0265
39.214
38.4225
37.6566
36.9262
36.2496
35.6524
35.1635
34.8097
34.6099
34.5608
34.6216
34.7225
34.8059
34.8556
34.8811
34.8928
34.8951
34.8873
34.8725
34.8654
34.8771
34.9021
34.9338
34.9743
35.0255
35.0907
35.1745
35.2822
35.4202
35.5969
35.8222
36.1046
36.4471
36.8444
37.2837
37.752
38.2466
38.7828
39.3918
40.1064
40.9374
41.8545
42.7832
43.6256
44.2953
44.7507
45.0095
45.1322
45.1909
45.2276
45.2243
45.091
44.6713
43.7994
42.4657
40.4795
33.9892
40.0371
53.9326
56.2947
55.5241
54.4652
53.3963
52.3378
51.3125
50.3251
49.3715
48.4481
47.5451
46.6479
45.745
44.8311
43.9105
42.9965
42.1028
41.233
40.3785
39.5232
38.6591
37.7914
36.9348
36.1097
35.3368
34.6325
34.0098
33.4823
33.0661
32.7779
32.6282
32.6093
32.6847
32.7988
32.9056
32.9875
33.0454
33.0838
33.1063
33.1155
33.1174
33.1256
33.1488
33.183
33.2239
33.2732
33.3323
33.4047
33.4955
33.6107
33.7579
33.9471
34.1895
34.4953
34.8695
35.3084
35.8002
36.3309
36.8939
37.4969
38.1606
38.9056
39.731
40.5965
41.4196
42.095
42.5322
42.6918
42.6072
42.3718
42.1024
41.8805
41.6967
41.4288
40.9118
40.1498
39.3803
37.7851
31.0571
33.8033
48.1149
52.8149
53.1141
52.5413
51.7469
50.7871
49.748
48.7054
47.6919
46.7254
45.7857
44.8406
43.8838
42.9334
42.0161
41.1515
40.3388
39.551
38.7472
37.8756
36.9252
35.9304
34.9454
34.0264
33.2163
32.5349
31.9829
31.554
31.2458
31.0595
30.9931
31.0308
31.1384
31.2733
31.4032
31.5133
31.5994
31.6612
31.7012
31.7245
31.7394
31.7578
31.7866
31.8248
31.8719
31.9308
32.0048
32.0983
32.2166
32.3648
32.5485
32.7745
33.0516
33.3893
33.7944
34.2656
34.7902
35.3448
35.9044
36.4527
36.9898
37.5271
38.0718
38.6084
39.0908
39.4561
39.6543
39.6805
39.588
39.4667
39.3967
39.3914
39.3687
39.1987
38.8633
38.6007
38.4119
36.4379
29.325
29.4208
42.7174
49.0048
50.262
50.0725
49.5669
48.8303
47.9237
46.9377
45.9315
44.9444
43.9684
42.984
41.9905
41.008
40.0698
39.201
38.3957
37.6115
36.7885
35.8728
34.87
33.8364
32.8506
31.985
31.2768
30.7225
30.2949
29.9668
29.7255
29.5716
29.5083
29.5285
29.6118
29.7312
29.8622
29.9863
30.0912
30.1713
30.2282
30.2687
30.3027
30.3399
30.3862
30.4437
30.5149
30.6028
30.7106
30.8414
30.9978
31.1814
31.3933
31.6351
31.91
32.2219
32.5727
32.9574
33.3617
33.7629
34.1386
34.4779
34.79
35.1013
35.4426
35.8299
36.2519
36.6725
37.048
37.3475
37.5639
37.7058
37.7791
37.7721
37.6704
37.5254
37.5373
37.8841
37.848
35.0054
27.9677
25.937
37.5177
44.7381
46.8661
46.9611
46.683
46.2507
45.666
44.9692
44.1963
43.3099
42.2909
41.2032
40.1025
39.0078
37.9465
36.9578
36.0572
35.222
34.3899
33.5553
32.7371
31.9293
31.1564
30.4762
29.9206
29.4749
29.1025
28.7726
28.4761
28.2265
28.0481
27.9583
27.9566
28.0246
28.1353
28.2619
28.3832
28.4877
28.5737
28.6472
28.7178
28.7931
28.8775
28.9723
29.0784
29.1961
29.3256
29.4666
29.6177
29.7774
29.944
30.118
30.3023
30.5026
30.7242
30.9676
31.226
31.4858
31.7356
31.9772
32.2338
32.5472
32.9627
33.5037
34.1518
34.8405
35.4716
35.9449
36.196
36.22
36.0768
35.8774
35.7705
35.9421
36.5514
37.3427
36.9298
33.2054
26.7966
22.7821
32.5063
40.2398
43.3536
43.8593
43.8051
43.6639
43.419
43.0776
42.6694
41.9982
40.9457
39.6779
38.3749
37.0899
35.8509
34.7176
33.7381
32.9213
32.1869
31.5832
31.1288
30.6785
30.1298
29.5212
28.9294
28.39
27.902
27.4525
27.0356
26.6634
26.3662
26.1757
26.1046
26.1373
26.2407
26.3802
26.5299
26.6738
26.8057
26.9274
27.0444
27.1614
27.2797
27.3979
27.5129
27.6223
27.725
27.8204
27.9087
27.9909
28.07
28.1517
28.2447
28.361
28.5119
28.7048
28.9392
29.2085
29.507
29.8409
30.234
30.7226
31.3358
32.0685
32.8615
33.6024
34.1574
34.4228
34.381
34.1244
33.8341
33.7198
33.9646
34.6805
35.7718
36.5297
35.3757
31.1057
25.7132
19.9602
28.0536
35.9812
40.1968
41.3121
41.488
41.5464
41.5053
41.3657
41.222
40.788
39.7908
38.4074
36.9312
35.4843
34.1138
32.9008
31.9185
31.194
30.6089
30.2213
30.0529
29.8445
29.3629
28.6284
27.798
27.0025
26.3053
25.7183
25.2264
24.816
24.4952
24.2883
24.2107
24.2497
24.3705
24.5363
24.72
24.9036
25.0758
25.2318
25.372
25.4982
25.6118
25.7118
25.7957
25.8628
25.9146
25.9548
25.9885
26.0227
26.0654
26.1264
26.2174
26.3523
26.5441
26.8018
27.1263
27.5117
27.9494
28.4366
28.9795
29.5868
30.2537
30.9424
31.5745
32.0453
32.2656
32.2108
31.9595
31.6829
31.5903
31.8533
32.5624
33.6777
34.8598
35.1557
33.2268
28.8616
24.641
17.8243
24.5463
32.2756
37.4867
39.3051
39.6708
39.8271
39.9017
39.8346
39.7649
39.4718
38.6056
37.2559
35.7415
34.2467
32.8446
31.6276
30.6795
30.0344
29.5481
29.2386
29.1387
28.9787
28.4573
27.5638
26.5076
25.5005
24.6595
24.0111
23.5244
23.1548
22.8801
22.7075
22.6498
22.6986
22.8239
22.991
23.1751
23.3585
23.5276
23.6732
23.7916
23.8849
23.9584
24.0168
24.0624
24.098
24.1281
24.159
24.1979
24.2525
24.3306
24.4409
24.5937
24.8018
25.078
25.4313
25.861
26.3553
26.8926
27.4484
28.0002
28.5278
29.0086
29.4114
29.6965
29.8293
29.8043
29.6681
29.5281
29.5273
29.8018
30.4359
31.4375
32.6568
33.589
33.232
30.7178
26.6263
23.5463
16.6964
22.1612
29.202
35.0497
37.5548
38.0685
38.2344
38.4322
38.4866
38.4267
38.1465
37.3688
36.1103
34.6541
33.2175
31.8882
30.7429
29.8523
29.2479
28.7922
28.4473
28.253
28.0234
27.4763
26.5598
25.4692
24.4361
23.5929
22.9641
22.5085
22.1703
21.9165
21.7456
21.6671
21.676
21.7482
21.8549
21.9761
22.0987
22.2109
22.3032
22.3729
22.4251
22.469
22.511
22.5533
22.5971
22.6458
22.7049
22.7803
22.8777
23.0037
23.1667
23.3774
23.6494
23.9944
24.4172
24.9071
25.4361
25.9606
26.4335
26.8158
27.0885
27.2542
27.334
27.3581
27.3588
27.3692
27.4266
27.5813
27.8962
28.4416
29.2678
30.3498
31.4486
31.9433
30.9295
28.0913
24.5033
22.4261
16.5427
20.7975
26.71
32.7206
35.8625
36.5611
36.6512
36.9321
37.2143
37.2765
36.9973
36.2196
34.9777
33.5462
32.1785
30.979
29.9855
29.2172
28.672
28.2309
27.8204
27.4825
27.1498
26.6258
25.8302
24.8896
23.9917
23.2449
22.6603
22.1979
21.8177
21.5032
21.2604
21.0988
21.0133
20.984
20.9875
21.0096
21.042
21.0756
21.104
21.1309
21.1671
21.2212
21.2918
21.3696
21.4468
21.5232
21.6051
21.7004
21.8175
21.966
22.158
22.4059
22.7195
23.1009
23.539
24.004
24.4492
24.8198
25.0705
25.1826
25.1757
25.1038
25.0401
25.0509
25.1738
25.4095
25.734
26.1318
26.6262
27.2851
28.1644
29.1981
30.0418
30.0161
28.4422
25.5326
22.5508
21.2912
16.9263
20.117
24.6723
30.4072
34.1303
35.1634
35.1447
35.352
35.8378
36.1745
36.0394
35.2787
33.9758
32.4537
31.0493
29.9326
29.1211
28.5531
28.1435
27.765
27.3334
26.8894
26.4608
25.9605
25.313
24.5675
23.8392
23.1958
22.6342
22.1228
21.6478
21.2219
20.8685
20.6007
20.4136
20.2891
20.2073
20.156
20.1269
20.1108
20.1036
20.1115
20.1441
20.205
20.2879
20.3795
20.4691
20.5554
20.6459
20.7527
20.8886
21.065
21.2902
21.5668
21.8897
22.2434
22.6011
22.9242
23.1694
23.301
23.3077
23.2132
23.078
22.9831
23.0049
23.1872
23.5242
23.9657
24.4477
24.9427
25.4913
26.1824
27.0527
27.9547
28.4485
27.8897
25.9126
23.1451
20.7764
20.142
17.2582
19.6603
22.8787
28.0107
32.2167
33.7957
33.7705
33.7433
34.2463
34.8717
35.0463
34.4563
33.1544
31.5002
29.944
28.7903
28.0973
27.7331
27.5031
27.2404
26.8572
26.3818
25.884
25.3699
24.7998
24.1735
23.5455
22.953
22.3882
21.8283
21.2761
20.7621
20.3223
19.9761
19.7222
19.5473
19.4351
19.3715
19.3436
19.3437
19.364
19.3868
19.3893
19.3641
19.3275
19.3085
19.3285
19.3929
19.4999
19.6526
19.8578
20.1139
20.4042
20.7015
20.9786
21.2142
21.3921
21.4984
21.5238
21.4706
21.3624
21.2464
21.1856
21.2404
21.4488
21.8103
22.2836
22.8032
23.3165
23.826
24.3972
25.1055
25.921
26.6056
26.6833
25.6408
23.4448
20.9732
19.1572
18.97
17.193
19.1272
21.2121
25.5299
30.0255
32.3121
32.5316
32.2757
32.5896
33.3397
33.8434
33.575
32.4402
30.7411
29.0027
27.6912
26.9727
26.7026
26.6083
26.4814
26.2189
25.8095
25.3071
24.7709
24.2093
23.6116
23.0032
22.4114
21.8354
21.2589
20.6847
20.1411
19.6639
19.2777
18.9909
18.8015
18.6999
18.6676
18.6899
18.7703
18.89
18.9666
18.8993
18.6587
18.3211
18.0192
17.854
17.8489
17.9756
18.2062
18.5256
18.9054
19.2863
19.5979
19.7947
19.8732
19.8621
19.7994
19.7173
19.6411
19.5969
19.6144
19.7244
19.9479
20.2871
20.7209
21.2094
21.7108
22.2089
22.7333
23.3395
24.0427
24.731
25.1154
24.7595
23.338
21.1056
19.0188
17.6574
17.7659
16.7428
18.4885
19.7261
23.1204
27.6176
30.6275
31.4028
31.1461
31.2014
31.8335
32.4877
32.5346
31.698
30.1245
28.3132
26.8327
25.9671
25.622
25.5227
25.4588
25.3092
25.01
24.5698
24.0628
23.5305
22.9637
22.37
21.7744
21.1911
20.6161
20.0494
19.5071
19.0169
18.6072
18.2999
18.1079
18.028
18.0348
18.1169
18.2972
18.5403
18.6804
18.5236
18.0196
17.3183
16.6708
16.2668
16.1477
16.2529
16.5194
16.9129
17.3856
17.8429
18.1751
18.3204
18.2974
18.1855
18.0786
18.0486
18.1327
18.3374
18.6474
19.0357
19.474
19.9434
20.44
20.9733
21.5599
22.2154
22.9413
23.6939
24.3584
24.7366
24.5523
23.5011
21.5187
19.1298
17.2684
16.1499
16.4285
16.1472
17.9089
18.585
21.0304
25.1891
28.7439
30.2807
30.3324
30.1909
30.4786
30.9824
31.1795
30.7001
29.5055
27.9404
26.517
25.5485
25.0084
24.7027
24.4901
24.2691
23.9623
23.555
23.1189
22.6975
22.2592
21.7692
21.2288
20.6632
20.0914
19.5243
18.9745
18.4655
18.0305
17.7021
17.5055
17.4385
17.4678
17.5871
17.828
18.129
18.2687
18.0152
17.3299
16.4138
15.5727
15.0225
14.797
14.8152
15.0055
15.3427
15.7894
16.2475
16.5928
16.7535
16.7537
16.6883
16.6614
16.7407
16.9445
17.2555
17.6392
18.0604
18.4924
18.9263
19.3741
19.8673
20.4451
21.1286
21.8869
22.6103
23.1278
23.2371
22.7121
21.3546
19.2795
17.1345
15.6842
14.8151
15.1842
15.6301
17.5266
17.8696
19.4059
22.9042
26.6615
28.942
29.5123
29.2881
29.1013
29.1845
29.31
29.1608
28.5582
27.6025
26.5789
25.6987
24.9807
24.3611
23.8212
23.3239
22.8311
22.3449
21.9376
21.6439
21.3981
21.103
20.7076
20.2244
19.6888
19.1323
18.5794
18.0581
17.6023
17.2456
17.0181
16.9222
16.9317
17.0486
17.2812
17.5221
17.546
17.1794
16.4494
15.5715
14.8064
14.3017
14.042
13.9378
13.9437
14.0804
14.3574
14.7112
15.0336
15.2509
15.3682
15.4494
15.5638
15.7518
16.0185
16.3481
16.7176
17.1058
17.4979
17.8935
18.3131
18.8
19.3994
20.1142
20.8627
21.4816
21.7875
21.6135
20.7902
19.2178
17.169
15.3377
14.253
13.5476
13.9501
15.2431
17.2986
17.4713
18.2066
20.8358
24.4177
27.2503
28.4327
28.3065
27.7131
27.2789
27.1413
27.1489
27.0776
26.8022
26.3262
25.693
24.9338
24.1017
23.2847
22.508
21.7845
21.1477
20.679
20.4221
20.3096
20.2057
20.0037
19.6776
19.255
18.7802
18.2923
17.8181
17.3724
16.9704
16.6441
16.4228
16.3286
16.387
16.5547
16.6554
16.4916
16.0102
15.3326
14.6563
14.1365
13.8071
13.586
13.3712
13.1511
13.0096
13.0258
13.1935
13.4439
13.7173
13.998
14.2925
14.5992
14.9063
15.2062
15.5052
15.8165
16.1488
16.5024
16.8806
17.305
17.8179
18.45
19.1651
19.8337
20.2778
20.3478
19.9208
18.8629
17.1642
15.236
13.7467
12.9589
12.3479
12.7501
14.8628
17.0221
17.1399
17.252
18.9849
22.1183
25.2645
27.0928
27.3247
26.602
25.7669
25.2734
25.1819
25.3226
25.4565
25.3863
25.0147
24.3587
23.5227
22.63
21.7316
20.8698
20.1003
19.5143
19.1819
19.0729
19.0615
19.0125
18.8587
18.605
18.297
17.9749
17.6376
17.2486
16.7861
16.286
15.833
15.5401
15.4789
15.5535
15.5187
15.2041
14.6624
14.0797
13.6079
13.2992
13.1109
12.9235
12.618
12.1958
11.7942
11.5611
11.5441
11.7118
12.0312
12.4848
13.0301
13.5829
14.0576
14.4189
14.6949
14.9449
15.2191
15.541
15.9214
16.3782
16.9358
17.5861
18.2441
18.7603
18.9916
18.8457
18.2201
16.9934
15.2508
13.5176
12.3647
11.7916
11.2231
11.608
14.3347
16.512
16.6564
16.3523
17.3031
19.8456
23.0723
25.516
26.3534
25.8562
24.862
24.0478
23.6859
23.719
23.9061
23.9766
23.7684
23.2771
22.5906
21.7948
20.9311
20.0442
19.2019
18.5027
18.0404
17.8326
17.7933
17.7913
17.7375
17.6225
17.4937
17.379
17.2267
16.9299
16.4259
15.7562
15.0639
14.5549
14.349
14.3224
14.2008
13.8414
13.3452
12.8907
12.5507
12.3055
12.1093
11.8692
11.4672
10.9014
10.3388
9.97052
9.86484
9.9968
10.3521
10.935
11.6916
12.4808
13.1449
13.6042
13.8889
14.094
14.3143
14.608
15.0026
15.5072
16.1068
16.7338
17.2659
17.5795
17.6056
17.2949
16.5251
15.1846
13.4761
11.9987
11.155
10.7139
10.1526
10.5126
13.5358
15.6569
15.9014
15.372
15.6698
17.4587
20.4173
23.308
24.9526
25.099
24.2939
23.318
22.6573
22.3958
22.3557
22.2927
22.0661
21.6797
21.1892
20.6069
19.9427
19.1906
18.3953
17.6577
17.0883
16.7459
16.5955
16.5312
16.4594
16.3656
16.3
16.2772
16.2086
15.9554
15.4533
14.7568
14.0258
13.48
13.2254
13.1257
12.9529
12.6364
12.2902
12.0145
11.7658
11.4659
11.1144
10.7101
10.1979
9.60061
9.09067
8.83635
8.84719
9.03916
9.38597
9.9324
10.6766
11.4998
12.2272
12.7437
13.0531
13.2483
13.446
13.7343
14.153
14.6851
15.2537
15.7402
16.0405
16.1193
15.9785
15.5448
14.645
13.2382
11.6869
10.5731
10.0241
9.63553
9.06102
9.38765
12.5496
14.5577
14.9317
14.3351
14.1792
15.179
17.4988
20.4112
22.7297
23.7279
23.429
22.5308
21.6825
21.1186
20.755
20.4121
20.0004
19.5585
19.151
18.7607
18.3969
17.957
17.3986
16.7928
16.2475
15.8471
15.6073
15.4607
15.3177
15.1451
14.9703
14.7955
14.5538
14.1707
13.6543
13.084
12.5728
12.2439
12.1082
12.0179
11.8379
11.5979
11.4185
11.3179
11.1595
10.8241
10.3403
9.79147
9.22537
8.73362
8.48115
8.55024
8.83056
9.14153
9.42151
9.74728
10.1975
10.7464
11.2852
11.7165
12.0204
12.2531
12.5045
12.846
13.2914
13.7771
14.1866
14.4192
14.4604
14.3627
14.1173
13.5632
12.5255
11.1306
9.87636
9.18607
8.86755
8.46421
7.88665
8.17909
11.6593
13.518
14.0012
13.4316
13.0593
13.4592
15.0141
17.5202
20.0936
21.804
22.141
21.5366
20.6707
19.9036
19.274
18.6822
18.0667
17.4744
16.9974
16.6537
16.5233
16.436
16.2356
15.9251
15.5744
15.2607
15.0317
14.8616
14.672
14.3978
14.0171
13.5213
12.9128
12.2454
11.634
11.1784
10.9155
10.8342
10.8482
10.8231
10.711
10.5966
10.5754
10.6117
10.5495
10.2782
9.82865
9.2957
8.77644
8.41768
8.38512
8.70054
9.17596
9.57107
9.78821
9.89773
10.0158
10.1974
10.4266
10.6685
10.9149
11.1909
11.5317
11.9444
12.3796
12.7371
12.9234
12.9247
12.8154
12.6487
12.3207
11.609
10.4476
9.16048
8.26441
7.92611
7.71791
7.26714
6.71942
6.99189
10.7964
12.4866
13.0593
12.5518
12.1192
12.1494
13.0186
14.8913
17.3194
19.4573
20.4176
20.269
19.5649
18.7218
17.9209
17.1745
16.4411
15.731
15.1293
14.6975
14.6325
14.7731
14.8892
14.9172
14.867
14.7704
14.6644
14.54
14.3267
13.9348
13.3061
12.4423
11.4354
10.4634
9.72019
9.30132
9.16565
9.19397
9.25436
9.27558
9.29693
9.40574
9.6162
9.82389
9.88858
9.75934
9.48411
9.1168
8.70682
8.38395
8.32823
8.59747
9.04196
9.43086
9.6332
9.66794
9.62666
9.58888
9.5964
9.67191
9.83708
10.1083
10.4756
10.8803
11.2222
11.4063
11.4129
11.3158
11.2008
11.0239
10.5758
9.67343
8.44402
7.35323
6.80556
6.69537
6.49265
5.9949
5.51169
5.78049
9.88197
11.4308
12.1018
11.6817
11.2816
11.1474
11.5237
12.7387
14.7489
16.9951
18.4556
18.8573
18.5004
17.7429
16.8749
16.0516
15.2834
14.538
13.8477
13.2716
13.1033
13.2513
13.4877
13.7319
13.955
14.125
14.2167
14.1831
13.9404
13.3975
12.5115
11.3351
10.0433
8.88566
8.0729
7.66775
7.56839
7.59195
7.60244
7.61574
7.76981
8.15378
8.67957
9.13652
9.37048
9.39871
9.32443
9.16974
8.87694
8.47897
8.16064
8.09856
8.28902
8.57151
8.78619
8.87971
8.88963
8.876
8.87922
8.92286
9.02829
9.20867
9.44482
9.67019
9.80209
9.80574
9.73585
9.68213
9.63961
9.4289
8.80889
7.74174
6.55161
5.72792
5.47043
5.46013
5.19579
4.67226
4.27814
4.55337
8.90973
10.4002
11.2089
10.913
10.5946
10.4385
10.5345
11.2082
12.6894
14.7725
16.5288
17.4668
17.5919
17.0869
16.2597
15.3962
14.6078
13.8653
13.1427
12.4456
12.0936
12.0697
12.2001
12.4456
12.7884
13.15
13.4194
13.4692
13.1822
12.4905
11.4163
10.0871
8.72362
7.57154
6.801
6.43341
6.34369
6.33422
6.27663
6.24234
6.44691
7.01111
7.79406
8.48901
8.88656
9.0289
9.08257
9.08307
8.88742
8.40577
7.79129
7.33376
7.19638
7.31391
7.52018
7.71651
7.90781
8.12407
8.3491
8.5276
8.61664
8.6143
8.54234
8.41683
8.25747
8.11619
8.06709
8.11553
8.10811
7.7776
6.96109
5.81589
4.7851
4.25919
4.20955
4.20244
3.85642
3.34146
3.05077
3.33678
7.98941
9.5293
10.5212
10.3856
10.1634
10.0554
10.038
10.3435
11.3168
13.0516
14.8555
16.1846
16.8097
16.6761
15.9946
15.1139
14.2673
13.4963
12.7603
11.9998
11.49
11.2464
11.147
11.2124
11.4729
11.8442
12.1554
12.2112
11.8703
11.1044
10.0104
8.76631
7.57461
6.60756
5.96297
5.63866
5.5353
5.49217
5.39346
5.3026
5.4411
5.96384
6.76101
7.51671
7.97912
8.16059
8.24453
8.30448
8.18819
7.73072
7.01945
6.36412
6.01451
5.98202
6.13773
6.40661
6.81348
7.36634
7.9517
8.36818
8.45548
8.19395
7.7013
7.15613
6.72689
6.52404
6.55395
6.66644
6.57942
6.04067
5.05114
3.93667
3.14485
2.88994
2.95557
2.89351
2.48157
2.01398
1.83486
2.13684
7.28927
8.9583
10.1517
10.1865
10.0408
9.98447
9.94529
10.0382
10.5928
11.8818
13.4893
14.9701
15.9881
16.2686
15.8333
14.9892
14.059
13.1997
12.4235
11.6429
11.0571
10.6648
10.3521
10.1672
10.1875
10.3607
10.5187
10.4623
10.0664
9.34343
8.42789
7.48578
6.63951
5.95323
5.45484
5.14511
4.98643
4.89084
4.76763
4.62944
4.62395
4.89991
5.42925
5.99249
6.36537
6.51167
6.56589
6.61853
6.57242
6.26952
5.72764
5.17067
4.81433
4.70338
4.78699
5.08283
5.67924
6.56609
7.51204
8.14657
8.18789
7.62436
6.7139
5.82684
5.25866
5.10504
5.23046
5.32339
5.05362
4.28346
3.19706
2.20554
1.6622
1.59359
1.67473
1.52047
1.06661
0.674534
0.607447
0.93312
6.91929
8.72413
10.0897
10.2629
10.1437
10.0954
10.0529
10.0316
10.2703
11.095
12.3276
13.7114
14.9437
15.6094
15.5058
14.7946
13.8108
12.8251
11.9577
11.1562
10.5608
10.1263
9.69793
9.29527
9.01251
8.84939
8.70434
8.44667
8.00708
7.4223
6.80508
6.24905
5.77298
5.34895
4.96609
4.64828
4.42167
4.2701
4.13499
3.97714
3.83765
3.81112
3.94037
4.15219
4.3193
4.38399
4.3985
4.42812
4.44155
4.34319
4.10843
3.83018
3.61422
3.49846
3.52052
3.81311
4.53249
5.64626
6.81616
7.53937
7.46267
6.62226
5.42294
4.38613
3.85655
3.83948
4.03827
4.04041
3.56496
2.63644
1.57209
0.767289
0.42783
0.433054
0.43391
0.154691
-0.332786
-0.646672
-0.616451
-0.265751
6.86068
8.7325
10.201
10.4496
10.2956
10.1959
10.1263
10.0369
10.0546
10.4684
11.2577
12.3692
13.6324
14.5976
14.8647
14.3878
13.4264
12.3207
11.319
10.4612
9.87173
9.46397
9.01458
8.47035
7.91016
7.39044
6.91155
6.4482
5.99372
5.57691
5.23975
4.98083
4.74284
4.46582
4.14872
3.84757
3.62184
3.48434
3.39015
3.26739
3.07604
2.846
2.64915
2.53215
2.48166
2.45802
2.44852
2.47021
2.52595
2.58307
2.60631
2.58558
2.52098
2.42938
2.41059
2.67453
3.40955
4.55783
5.72568
6.36713
6.13789
5.14465
3.88654
2.93467
2.58649
2.7232
2.9378
2.81721
2.2015
1.2596
0.350479
-0.228641
-0.424505
-0.442893
-0.592937
-1.0243
-1.55711
-1.81853
-1.72538
-1.3665
6.96484
8.79354
10.2843
10.5435
10.309
10.116
9.99225
9.85649
9.73995
9.85181
10.2425
11.0135
12.1585
13.286
13.8762
13.6797
12.822
11.6495
10.5168
9.57949
8.98473
8.62342
8.20391
7.58724
6.82409
6.02554
5.29561
4.70294
4.27338
3.9908
3.80797
3.65024
3.44623
3.17601
2.89273
2.68069
2.58847
2.59879
2.6418
2.62672
2.48279
2.20444
1.8626
1.56135
1.36685
1.27798
1.25977
1.29007
1.36864
1.49032
1.62452
1.71891
1.72313
1.64061
1.58701
1.77743
2.38118
3.32728
4.24933
4.67251
4.33662
3.40199
2.35787
1.69442
1.58675
1.81602
1.96637
1.72595
1.08187
0.284027
-0.359309
-0.692488
-0.787491
-0.879606
-1.20561
-1.79558
-2.38889
-2.63713
-2.52742
-2.19716
7.05072
8.73462
10.1871
10.4202
10.0956
9.80342
9.62128
9.45959
9.28697
9.22819
9.33485
9.78083
10.6959
11.8055
12.5748
12.619
11.9217
10.7774
9.59043
8.61014
8.01902
7.70501
7.3287
6.68192
5.79522
4.83147
3.9776
3.35623
2.98102
2.76665
2.58956
2.34927
2.02116
1.67347
1.43039
1.38876
1.55019
1.82627
2.09199
2.2392
2.20439
1.98599
1.65073
1.31143
1.06434
0.941074
0.917731
0.958545
1.04459
1.16482
1.29242
1.37771
1.3715
1.27302
1.17067
1.22174
1.54279
2.07833
2.57484
2.72345
2.38891
1.73536
1.12603
0.861658
0.965072
1.18286
1.19693
0.863185
0.297248
-0.245329
-0.567721
-0.656945
-0.669253
-0.834092
-1.31181
-2.03364
-2.6844
-2.94863
-2.86257
-2.60321
6.99221
8.47128
9.86096
10.0701
9.68187
9.31808
9.0969
8.93258
8.76242
8.64425
8.58909
8.76303
9.37152
10.2781
11.0319
11.2157
10.7081
9.71307
8.61243
7.69186
7.15405
6.89606
6.56041
5.90174
4.94873
3.91205
3.03413
2.45099
2.13315
1.92565
1.66099
1.25769
0.768501
0.352787
0.18691
0.355934
0.800549
1.35905
1.85268
2.16005
2.23847
2.11128
1.84862
1.551
1.3104
1.17346
1.13837
1.17749
1.26017
1.35965
1.44746
1.48934
1.45353
1.3324
1.16226
1.01696
0.959444
0.982165
0.996059
0.897659
0.672094
0.432243
0.339195
0.45838
0.680109
0.788068
0.630608
0.243999
-0.174773
-0.422917
-0.432625
-0.304038
-0.238266
-0.443751
-1.01624
-1.81366
-2.49114
-2.77344
-2.72795
-2.56444
6.75899
8.02315
9.35863
9.57455
9.16881
8.7742
8.54064
8.38984
8.24888
8.1332
8.00125
7.95896
8.22739
8.79897
9.37236
9.59239
9.28763
8.55601
7.69221
6.95319
6.5339
6.34722
6.04698
5.38309
4.39736
3.33941
2.48193
1.95016
1.6673
1.43129
1.06671
0.534643
-0.0429016
-0.452479
-0.508272
-0.159485
0.483933
1.21918
1.84734
2.25002
2.40415
2.35291
2.16917
1.93531
1.72415
1.58257
1.52715
1.5484
1.61962
1.70787
1.78198
1.81419
1.77723
1.64435
1.39714
1.04012
0.608078
0.16138
-0.227243
-0.484363
-0.54671
-0.38747
-0.0535736
0.316165
0.535809
0.475653
0.159809
-0.233387
-0.481401
-0.461988
-0.217102
0.0829745
0.221473
0.0127125
-0.590381
-1.39555
-2.05048
-2.3268
-2.31178
-2.23659
6.39151
7.46678
8.77353
9.03555
8.65588
8.2635
8.03467
7.89816
7.78073
7.67765
7.50598
7.29682
7.24735
7.44995
7.76922
7.96489
7.86238
7.45883
6.92713
6.44937
6.18979
6.08071
5.81016
5.14706
4.15204
3.09908
2.26988
1.77071
1.493
1.22003
0.795785
0.224426
-0.335752
-0.668313
-0.619959
-0.184566
0.502719
1.24198
1.85838
2.26005
2.43915
2.44013
2.32722
2.16084
1.98925
1.85132
1.77505
1.77023
1.82546
1.91471
2.0065
2.06719
2.05547
1.9177
1.59725
1.06606
0.363111
-0.387265
-1.00176
-1.30702
-1.22025
-0.803364
-0.254515
0.169753
0.276125
0.0375288
-0.386966
-0.744066
-0.832978
-0.611073
-0.191495
0.225487
0.424143
0.237503
-0.345302
-1.09949
-1.6831
-1.91868
-1.90762
-1.88387
5.95396
6.88091
8.18345
8.52089
8.19348
7.81705
7.59308
7.45703
7.33751
7.2258
7.02118
6.69519
6.4061
6.30708
6.39908
6.55882
6.63413
6.5451
6.34665
6.13345
6.02974
5.98828
5.74361
5.09592
4.12186
3.10146
2.30669
1.8229
1.52901
1.2209
0.776418
0.231715
-0.251531
-0.491421
-0.389225
0.0201822
0.602293
1.19241
1.67071
1.98918
2.15159
2.18692
2.13997
2.04652
1.92806
1.81075
1.7283
1.70593
1.74889
1.84256
1.95634
2.04526
2.04817
1.89153
1.50804
0.875444
0.0576104
-0.782038
-1.42315
-1.68044
-1.50202
-1.01643
-0.48721
-0.189035
-0.265382
-0.653493
-1.12379
-1.41609
-1.37962
-1.03152
-0.515447
-0.0332562
0.206645
0.0516821
-0.480401
-1.1453
-1.62477
-1.79192
-1.75879
-1.73909
5.50542
6.32279
7.63481
8.05869
7.78925
7.42477
7.19398
7.04014
6.89234
6.74704
6.5099
6.1216
5.70266
5.42673
5.37438
5.50602
5.70093
5.83973
5.89539
5.89064
5.90946
5.91974
5.70295
5.09441
4.18146
3.23293
2.49353
2.02345
1.69996
1.34678
0.881669
0.364906
-0.0539244
-0.239398
-0.147993
0.154817
0.549981
0.917956
1.20124
1.39812
1.51956
1.5719
1.58003
1.56055
1.51016
1.43856
1.37869
1.36345
1.40691
1.50013
1.61159
1.68822
1.65961
1.45259
1.01735
0.361902
-0.422893
-1.16937
-1.68515
-1.83845
-1.63489
-1.23665
-0.896207
-0.830648
-1.10335
-1.58961
-2.04956
-2.2644
-2.14148
-1.7319
-1.17907
-0.672062
-0.411525
-0.537586
-1.00747
-1.56734
-1.93182
-2.02038
-1.95127
-1.89853
5.05346
5.78415
7.10341
7.61006
7.39299
7.02872
6.77664
6.59157
6.40127
6.21033
5.94792
5.55068
5.10802
4.77846
4.66134
4.75685
4.9796
5.21571
5.40774
5.53355
5.637
5.68798
5.50723
4.96511
4.15563
3.32299
2.66939
2.22259
1.86031
1.43894
0.917981
0.3814
-0.0309868
-0.221396
-0.188157
-0.0157008
0.194195
0.359671
0.470949
0.556676
0.627156
0.671571
0.705521
0.739434
0.755503
0.748136
0.741941
0.765637
0.828798
0.916695
0.99303
1.0048
0.892129
0.606937
0.136766
-0.474548
-1.12356
-1.67024
-1.98862
-2.02733
-1.84894
-1.61804
-1.5297
-1.70923
-2.13897
-2.66374
-3.07352
-3.21211
-3.03718
-2.61139
-2.0617
-1.56073
-1.3009
-1.40666
-1.81164
-2.26316
-2.51728
-2.53414
-2.43119
-2.33176
4.69601
5.36599
6.68965
7.25911
7.07605
6.70074
6.42215
6.20675
5.97945
5.75168
5.48018
5.11215
4.71401
4.40998
4.27758
4.32401
4.49907
4.72738
4.96317
5.164
5.33454
5.43091
5.29756
4.83485
4.14343
3.44046
2.88025
2.45252
2.03137
1.50456
0.876544
0.263404
-0.192071
-0.41632
-0.439875
-0.364208
-0.28116
-0.250627
-0.252927
-0.242821
-0.216327
-0.197682
-0.168129
-0.105242
-0.0294645
0.0375341
0.104576
0.187002
0.280041
0.355497
0.371987
0.285701
0.0619393
-0.310036
-0.802965
-1.34631
-1.83956
-2.18368
-2.32279
-2.27757
-2.15037
-2.09038
-2.22593
-2.59609
-3.12151
-3.63962
-3.98356
-4.05571
-3.84855
-3.42276
-2.88617
-2.39955
-2.15044
-2.24804
-2.60432
-2.97011
-3.13895
-3.10229
-2.97323
-2.82756
4.0728
4.6367
5.92671
6.57327
6.44442
6.0546
5.73708
5.48512
5.21926
4.95283
4.67963
4.37105
4.06473
3.81634
3.63519
3.5139
3.4673
3.523
3.69798
3.93564
4.16926
4.3126
4.23514
3.88144
3.35759
2.83153
2.38458
1.96099
1.44518
0.777002
0.0167476
-0.690291
-1.2055
-1.47773
-1.55582
-1.53858
-1.50656
-1.4984
-1.49844
-1.50093
-1.52946
-1.58707
-1.63588
-1.63509
-1.57276
-1.45975
-1.31326
-1.15645
-1.02699
-0.977185
-1.05409
-1.27638
-1.62356
-2.04379
-2.46973
-2.83322
-3.07853
-3.1778
-3.14855
-3.06177
-3.02656
-3.14792
-3.47384
-3.96314
-4.49763
-4.93577
-5.17239
-5.16747
-4.93397
-4.52002
-4.01635
-3.57464
-3.36321
-3.45073
-3.72205
-3.96061
-4.03214
-3.96421
-3.84255
-3.68579
)
;
    }
    outlet
    {
        type            calculated;
        value           nonuniform List<scalar> 
3200
(
47.2558
48.9567
46.5904
44.8125
43.3626
42.2091
41.8461
43.3388
46.5632
44.6982
38.5478
32.858
31.5971
34.2208
34.4326
33.5783
32.2791
30.6409
30.2498
31.639
33.6051
33.0844
30.4258
29.7379
30.8701
32.1895
32.7235
32.7242
32.5255
32.2955
32.1029
31.9614
31.8478
31.715
31.5016
31.2589
31.5056
32.4643
33.4387
34.1655
34.5332
34.578
34.2131
33.3241
32.0704
31.137
31.016
31.3485
31.6441
31.8827
32.0758
32.2058
32.1924
31.7524
30.3297
28.1232
26.9134
26.8619
27.0115
27.3292
27.7854
28.2801
28.7207
29.1148
29.5468
30.0822
30.7083
31.3141
31.8031
32.0644
31.8671
31.3189
30.6636
30.112
29.8133
29.7824
29.84
30.027
30.7411
31.1701
54.171
66.2597
65.9283
64.116
62.4155
60.9138
60.0116
60.3532
60.8107
58.5743
52.6256
44.4211
43.0149
45.8199
45.9117
44.9862
43.5889
41.8598
41.2923
43.338
45.9082
45.9787
43.791
41.9247
41.4686
41.2329
40.7265
40.0901
39.4715
38.954
38.5718
38.3234
38.1745
38.0649
37.9318
37.8081
37.9709
38.5557
39.2347
39.7801
40.1243
40.2357
40.0072
39.309
38.2423
37.2796
36.7296
36.4392
36.2985
36.3203
36.4994
36.8214
37.2545
37.6907
37.9003
37.8952
38.2389
38.9311
39.4439
39.9661
40.5533
41.1299
41.6536
42.1661
42.7488
43.4551
44.2564
45.0366
45.6801
46.0762
46.0696
45.7669
45.3768
45.0702
44.9257
44.8578
44.6237
44.1812
43.3728
38.6696
50.6808
67.8977
70.758
69.9112
68.4867
66.8882
65.4995
64.6809
63.765
61.5018
56.1538
48.1327
47.3408
49.7223
49.7408
48.8241
47.4541
45.7881
44.9047
46.5423
48.7745
48.9205
47.2803
45.2723
43.9351
42.926
41.9817
41.1012
40.3302
39.7053
39.245
38.9453
38.7753
38.6829
38.6166
38.5939
38.7648
39.1916
39.6904
40.1013
40.3696
40.4584
40.2801
39.734
38.8856
38.0443
37.41
36.9688
36.7176
36.6769
36.8378
37.1793
37.683
38.3288
39.1026
40.129
41.2761
42.2871
43.0225
43.6706
44.2952
44.8684
45.3922
45.9214
46.5365
47.2882
48.1523
49.0259
49.7855
50.3214
50.5391
50.497
50.311
50.05
49.6896
49.1696
48.5742
48.085
46.4044
39.4044
46.1376
64.3381
69.6998
69.9754
69.158
67.8807
66.4353
65.0912
63.6733
61.5666
57.1392
50.3163
49.9833
51.6722
51.5665
50.6629
49.3653
47.8181
46.7237
47.6641
49.0986
49.0221
47.6838
45.8263
44.1924
42.8589
41.7052
40.6839
39.8028
39.0884
38.5634
38.2298
38.0601
38.0018
37.9997
38.0475
38.2171
38.531
38.8871
39.1878
39.3975
39.4821
39.3645
38.9637
38.3173
37.6185
37.014
36.5542
36.2725
36.1858
36.2852
36.5599
37.0225
37.7093
38.6758
40.0297
41.4516
42.5696
43.4097
44.1241
44.7657
45.3313
45.8437
46.3695
46.9974
47.7847
48.7133
49.6819
50.546
51.1675
51.4463
51.3807
51.0247
50.4432
49.7275
49.1141
48.9688
48.9399
46.302
38.3867
42.0423
59.1954
66.2318
67.3619
67.0101
66.1792
65.0359
63.7758
62.3812
60.5427
57.1158
51.8653
51.4644
52.3159
51.9637
51.036
49.8146
48.436
47.3451
47.5702
48.113
47.8084
46.646
44.9974
43.3732
41.9693
40.7549
39.684
38.7509
37.9763
37.3869
36.9933
36.7766
36.6901
36.6787
36.7209
36.8456
37.0612
37.3169
37.5579
37.7568
37.8714
37.8237
37.5484
37.0718
36.5095
35.9653
35.5134
35.2051
35.06
35.081
35.2832
35.7089
36.4039
37.4013
38.7502
40.1384
41.2458
42.1135
42.8537
43.5097
44.0845
44.6073
45.1542
45.82
46.6634
47.656
48.6713
49.5239
50.0378
50.1089
49.7525
49.0898
48.3229
47.7489
47.7609
48.4254
48.3535
44.4623
36.7343
38.5719
53.8543
62.0303
63.8976
63.7686