/*--------------------------------*- C++ -*----------------------------------*\
| =========                 |                                                 |
| \\      /  F ield         | OpenFOAM: The Open Source CFD Toolbox           |
|  \\    /   O peration     | Version:  v2012                                 |
|   \\  /    A nd           | Website:  www.openfoam.com                      |
|    \\/     M anipulation  |                                                 |
\*---------------------------------------------------------------------------*/
FoamFile
{
    version     2.0;
    format      ascii;
    class       volScalarField;
    location    "200/air";
    object      rho;
}
// * * * * * * * * * * * * * * * * * * * * * * * * * * * * * * * * * * * * * //

dimensions      [1 -3 0 0 0 0 0];


internalField   nonuniform List<scalar> 
287104
(
0.999101
0.998263
0.997514
0.996835
0.996214
0.995644
0.995119
0.994632
0.99418
0.993756
0.993356
0.992976
0.992612
0.992263
0.991926
0.9916
0.991284
0.990977
0.990679
0.990388
0.990105
0.989828
0.989557
0.989292
0.989032
0.988777
0.988527
0.988282
0.988041
0.987803
0.98757
0.98734
0.987114
0.986891
0.986671
0.986454
0.98624
0.986029
0.98582
0.985614
0.98541
0.985208
0.985009
0.984811
0.984616
0.984422
0.98423
0.984039
0.98385
0.983662
0.983475
0.983289
0.983104
0.982919
0.982735
0.982551
0.982367
0.982183
0.982
0.981817
0.981635
0.981455
0.981277
0.981101
0.980929
0.980761
0.980597
0.980438
0.980285
0.980137
0.979995
0.979858
0.979728
0.979604
0.979486
0.979374
0.979267
0.979164
0.979064
0.978964
0.978866
0.978767
0.978667
0.978568
0.978467
0.978366
0.978264
0.978161
0.978045
0.977901
0.999113
0.998287
0.997548
0.996879
0.996268
0.995708
0.995191
0.994713
0.994269
0.993853
0.993461
0.993089
0.992733
0.992391
0.992061
0.991742
0.991434
0.991134
0.990843
0.99056
0.990283
0.990013
0.989749
0.989491
0.989238
0.98899
0.988747
0.988508
0.988274
0.988044
0.987817
0.987594
0.987375
0.987158
0.986945
0.986735
0.986528
0.986323
0.986121
0.985921
0.985724
0.985528
0.985335
0.985144
0.984955
0.984767
0.984581
0.984396
0.984213
0.984031
0.98385
0.98367
0.983491
0.983312
0.983134
0.982956
0.982779
0.982601
0.982424
0.982248
0.982073
0.981899
0.981727
0.981558
0.981392
0.981231
0.981074
0.980921
0.980774
0.980633
0.980498
0.980368
0.980244
0.980127
0.980015
0.979909
0.979807
0.979709
0.979614
0.97952
0.979425
0.97933
0.979234
0.979137
0.979039
0.97894
0.97884
0.978738
0.978624
0.978479
0.999126
0.998311
0.997583
0.996924
0.996322
0.995769
0.995261
0.99479
0.994353
0.993944
0.993558
0.993192
0.992842
0.992506
0.992182
0.99187
0.991566
0.991272
0.990987
0.990708
0.990437
0.990173
0.989914
0.989661
0.989413
0.98917
0.988932
0.988699
0.98847
0.988245
0.988023
0.987806
0.987591
0.98738
0.987172
0.986968
0.986766
0.986566
0.98637
0.986175
0.985984
0.985794
0.985606
0.985421
0.985237
0.985055
0.984875
0.984696
0.984519
0.984343
0.984168
0.983994
0.983821
0.983649
0.983478
0.983307
0.983136
0.982966
0.982797
0.982628
0.982461
0.982295
0.982132
0.981972
0.981815
0.981663
0.981515
0.981372
0.981235
0.981104
0.980979
0.98086
0.980747
0.98064
0.980539
0.980444
0.980354
0.980267
0.980183
0.980099
0.980015
0.979931
0.979846
0.97976
0.979672
0.979584
0.979495
0.979404
0.979301
0.979167
0.999138
0.998335
0.997618
0.996968
0.996374
0.99583
0.995328
0.994865
0.994435
0.994032
0.993653
0.993293
0.992948
0.992618
0.992299
0.991991
0.991693
0.991404
0.991123
0.990849
0.990583
0.990322
0.990068
0.989819
0.989576
0.989337
0.989104
0.988874
0.988649
0.988428
0.988211
0.987997
0.987787
0.98758
0.987376
0.987175
0.986977
0.986781
0.986588
0.986398
0.98621
0.986024
0.98584
0.985659
0.985479
0.9853
0.985124
0.984949
0.984775
0.984602
0.984431
0.984261
0.984092
0.983924
0.983756
0.98359
0.983423
0.983258
0.983093
0.982928
0.982765
0.982604
0.982445
0.98229
0.982137
0.98199
0.981846
0.981708
0.981576
0.98145
0.981329
0.981215
0.981107
0.981005
0.980909
0.980819
0.980734
0.980653
0.980575
0.980498
0.98042
0.980343
0.980265
0.980187
0.980108
0.980028
0.979949
0.979868
0.979776
0.979655
0.99915
0.998359
0.997651
0.997011
0.996426
0.995889
0.995396
0.99494
0.994516
0.99412
0.993746
0.993392
0.993053
0.992728
0.992414
0.992111
0.991818
0.991534
0.991257
0.990988
0.990726
0.99047
0.99022
0.989975
0.989736
0.989501
0.989271
0.989046
0.988825
0.988608
0.988395
0.988185
0.987979
0.987776
0.987576
0.987379
0.987185
0.986993
0.986805
0.986618
0.986434
0.986252
0.986073
0.985895
0.985719
0.985545
0.985372
0.985201
0.985032
0.984864
0.984697
0.984531
0.984366
0.984202
0.984039
0.983877
0.983716
0.983555
0.983394
0.983235
0.983077
0.982921
0.982767
0.982616
0.982468
0.982325
0.982187
0.982054
0.981926
0.981804
0.981689
0.981579
0.981476
0.981379
0.981288
0.981203
0.981123
0.981048
0.980975
0.980904
0.980834
0.980763
0.980693
0.980623
0.980552
0.980482
0.980412
0.98034
0.980258
0.980148
0.999162
0.998382
0.997685
0.997053
0.996477
0.995948
0.995462
0.995013
0.994595
0.994205
0.993838
0.993489
0.993156
0.992836
0.992527
0.992229
0.991941
0.991661
0.991389
0.991124
0.990866
0.990614
0.990368
0.990127
0.989892
0.989662
0.989436
0.989215
0.988998
0.988785
0.988575
0.98837
0.988167
0.987968
0.987772
0.987579
0.987389
0.987202
0.987017
0.986835
0.986656
0.986478
0.986303
0.98613
0.985959
0.98579
0.985622
0.985456
0.985292
0.985128
0.984967
0.984806
0.984647
0.984488
0.984331
0.984174
0.984019
0.983864
0.98371
0.983557
0.983405
0.983256
0.983108
0.982964
0.982823
0.982687
0.982555
0.982429
0.982308
0.982194
0.982086
0.981985
0.981891
0.981803
0.981723
0.981649
0.981581
0.981518
0.981459
0.981401
0.981345
0.981288
0.981232
0.981175
0.981118
0.98106
0.981002
0.980942
0.98087
0.980771
0.999174
0.998405
0.997718
0.997095
0.996527
0.996006
0.995527
0.995085
0.994674
0.99429
0.993928
0.993585
0.993257
0.992942
0.992638
0.992344
0.99206
0.991784
0.991516
0.991255
0.991001
0.990753
0.990511
0.990274
0.990043
0.989816
0.989594
0.989377
0.989164
0.988955
0.988751
0.988549
0.988352
0.988158
0.987967
0.987779
0.987594
0.987413
0.987235
0.987059
0.986886
0.986716
0.986548
0.986383
0.986219
0.986058
0.985899
0.985741
0.985585
0.985431
0.985278
0.985126
0.984976
0.984827
0.984679
0.984533
0.984387
0.984243
0.9841
0.983958
0.983818
0.98368
0.983546
0.983415
0.983289
0.983168
0.983054
0.982949
0.982854
0.98277
0.982696
0.982631
0.982575
0.982527
0.982487
0.982452
0.982423
0.982396
0.982371
0.982345
0.982318
0.982288
0.982255
0.982218
0.982177
0.98213
0.982075
0.982012
0.981939
0.981839
0.999186
0.998428
0.997751
0.997137
0.996577
0.996064
0.995592
0.995156
0.994752
0.994374
0.994018
0.99368
0.993357
0.993046
0.992747
0.992458
0.992177
0.991905
0.991641
0.991383
0.991132
0.990887
0.990648
0.990415
0.990187
0.989964
0.989746
0.989532
0.989324
0.98912
0.988921
0.988726
0.988534
0.988347
0.988164
0.987985
0.987812
0.987644
0.987482
0.987324
0.987171
0.987022
0.986876
0.986735
0.986597
0.986462
0.986329
0.9862
0.986074
0.985951
0.985831
0.985715
0.985601
0.98549
0.985383
0.985278
0.985177
0.98508
0.984986
0.984895
0.984809
0.984728
0.984652
0.984582
0.984519
0.984463
0.984413
0.984372
0.984337
0.98431
0.98429
0.984276
0.984269
0.984266
0.984268
0.984274
0.984283
0.984292
0.984302
0.984309
0.984313
0.984313
0.984308
0.984298
0.984281
0.984258
0.984225
0.984177
0.984077
0.983903
0.999198
0.998451
0.997783
0.997178
0.996626
0.996121
0.995656
0.995226
0.994828
0.994455
0.994105
0.993771
0.993451
0.993142
0.992842
0.99255
0.992267
0.99199
0.991721
0.991458
0.991202
0.990953
0.99071
0.990473
0.990242
0.990018
0.989803
0.989598
0.989402
0.989213
0.989033
0.98886
0.988694
0.988536
0.988384
0.988239
0.988101
0.98797
0.987846
0.987728
0.987616
0.987508
0.987406
0.987309
0.987217
0.987131
0.987049
0.986972
0.986898
0.986828
0.986761
0.986697
0.986637
0.986579
0.986525
0.986473
0.986425
0.986381
0.98634
0.986303
0.986269
0.986241
0.986217
0.986198
0.986185
0.986179
0.986179
0.986186
0.986199
0.986218
0.986243
0.986273
0.986308
0.986347
0.98639
0.986435
0.986481
0.986527
0.986573
0.986616
0.986655
0.98669
0.986719
0.986742
0.986759
0.98677
0.986774
0.986765
0.986716
0.986611
0.999209
0.998473
0.997815
0.997219
0.996675
0.996177
0.995719
0.995296
0.994903
0.994537
0.994181
0.993826
0.993469
0.99311
0.992752
0.992398
0.992049
0.991709
0.991377
0.991056
0.990747
0.990449
0.990162
0.989888
0.989625
0.989374
0.989138
0.988915
0.988704
0.988504
0.988314
0.988135
0.987964
0.987803
0.987649
0.987498
0.987351
0.987208
0.98707
0.986939
0.986813
0.986695
0.986584
0.986481
0.986385
0.986295
0.986211
0.986132
0.986058
0.985988
0.985924
0.985864
0.985809
0.985759
0.985714
0.985673
0.985637
0.985605
0.985579
0.985557
0.985541
0.98553
0.985524
0.985524
0.98553
0.985542
0.98556
0.985585
0.985616
0.985652
0.985693
0.985739
0.985788
0.98584
0.985894
0.98595
0.986006
0.986062
0.986117
0.986173
0.986239
0.986304
0.986366
0.986421
0.986469
0.986506
0.986532
0.98654
0.986502
0.986398
0.999221
0.998495
0.997846
0.997259
0.996723
0.996232
0.995781
0.995364
0.994977
0.994605
0.99392
0.993187
0.992447
0.991716
0.991004
0.990318
0.989664
0.989047
0.988471
0.98794
0.987455
0.987018
0.986631
0.98629
0.985995
0.985741
0.985524
0.985339
0.985178
0.985037
0.984909
0.984791
0.984679
0.984569
0.984461
0.984356
0.984251
0.984149
0.984048
0.983946
0.983843
0.983737
0.98363
0.983524
0.983418
0.983312
0.983207
0.983103
0.983
0.982899
0.9828
0.982704
0.98261
0.98252
0.982434
0.982351
0.982273
0.982199
0.982129
0.982063
0.982002
0.981946
0.981895
0.98185
0.981811
0.981779
0.981753
0.981735
0.981723
0.981717
0.981717
0.981722
0.981732
0.981746
0.981764
0.981785
0.981809
0.981833
0.981857
0.981969
0.982257
0.982512
0.982737
0.982933
0.983102
0.983242
0.983351
0.983421
0.983429
0.9834
0.999232
0.998517
0.997878
0.997299
0.996771
0.996287
0.995842
0.995432
0.99505
0.994685
0.994016
0.993301
0.992576
0.991858
0.991155
0.990474
0.989822
0.989204
0.988625
0.988089
0.987598
0.987156
0.986762
0.986417
0.986119
0.985865
0.98565
0.985468
0.985314
0.985181
0.985064
0.984957
0.984856
0.984758
0.98466
0.984558
0.984452
0.984344
0.984232
0.984115
0.983994
0.983866
0.983732
0.983596
0.983457
0.983314
0.983168
0.98302
0.982869
0.982718
0.982564
0.982409
0.982253
0.982096
0.981938
0.981779
0.981621
0.981463
0.981306
0.981149
0.980994
0.980841
0.980691
0.980546
0.980405
0.980271
0.980145
0.980026
0.979915
0.979812
0.979716
0.979629
0.979548
0.979474
0.979406
0.979344
0.979285
0.979229
0.979171
0.979127
0.979185
0.97931
0.979469
0.979638
0.979803
0.979955
0.980088
0.980193
0.980252
0.980245
0.999243
0.998538
0.997909
0.997338
0.996818
0.996341
0.995903
0.995499
0.995123
0.994763
0.994107
0.993405
0.992693
0.991988
0.991297
0.990628
0.989987
0.989379
0.98881
0.988282
0.987801
0.987367
0.986983
0.986649
0.986362
0.98612
0.985919
0.985752
0.985613
0.985497
0.985397
0.985308
0.985226
0.985146
0.985065
0.98498
0.984891
0.9848
0.984706
0.984609
0.984508
0.984401
0.98429
0.984178
0.984067
0.983953
0.983838
0.983721
0.983603
0.983482
0.983359
0.983235
0.983108
0.98298
0.982848
0.982715
0.982579
0.982439
0.982297
0.98215
0.982001
0.981847
0.98169
0.981532
0.981371
0.981211
0.981051
0.980892
0.980735
0.980584
0.980439
0.9803
0.980167
0.980041
0.97992
0.979805
0.979694
0.979586
0.979478
0.97938
0.979365
0.979412
0.979492
0.979588
0.979688
0.979785
0.979875
0.979952
0.979998
0.979991
0.999254
0.99856
0.997939
0.997377
0.996865
0.996395
0.995964
0.995566
0.995196
0.994841
0.994197
0.993508
0.99281
0.992117
0.991439
0.990782
0.990153
0.989556
0.988996
0.988478
0.988005
0.98758
0.987204
0.986877
0.986596
0.98636
0.986164
0.986002
0.985869
0.985758
0.985664
0.985581
0.985504
0.98543
0.985355
0.985275
0.985189
0.985102
0.985014
0.984921
0.984825
0.984724
0.984618
0.984514
0.984411
0.984307
0.984203
0.984099
0.983996
0.983894
0.983793
0.983692
0.983594
0.983496
0.9834
0.983306
0.983213
0.983121
0.98303
0.98294
0.982851
0.982763
0.982676
0.982591
0.982509
0.98243
0.982355
0.982286
0.982222
0.982161
0.982105
0.982054
0.982008
0.981967
0.98193
0.981897
0.981868
0.981844
0.981837
0.981937
0.982157
0.982342
0.982494
0.98262
0.982724
0.982807
0.982869
0.9829
0.982888
0.982843
0.999265
0.998581
0.99797
0.997416
0.996911
0.996449
0.996024
0.995632
0.995268
0.994919
0.994287
0.993611
0.992925
0.992245
0.99158
0.990935
0.990317
0.989731
0.989181
0.988673
0.988209
0.987791
0.987422
0.987102
0.986828
0.986597
0.986405
0.986247
0.986117
0.986009
0.985918
0.985838
0.985764
0.985693
0.98562
0.985541
0.985455
0.985368
0.98528
0.985188
0.985092
0.984991
0.984884
0.984779
0.984677
0.984574
0.984471
0.984369
0.984267
0.984167
0.984069
0.983973
0.983879
0.983788
0.983699
0.983613
0.98353
0.983449
0.983371
0.983296
0.983223
0.983154
0.983093
0.983037
0.982987
0.982943
0.982905
0.982875
0.982851
0.982834
0.982821
0.982813
0.982809
0.98281
0.982814
0.982821
0.982829
0.982841
0.982865
0.982988
0.983226
0.983425
0.98359
0.983726
0.983837
0.983925
0.98399
0.984023
0.983983
0.983873
0.999276
0.998602
0.998
0.997454
0.996957
0.996502
0.996083
0.995697
0.995339
0.994996
0.994376
0.993713
0.99304
0.992373
0.99172
0.991087
0.99048
0.989905
0.989366
0.988867
0.988412
0.988003
0.987641
0.987327
0.987059
0.986834
0.986646
0.986491
0.986363
0.986256
0.986166
0.986087
0.986015
0.985945
0.985872
0.985793
0.985706
0.985617
0.985527
0.985433
0.985335
0.985231
0.98512
0.985012
0.984907
0.984802
0.984696
0.984591
0.984487
0.984384
0.984285
0.984188
0.984094
0.984003
0.983915
0.983829
0.983747
0.983667
0.98359
0.983517
0.983446
0.983378
0.983313
0.983251
0.983194
0.983143
0.983101
0.983067
0.983041
0.983021
0.983007
0.982999
0.982996
0.982996
0.983
0.983006
0.983013
0.983023
0.983045
0.983165
0.983393
0.983581
0.983735
0.983859
0.983959
0.984036
0.98409
0.984113
0.984066
0.983977
0.999287
0.998623
0.99803
0.997492
0.997003
0.996554
0.996142
0.995763
0.99541
0.995072
0.994465
0.993814
0.993155
0.9925
0.991859
0.991238
0.990643
0.990079
0.98955
0.989061
0.988615
0.988214
0.98786
0.987553
0.987291
0.987071
0.986888
0.986736
0.986609
0.986502
0.986411
0.986331
0.986257
0.986186
0.986113
0.986032
0.985941
0.985849
0.985756
0.985658
0.985555
0.985446
0.985328
0.985214
0.985103
0.984992
0.98488
0.984768
0.984658
0.98455
0.984445
0.984345
0.984248
0.984154
0.984062
0.983973
0.983887
0.983803
0.983722
0.983644
0.983569
0.983496
0.983426
0.983359
0.983297
0.983238
0.983185
0.983137
0.983095
0.983057
0.983026
0.982998
0.982975
0.982956
0.982939
0.982925
0.982912
0.982906
0.982913
0.983018
0.983224
0.983391
0.983523
0.983626
0.983706
0.983764
0.9838
0.983808
0.983782
0.983727
0.999298
0.998644
0.998059
0.99753
0.997048
0.996606
0.996201
0.995827
0.99548
0.995148
0.994553
0.993915
0.993267
0.992625
0.991996
0.991386
0.990803
0.99025
0.989733
0.989255
0.988819
0.988427
0.988082
0.987783
0.987529
0.987316
0.987138
0.986991
0.986866
0.98676
0.986667
0.986585
0.986509
0.986435
0.98636
0.986277
0.986184
0.986088
0.985992
0.98589
0.985782
0.985666
0.98554
0.985417
0.985298
0.985177
0.985057
0.984937
0.984818
0.984704
0.984594
0.984489
0.984389
0.984291
0.984196
0.984102
0.984011
0.983922
0.983834
0.983749
0.983665
0.983584
0.983504
0.983426
0.983351
0.983279
0.983211
0.983147
0.983088
0.983034
0.982984
0.982938
0.982896
0.982857
0.982821
0.982785
0.98275
0.982711
0.982668
0.982639
0.982739
0.982825
0.982894
0.982958
0.983024
0.983089
0.983148
0.983199
0.983227
0.983213
0.999308
0.998664
0.998088
0.997567
0.997092
0.996658
0.996259
0.995891
0.99555
0.995224
0.99464
0.994014
0.993379
0.992748
0.992132
0.991535
0.990964
0.990426
0.989923
0.989462
0.989044
0.988672
0.988348
0.988069
0.987836
0.987642
0.987483
0.98735
0.987237
0.987138
0.98705
0.986969
0.986894
0.986821
0.986746
0.986664
0.986571
0.986474
0.986374
0.986264
0.986146
0.986017
0.985875
0.985734
0.985594
0.985453
0.985313
0.985176
0.985044
0.984921
0.984808
0.984703
0.984604
0.984509
0.984417
0.984326
0.984235
0.984145
0.984055
0.983965
0.983875
0.983786
0.983699
0.983613
0.98353
0.983449
0.983372
0.9833
0.983231
0.983168
0.983108
0.983053
0.983001
0.982953
0.982908
0.982865
0.982823
0.98278
0.982734
0.982694
0.982726
0.982808
0.982915
0.98303
0.983142
0.983246
0.98334
0.983421
0.983476
0.983486
0.999319
0.998684
0.998117
0.997604
0.997136
0.996709
0.996316
0.995955
0.995619
0.995298
0.994722
0.994103
0.993477
0.99286
0.992264
0.991698
0.991171
0.990688
0.990255
0.989872
0.98954
0.989257
0.989019
0.98882
0.988656
0.98852
0.988406
0.988308
0.988218
0.988132
0.988049
0.987968
0.987888
0.987809
0.987728
0.98764
0.987539
0.987431
0.987314
0.987183
0.987037
0.986874
0.986692
0.986501
0.986303
0.986094
0.985877
0.985659
0.985445
0.985243
0.985057
0.984895
0.98476
0.984649
0.984559
0.984487
0.984428
0.984378
0.984342
0.984314
0.984293
0.984275
0.984258
0.98424
0.98422
0.984198
0.984176
0.984152
0.98413
0.984108
0.984088
0.984069
0.984053
0.98404
0.984029
0.984021
0.984014
0.984008
0.984001
0.984007
0.98416
0.984309
0.984445
0.984566
0.984672
0.984761
0.984836
0.9849
0.984939
0.984933
0.999329
0.998704
0.998146
0.997641
0.99718
0.996759
0.996373
0.996018
0.995689
0.995383
0.995093
0.994814
0.994545
0.994283
0.994028
0.99378
0.99354
0.993306
0.993081
0.992862
0.99265
0.992443
0.992243
0.992048
0.99186
0.991679
0.991505
0.991336
0.991172
0.991012
0.990854
0.990701
0.990552
0.990407
0.990267
0.990129
0.989989
0.989849
0.989707
0.989564
0.989419
0.989275
0.989131
0.988988
0.988846
0.988702
0.988557
0.988411
0.988267
0.988128
0.987999
0.987874
0.987751
0.987631
0.987515
0.987408
0.987309
0.987221
0.987138
0.987061
0.986988
0.986921
0.986859
0.986803
0.986754
0.986714
0.986686
0.986667
0.986658
0.986656
0.986662
0.986674
0.986691
0.986714
0.98674
0.98677
0.986802
0.986835
0.986867
0.986901
0.986939
0.986974
0.987002
0.987022
0.987033
0.987034
0.987022
0.986992
0.986916
0.986776
0.999339
0.998724
0.998175
0.997677
0.997224
0.99681
0.99643
0.996081
0.995757
0.995456
0.995173
0.994904
0.994647
0.994399
0.99416
0.993929
0.993706
0.993491
0.993282
0.99308
0.992884
0.992693
0.992505
0.992322
0.992143
0.991969
0.991801
0.991637
0.991478
0.99132
0.991165
0.991012
0.990862
0.990716
0.990573
0.990431
0.990287
0.990141
0.98999
0.989838
0.989687
0.989539
0.989397
0.989259
0.989125
0.988994
0.988867
0.988744
0.988628
0.988518
0.988412
0.988312
0.988215
0.988123
0.988035
0.987952
0.987874
0.987803
0.987738
0.98768
0.98763
0.987588
0.987554
0.98753
0.987515
0.987507
0.987505
0.987508
0.987517
0.987532
0.987551
0.987575
0.987601
0.987627
0.987653
0.987677
0.987699
0.987717
0.98773
0.987737
0.987737
0.987727
0.987708
0.987677
0.987637
0.987586
0.987525
0.987449
0.987332
0.987163
0.99935
0.998744
0.998203
0.997713
0.997267
0.99686
0.996487
0.996143
0.995826
0.99553
0.995252
0.994989
0.994737
0.994495
0.994262
0.994036
0.993818
0.993608
0.993404
0.993207
0.993015
0.992828
0.992643
0.992462
0.992284
0.99211
0.991941
0.991777
0.991617
0.991458
0.991302
0.991147
0.990994
0.990845
0.990699
0.990552
0.9904
0.990244
0.990081
0.989917
0.989754
0.989596
0.989448
0.989305
0.989167
0.989029
0.98889
0.988751
0.988615
0.988484
0.988356
0.988231
0.98811
0.987992
0.987878
0.987768
0.987661
0.98756
0.987462
0.987369
0.98728
0.987199
0.987126
0.98706
0.987002
0.986952
0.986909
0.986872
0.986843
0.986819
0.986801
0.986788
0.986779
0.986775
0.986774
0.986776
0.986777
0.986776
0.986771
0.98676
0.986743
0.986718
0.986686
0.986646
0.9866
0.986548
0.986489
0.986423
0.986351
0.986266
0.99936
0.998764
0.998232
0.99775
0.997311
0.99691
0.996543
0.996205
0.995894
0.995603
0.99533
0.995072
0.994825
0.994587
0.994358
0.994136
0.993922
0.993715
0.993516
0.993322
0.993134
0.99295
0.99277
0.992591
0.992416
0.992245
0.992077
0.991915
0.991757
0.991601
0.991447
0.991294
0.991143
0.990995
0.990848
0.990699
0.990541
0.990379
0.990208
0.990035
0.989868
0.98971
0.989567
0.989432
0.989305
0.989177
0.989046
0.988914
0.988783
0.988654
0.988526
0.988399
0.988274
0.988151
0.98803
0.987911
0.987796
0.987684
0.987575
0.987471
0.987371
0.987275
0.987185
0.987099
0.98702
0.986945
0.986877
0.986815
0.986758
0.986707
0.986661
0.98662
0.986583
0.986551
0.986527
0.98651
0.986501
0.986498
0.9865
0.986505
0.986514
0.986525
0.986538
0.986554
0.986572
0.986592
0.986616
0.986642
0.986662
0.986665
0.99937
0.998784
0.99826
0.997786
0.997354
0.99696
0.996599
0.996268
0.995961
0.995676
0.995408
0.995155
0.994912
0.994679
0.994454
0.994237
0.994027
0.993824
0.993627
0.993437
0.993253
0.993073
0.992896
0.992722
0.992549
0.99238
0.992215
0.992055
0.991898
0.991744
0.991592
0.991441
0.991293
0.991147
0.991
0.990849
0.990686
0.99052
0.990349
0.990185
0.990039
0.989915
0.989815
0.989727
0.989648
0.989569
0.989483
0.989388
0.989293
0.989197
0.989101
0.989005
0.988908
0.988812
0.988716
0.988621
0.988527
0.988434
0.988344
0.988255
0.98817
0.988089
0.988012
0.987939
0.987872
0.98781
0.987754
0.987705
0.987663
0.987627
0.987603
0.987595
0.987602
0.987623
0.987652
0.987691
0.987738
0.987792
0.98785
0.98791
0.987973
0.988036
0.988099
0.988161
0.988222
0.988281
0.988338
0.988393
0.988436
0.988459
0.99938
0.998804
0.998288
0.997822
0.997398
0.99701
0.996655
0.99633
0.996029
0.995749
0.995486
0.995237
0.994999
0.99477
0.99455
0.994336
0.994129
0.993929
0.993736
0.993549
0.993368
0.993191
0.993018
0.992847
0.992678
0.992512
0.992349
0.99219
0.992036
0.991884
0.991733
0.991585
0.991438
0.991294
0.991148
0.990996
0.990831
0.990673
0.990533
0.99044
0.990408
0.990424
0.990477
0.99054
0.99061
0.990674
0.990725
0.990762
0.990776
0.990776
0.990764
0.99074
0.990703
0.990656
0.990598
0.990532
0.990459
0.990381
0.9903
0.990218
0.990137
0.990058
0.989984
0.989915
0.989853
0.989798
0.989752
0.989717
0.989699
0.989698
0.98971
0.989729
0.989755
0.989789
0.98983
0.989877
0.989928
0.989983
0.99004
0.990101
0.990164
0.990225
0.990282
0.990334
0.99038
0.99042
0.990453
0.990478
0.990482
0.990457
0.99939
0.998823
0.998316
0.997858
0.99744
0.997059
0.996711
0.99639
0.996095
0.99582
0.995562
0.995317
0.995084
0.994859
0.994643
0.994433
0.99423
0.994033
0.993843
0.993659
0.99348
0.993306
0.993136
0.992969
0.992804
0.992641
0.992481
0.992324
0.992171
0.99202
0.991871
0.991723
0.991577
0.991433
0.991288
0.991135
0.990972
0.990868
0.990921
0.991114
0.991397
0.991702
0.991985
0.992227
0.992432
0.992592
0.992708
0.992788
0.992836
0.99285
0.992834
0.992794
0.992739
0.99267
0.992592
0.992508
0.992419
0.99233
0.992241
0.992155
0.992074
0.991999
0.991931
0.991871
0.99182
0.991779
0.99175
0.991733
0.991724
0.991725
0.991737
0.991759
0.991788
0.991822
0.991859
0.991898
0.991936
0.991973
0.992005
0.992032
0.992052
0.992064
0.99207
0.992069
0.992061
0.992048
0.992029
0.992005
0.991965
0.991905
0.9994
0.998842
0.998343
0.997892
0.997481
0.997106
0.996763
0.996449
0.996158
0.995888
0.995635
0.995394
0.995165
0.994944
0.994732
0.994526
0.994326
0.994132
0.993944
0.993762
0.993586
0.993414
0.993247
0.993083
0.992921
0.992761
0.992604
0.992449
0.992298
0.992148
0.991998
0.99185
0.991703
0.991557
0.991409
0.991254
0.991098
0.991168
0.991677
0.992375
0.992986
0.99342
0.993755
0.993969
0.994105
0.994177
0.994201
0.994191
0.994159
0.994113
0.994056
0.99399
0.993917
0.993841
0.993765
0.99369
0.993618
0.99355
0.993487
0.993431
0.993383
0.993346
0.993318
0.993298
0.993285
0.993278
0.993274
0.993273
0.993274
0.993279
0.993285
0.993293
0.993301
0.993309
0.993315
0.993321
0.993323
0.993322
0.993317
0.993304
0.993286
0.99326
0.993229
0.993191
0.993148
0.993102
0.993052
0.992998
0.992933
0.992852
0.999409
0.998859
0.998367
0.997922
0.997518
0.997149
0.996811
0.996501
0.996216
0.99595
0.995701
0.995464
0.995239
0.995022
0.994812
0.994609
0.994413
0.994222
0.994036
0.993856
0.993681
0.993511
0.993345
0.993183
0.993024
0.992866
0.992711
0.992558
0.992406
0.992255
0.992105
0.991955
0.991804
0.991652
0.991497
0.991336
0.991242
0.991627
0.993011
0.994065
0.994712
0.995055
0.995185
0.995213
0.995193
0.995137
0.99506
0.994974
0.994887
0.994804
0.994728
0.994657
0.994593
0.994533
0.994481
0.994439
0.99441
0.99439
0.994376
0.994366
0.994358
0.994353
0.994348
0.994344
0.994341
0.994338
0.994336
0.994332
0.994326
0.994318
0.994309
0.994298
0.994287
0.994274
0.99426
0.994243
0.994224
0.9942
0.994171
0.994137
0.994096
0.994049
0.993996
0.993938
0.993875
0.99381
0.993742
0.993673
0.993593
0.993501
0.999416
0.998873
0.998388
0.997948
0.997549
0.997185
0.996852
0.996546
0.996264
0.996002
0.995756
0.995523
0.9953
0.995086
0.994879
0.994679
0.994485
0.994295
0.994111
0.993932
0.993758
0.993589
0.993425
0.993263
0.993105
0.992948
0.992791
0.992636
0.992481
0.992328
0.992174
0.99202
0.991864
0.991703
0.991537
0.991367
0.991266
0.99167
0.993343
0.994626
0.995472
0.995968
0.995976
0.99592
0.99584
0.995735
0.995621
0.995506
0.995397
0.995298
0.995212
0.995138
0.995077
0.995038
0.995014
0.995001
0.994996
0.994997
0.995001
0.995006
0.99501
0.995014
0.995016
0.995017
0.995015
0.995011
0.995005
0.994997
0.994987
0.994975
0.994962
0.994946
0.994926
0.994904
0.994879
0.99485
0.994818
0.994781
0.994739
0.994692
0.994638
0.994578
0.994513
0.994444
0.99437
0.994294
0.994216
0.994137
0.994049
0.993951
0.999422
0.998884
0.998403
0.997968
0.997572
0.997212
0.996882
0.996579
0.9963
0.99604
0.995797
0.995566
0.995345
0.995133
0.994928
0.994729
0.994536
0.994349
0.994166
0.993987
0.993813
0.993644
0.993479
0.993317
0.993157
0.992997
0.992835
0.992672
0.99251
0.992349
0.992191
0.992032
0.99187
0.991702
0.991528
0.991354
0.991236
0.991616
0.993448
0.9949
0.995906
0.996545
0.996446
0.99631
0.996168
0.996015
0.995868
0.995729
0.995601
0.995488
0.99539
0.995307
0.995245
0.995204
0.995182
0.995176
0.995183
0.9952
0.995223
0.995248
0.995273
0.995296
0.995315
0.99533
0.99534
0.995346
0.995347
0.995345
0.995338
0.995327
0.995313
0.995296
0.995276
0.995252
0.995225
0.995195
0.995161
0.995122
0.995078
0.995027
0.994969
0.994905
0.994835
0.99476
0.994681
0.9946
0.994518
0.994434
0.994342
0.994241
0.999425
0.998891
0.998413
0.99798
0.997587
0.997229
0.996901
0.9966
0.996322
0.996064
0.995822
0.995592
0.995373
0.995161
0.994957
0.994759
0.994566
0.994379
0.994196
0.994017
0.993843
0.993673
0.993506
0.993342
0.993177
0.99301
0.992836
0.992662
0.992488
0.992317
0.992153
0.991991
0.991829
0.991663
0.991502
0.991354
0.991224
0.991524
0.993306
0.994782
0.995832
0.99652
0.996362
0.996161
0.995963
0.995774
0.99561
0.995467
0.995344
0.995235
0.995137
0.995052
0.994981
0.994931
0.994905
0.994902
0.994921
0.994959
0.995011
0.995071
0.995133
0.995193
0.995248
0.995296
0.995336
0.995368
0.995392
0.995408
0.995417
0.99542
0.995416
0.995408
0.995394
0.995376
0.995353
0.995325
0.995293
0.995256
0.995213
0.995162
0.995105
0.995042
0.994973
0.994898
0.99482
0.994739
0.994657
0.994574
0.994482
0.994381
0.999427
0.998894
0.998417
0.997986
0.997594
0.997236
0.996909
0.996609
0.996333
0.996075
0.995833
0.995604
0.995384
0.995173
0.994968
0.99477
0.994577
0.994389
0.994206
0.994026
0.993851
0.993679
0.99351
0.99334
0.993167
0.992989
0.992801
0.992612
0.992424
0.992244
0.992079
0.991924
0.99178
0.991655
0.991564
0.991516
0.991418
0.991315
0.991936
0.992713
0.993551
0.994272
0.994319
0.994341
0.994341
0.994319
0.994293
0.994266
0.994234
0.994197
0.994163
0.994136
0.994115
0.994102
0.994101
0.994114
0.994145
0.994205
0.994297
0.994407
0.994528
0.994651
0.994768
0.994875
0.99497
0.99505
0.995117
0.99517
0.995212
0.995242
0.995263
0.995276
0.99528
0.995277
0.995268
0.995252
0.995231
0.995202
0.995166
0.995123
0.995071
0.995013
0.994948
0.994877
0.994802
0.994723
0.994644
0.994563
0.994473
0.994375
0.999427
0.998894
0.998418
0.997987
0.997595
0.997238
0.996911
0.996611
0.996334
0.996077
0.995835
0.995606
0.995386
0.995174
0.994969
0.99477
0.994577
0.994388
0.994203
0.994023
0.993846
0.993672
0.993499
0.993323
0.993139
0.992948
0.992745
0.992542
0.992344
0.992164
0.992015
0.991899
0.991826
0.991817
0.991889
0.992017
0.99197
0.991847
0.992275
0.992663
0.993037
0.993375
0.993105
0.992868
0.9927
0.992578
0.992503
0.992459
0.992441
0.992456
0.992505
0.992581
0.992674
0.992776
0.99288
0.992985
0.993091
0.993204
0.99333
0.993466
0.993611
0.993765
0.993929
0.994091
0.994244
0.994382
0.994503
0.994607
0.994694
0.994766
0.994824
0.99487
0.994904
0.994928
0.994943
0.994949
0.994947
0.994936
0.994916
0.994887
0.994849
0.994802
0.994747
0.994686
0.994619
0.994549
0.994477
0.994402
0.994319
0.994226
0.999426
0.998893
0.998416
0.997985
0.997593
0.997235
0.996908
0.996608
0.996331
0.996073
0.995832
0.995602
0.995382
0.99517
0.994965
0.994766
0.994572
0.994383
0.994197
0.994016
0.993838
0.993663
0.993487
0.993303
0.993108
0.992906
0.992693
0.992484
0.992295
0.992146
0.992058
0.992039
0.992108
0.992282
0.99255
0.992788
0.992673
0.992475
0.992955
0.993393
0.993764
0.994062
0.99362
0.993202
0.992852
0.992561
0.992331
0.992161
0.992062
0.992004
0.991962
0.99196
0.991998
0.992059
0.992132
0.992211
0.992294
0.992383
0.99249
0.992608
0.992737
0.992875
0.993022
0.993175
0.993328
0.993474
0.993612
0.99374
0.993856
0.993961
0.994055
0.994143
0.99422
0.994286
0.99434
0.994382
0.994412
0.994431
0.994439
0.994434
0.994419
0.994393
0.994357
0.994314
0.994263
0.994208
0.99415
0.994088
0.994016
0.993933
0.999426
0.998892
0.998414
0.997982
0.997589
0.997231
0.996903
0.996603
0.996325
0.996068
0.995825
0.995596
0.995376
0.995163
0.994958
0.994759
0.994565
0.994375
0.994189
0.994008
0.993829
0.993654
0.993475
0.993287
0.993084
0.992879
0.992668
0.992485
0.992361
0.992316
0.99237
0.992511
0.992744
0.993059
0.993394
0.993509
0.993142
0.992674
0.993258
0.99379
0.994199
0.994434
0.993203
0.992055
0.991508
0.991193
0.99096
0.991904
0.993234
0.993633
0.993758
0.993718
0.993657
0.993633
0.993645
0.99369
0.993743
0.993791
0.993832
0.993856
0.993867
0.993868
0.993857
0.99384
0.993821
0.993804
0.993791
0.993782
0.993779
0.993781
0.993789
0.993802
0.993819
0.993839
0.993862
0.993885
0.993905
0.993922
0.993933
0.993936
0.99393
0.993916
0.993896
0.993869
0.993836
0.993797
0.993755
0.99371
0.993652
0.993583
0.999425
0.998891
0.998413
0.99798
0.997587
0.997228
0.9969
0.996599
0.996322
0.996063
0.99582
0.99559
0.995369
0.995157
0.994951
0.994751
0.994556
0.994366
0.99418
0.993997
0.993819
0.993642
0.993463
0.993274
0.993072
0.992883
0.992758
0.992722
0.992792
0.992949
0.993165
0.99341
0.993671
0.993921
0.994081
0.99387
0.992492
0.993384