/*--------------------------------*- C++ -*----------------------------------*\
| =========                 |                                                 |
| \\      /  F ield         | OpenFOAM: The Open Source CFD Toolbox           |
|  \\    /   O peration     | Version:  v2012                                 |
|   \\  /    A nd           | Website:  www.openfoam.com                      |
|    \\/     M anipulation  |                                                 |
\*---------------------------------------------------------------------------*/
FoamFile
{
    version     2.0;
    format      ascii;
    class       volScalarField;
    location    "200/air";
    object      TLeaf;
}
// * * * * * * * * * * * * * * * * * * * * * * * * * * * * * * * * * * * * * //

dimensions      [0 0 0 1 0 0 0];


internalField   nonuniform List<scalar> 
287104
(
310.3
310.579
310.829
311.055
311.262
311.452
311.627
311.789
311.94
312.081
312.215
312.341
312.463
312.579
312.691
312.8
312.905
313.008
313.107
313.204
313.298
313.391
313.481
313.569
313.656
313.741
313.824
313.906
313.986
314.066
314.143
314.22
314.295
314.37
314.443
314.515
314.587
314.657
314.727
314.795
314.863
314.931
314.997
315.063
315.128
315.193
315.257
315.32
315.383
315.446
315.508
315.57
315.632
315.694
315.755
315.816
315.878
315.939
316
316.061
316.122
316.182
316.241
316.3
316.357
316.413
316.468
316.521
316.572
316.621
316.668
316.714
316.757
316.799
316.838
316.875
316.911
316.945
316.979
317.012
317.045
317.078
317.111
317.144
317.178
317.211
317.245
317.28
317.318
317.366
310.296
310.571
310.817
311.04
311.244
311.431
311.603
311.762
311.91
312.049
312.18
312.304
312.422
312.536
312.646
312.753
312.855
312.955
313.052
313.147
313.239
313.329
313.417
313.503
313.587
313.67
313.751
313.831
313.909
313.985
314.061
314.135
314.208
314.281
314.352
314.422
314.491
314.559
314.626
314.693
314.759
314.824
314.888
314.952
315.015
315.078
315.14
315.201
315.262
315.323
315.383
315.443
315.503
315.563
315.622
315.681
315.74
315.8
315.859
315.917
315.976
316.034
316.091
316.147
316.203
316.256
316.309
316.36
316.409
316.456
316.501
316.544
316.585
316.624
316.662
316.697
316.731
316.764
316.795
316.827
316.858
316.89
316.922
316.954
316.987
317.02
317.053
317.087
317.125
317.174
310.291
310.563
310.806
311.025
311.226
311.41
311.58
311.737
311.882
312.019
312.147
312.269
312.386
312.498
312.606
312.71
312.811
312.909
313.004
313.097
313.188
313.276
313.362
313.446
313.529
313.61
313.689
313.767
313.843
313.918
313.992
314.065
314.136
314.207
314.276
314.344
314.411
314.478
314.543
314.608
314.672
314.735
314.798
314.86
314.921
314.982
315.042
315.101
315.16
315.219
315.277
315.335
315.393
315.45
315.507
315.564
315.621
315.678
315.734
315.791
315.846
315.902
315.956
316.009
316.062
316.112
316.162
316.209
316.255
316.299
316.34
316.38
316.418
316.453
316.487
316.519
316.549
316.578
316.606
316.634
316.662
316.69
316.718
316.747
316.776
316.805
316.835
316.865
316.9
316.944
310.287
310.555
310.794
311.011
311.209
311.39
311.557
311.712
311.855
311.989
312.116
312.236
312.351
312.461
312.567
312.67
312.769
312.865
312.959
313.05
313.139
313.226
313.311
313.394
313.475
313.554
313.632
313.709
313.784
313.857
313.93
314.001
314.071
314.14
314.208
314.275
314.341
314.406
314.471
314.534
314.597
314.659
314.72
314.78
314.84
314.9
314.959
315.017
315.075
315.133
315.19
315.246
315.303
315.359
315.415
315.47
315.526
315.581
315.636
315.691
315.745
315.799
315.852
315.903
315.954
316.003
316.051
316.097
316.141
316.183
316.224
316.262
316.298
316.332
316.364
316.394
316.422
316.449
316.475
316.501
316.527
316.552
316.578
316.604
316.631
316.657
316.684
316.711
316.741
316.782
310.283
310.547
310.783
310.996
311.191
311.37
311.535
311.687
311.828
311.96
312.085
312.203
312.316
312.424
312.529
312.63
312.727
312.822
312.914
313.004
313.091
313.177
313.26
313.342
313.421
313.5
313.576
313.651
313.725
313.797
313.868
313.938
314.007
314.075
314.141
314.207
314.272
314.336
314.398
314.461
314.522
314.583
314.642
314.702
314.76
314.818
314.876
314.933
314.989
315.045
315.101
315.156
315.211
315.266
315.32
315.374
315.428
315.482
315.535
315.588
315.641
315.693
315.744
315.795
315.844
315.892
315.938
315.982
316.025
316.065
316.104
316.14
316.175
316.207
316.237
316.266
316.292
316.317
316.342
316.365
316.389
316.412
316.436
316.459
316.483
316.506
316.529
316.553
316.581
316.617
310.279
310.539
310.772
310.982
311.174
311.351
311.513
311.662
311.802
311.932
312.054
312.17
312.281
312.388
312.491
312.59
312.686
312.78
312.87
312.959
313.045
313.129
313.211
313.291
313.369
313.446
313.521
313.595
313.667
313.738
313.808
313.877
313.944
314.011
314.076
314.14
314.204
314.266
314.328
314.388
314.448
314.507
314.566
314.623
314.68
314.737
314.793
314.848
314.903
314.957
315.011
315.065
315.118
315.171
315.223
315.275
315.327
315.379
315.43
315.481
315.532
315.581
315.631
315.679
315.726
315.771
315.815
315.857
315.897
315.935
315.971
316.005
316.036
316.066
316.092
316.117
316.14
316.161
316.18
316.2
316.218
316.237
316.256
316.275
316.294
316.313
316.333
316.353
316.377
316.41
310.275
310.532
310.761
310.968
311.158
311.331
311.491
311.638
311.775
311.903
312.024
312.138
312.248
312.353
312.454
312.552
312.647
312.739
312.828
312.915
313
313.082
313.163
313.242
313.319
313.395
313.469
313.541
313.612
313.682
313.75
313.817
313.883
313.947
314.011
314.074
314.135
314.196
314.255
314.314
314.371
314.428
314.484
314.539
314.594
314.647
314.7
314.753
314.805
314.856
314.907
314.958
315.008
315.058
315.107
315.156
315.204
315.252
315.3
315.347
315.394
315.44
315.485
315.528
315.57
315.611
315.649
315.684
315.715
315.743
315.768
315.79
315.808
315.824
315.838
315.849
315.859
315.868
315.876
315.885
315.894
315.904
315.915
315.927
315.941
315.957
315.975
315.996
316.02
316.054
310.271
310.524
310.75
310.954
311.141
311.312
311.469
311.615
311.749
311.875
311.994
312.107
312.214
312.318
312.418
312.514
312.608
312.698
312.786
312.872
312.956
313.038
313.117
313.195
313.271
313.345
313.418
313.489
313.559
313.627
313.693
313.758
313.822
313.884
313.945
314.005
314.063
314.119
314.173
314.225
314.276
314.326
314.375
314.422
314.468
314.513
314.557
314.6
314.642
314.683
314.723
314.762
314.8
314.837
314.872
314.907
314.941
314.973
315.005
315.035
315.064
315.091
315.116
315.139
315.16
315.179
315.196
315.209
315.221
315.23
315.237
315.241
315.244
315.245
315.244
315.242
315.239
315.236
315.233
315.23
315.229
315.229
315.231
315.234
315.24
315.247
315.258
315.274
315.308
315.366
310.267
310.516
310.739
310.941
311.125
311.293
311.448
311.591
311.724
311.848
311.965
312.076
312.183
312.286
312.386
312.483
312.578
312.67
312.76
312.847
312.933
313.016
313.097
313.176
313.253
313.327
313.399
313.467
313.533
313.596
313.656
313.713
313.769
313.821
313.872
313.92
313.966
314.01
314.051
314.091
314.128
314.164
314.198
314.23
314.261
314.29
314.317
314.343
314.367
314.391
314.413
314.434
314.454
314.474
314.492
314.509
314.525
314.54
314.553
314.566
314.577
314.586
314.594
314.601
314.605
314.607
314.607
314.605
314.6
314.594
314.586
314.576
314.564
314.551
314.537
314.522
314.506
314.491
314.476
314.461
314.448
314.437
314.427
314.419
314.414
314.41
314.409
314.412
314.428
314.463
310.264
310.509
310.728
310.927
311.108
311.274
311.427
311.568
311.699
311.821
311.94
312.058
312.177
312.297
312.416
312.534
312.65
312.764
312.874
312.981
313.084
313.184
313.279
313.371
313.458
313.542
313.621
313.695
313.765
313.832
313.895
313.955
314.012
314.066
314.117
314.167
314.216
314.264
314.31
314.354
314.396
314.435
314.472
314.506
314.538
314.568
314.596
314.623
314.647
314.671
314.692
314.712
314.73
314.747
314.762
314.776
314.788
314.798
314.807
314.814
314.82
314.823
314.825
314.825
314.823
314.819
314.813
314.805
314.795
314.783
314.769
314.754
314.737
314.72
314.702
314.683
314.665
314.646
314.628
314.609
314.587
314.565
314.545
314.526
314.51
314.498
314.489
314.487
314.499
314.534
310.26
310.502
310.718
310.914
311.092
311.256
311.406
311.545
311.674
311.798
313.834
313.894
314.05
314.234
314.422
314.601
314.769
314.922
315.061
315.185
315.295
315.39
315.473
315.542
315.6
315.648
315.686
315.719
315.747
315.773
315.797
315.816
315.833
315.847
315.864
315.886
315.907
315.913
315.918
315.932
315.948
315.971
315.994
315.998
316.005
316.02
316.034
316.048
316.061
316.074
316.088
316.101
316.114
316.127
316.138
316.149
316.16
316.171
316.183
316.194
316.206
316.217
316.227
316.236
316.243
316.25
316.255
316.259
316.262
316.264
316.266
316.267
316.268
316.268
316.27
316.274
316.285
316.304
316.334
316.376
315.914
315.829
315.754
315.689
315.633
315.586
315.55
315.526
315.524
315.533
310.256
310.494
310.707
310.9
311.076
311.238
311.386
311.523
311.65
311.772
313.686
313.735
313.886
314.07
314.257
314.438
314.608
314.764
314.905
315.032
315.145
315.243
315.327
315.399
315.458
315.505
315.544
315.575
315.601
315.625
315.646
315.664
315.679
315.691
315.706
315.731
315.756
315.762
315.768
315.789
315.812
315.848
315.886
315.896
315.91
315.94
315.967
315.995
316.023
316.052
316.082
316.112
316.143
316.173
316.202
316.231
316.26
316.289
316.318
316.347
316.376
316.404
316.431
316.457
316.482
316.505
316.526
316.545
316.563
316.579
316.593
316.606
316.618
316.63
316.641
316.656
316.675
316.704
316.745
316.812
316.938
316.897
316.844
316.787
316.732
316.682
316.637
316.602
316.583
316.585
310.252
310.487
310.697
310.887
311.061
311.22
311.366
311.5
311.626
311.746
313.571
313.616
313.764
313.943
314.128
314.305
314.472
314.625
314.765
314.89
315.001
315.097
315.18
315.249
315.306
315.352
315.389
315.417
315.44
315.459
315.476
315.49
315.502
315.511
315.524
315.548
315.573
315.573
315.571
315.589
315.609
315.644
315.683
315.686
315.692
315.718
315.741
315.765
315.791
315.818
315.846
315.875
315.903
315.932
315.961
315.991
316.021
316.051
316.082
316.114
316.146
316.179
316.213
316.247
316.279
316.311
316.342
316.371
316.398
316.424
316.447
316.469
316.488
316.507
316.525
316.544
316.569
316.603
316.65
316.722
316.878
316.863
316.836
316.804
316.771
316.738
316.708
316.683
316.667
316.67
310.249
310.48
310.687
310.874
311.045
311.202
311.345
311.478
311.601
311.72
313.46
313.503
313.647
313.823
314.003
314.177
314.341
314.491
314.628
314.751
314.86
314.955
315.036
315.104
315.16
315.206
315.242
315.27
315.292
315.309
315.323
315.335
315.345
315.353
315.365
315.392
315.42
315.416
315.408
315.425
315.444
315.48
315.523
315.52
315.52
315.544
315.565
315.588
315.612
315.637
315.662
315.686
315.71
315.733
315.757
315.78
315.803
315.825
315.848
315.871
315.894
315.918
315.942
315.966
315.988
316.009
316.028
316.045
316.059
316.071
316.082
316.09
316.096
316.101
316.105
316.11
316.121
316.141
316.171
316.21
315.948
315.886
315.835
315.793
315.759
315.731
315.71
315.7
315.704
315.719
310.245
310.473
310.677
310.861
311.03
311.184
311.325
311.456
311.577
311.694
313.349
313.39
313.531
313.704
313.88
314.051
314.211
314.359
314.493
314.614
314.721
314.814
314.893
314.959
315.014
315.06
315.097
315.126
315.148
315.164
315.176
315.184
315.192
315.199
315.212
315.242
315.274
315.266
315.253
315.27
315.289
315.327
315.376
315.368
315.362
315.387
315.409
315.433
315.458
315.484
315.508
315.53
315.552
315.574
315.596
315.617
315.639
315.659
315.679
315.7
315.72
315.741
315.762
315.781
315.799
315.814
315.827
315.837
315.844
315.848
315.851
315.851
315.848
315.844
315.839
315.837
315.841
315.856
315.881
315.918
315.591
315.525
315.47
315.425
315.388
315.358
315.337
315.326
315.339
315.376
310.241
310.466
310.667
310.849
311.014
311.166
311.306
311.434
311.554
311.668
313.239
313.279
313.417
313.585
313.758
313.926
314.083
314.227
314.359
314.477
314.582
314.674
314.751
314.816
314.87
314.914
314.952
314.983
315.008
315.025
315.034
315.039
315.043
315.048
315.06
315.093
315.13
315.119
315.101
315.118
315.137
315.178
315.233
315.223
315.213
315.239
315.263
315.29
315.318
315.345
315.368
315.388
315.408
315.429
315.451
315.473
315.494
315.514
315.535
315.556
315.577
315.599
315.62
315.641
315.66
315.676
315.688
315.698
315.705
315.708
315.708
315.706
315.7
315.694
315.687
315.684
315.688
315.704
315.732
315.772
315.536
315.473
315.422
315.38
315.347
315.321
315.303
315.296
315.311
315.341
310.238
310.459
310.657
310.836
310.999
311.149
311.286
311.412
311.53
311.643
313.131
313.168
313.303
313.468
313.638
313.802
313.956
314.097
314.227
314.343
314.445
314.535
314.611
314.674
314.725
314.769
314.806
314.84
314.868
314.888
314.898
314.9
314.9
314.901
314.911
314.945
314.985
314.973
314.948
314.965
314.984
315.028
315.091
315.081
315.069
315.097
315.126
315.158
315.19
315.216
315.237
315.255
315.274
315.296
315.319
315.342
315.365
315.387
315.409
315.432
315.455
315.478
315.5
315.521
315.541
315.558
315.572
315.583
315.591
315.595
315.596
315.593
315.589
315.583
315.578
315.578
315.587
315.607
315.64
315.685
315.592
315.536
315.492
315.458
315.431
315.412
315.4
315.397
315.406
315.424
310.234
310.452
310.647
310.823
310.984
311.131
311.266
311.391
311.507
311.617
313.025
313.061
313.192
313.354
313.52
313.681
313.832
313.97
314.097
314.21
314.31
314.397
314.471
314.532
314.581
314.621
314.657
314.691
314.723
314.747
314.76
314.761
314.756
314.752
314.758
314.79
314.832
314.816
314.785
314.801
314.82
314.867
314.939
314.931
314.92
314.954
314.989
315.027
315.062
315.088
315.105
315.121
315.139
315.162
315.187
315.213
315.238
315.263
315.288
315.314
315.339
315.363
315.387
315.409
315.43
315.449
315.465
315.477
315.485
315.49
315.491
315.489
315.486
315.483
315.483
315.488
315.503
315.53
315.574
315.642
315.754
315.725
315.702
315.681
315.659
315.637
315.617
315.6
315.591
315.596
310.231
310.445
310.637
310.811
310.969
311.114
311.247
311.37
311.483
311.592
312.925
312.961
313.09
313.248
313.411
313.568
313.715
313.849
313.971
314.079
314.174
314.255
314.323
314.378
314.421
314.454
314.484
314.514
314.544
314.57
314.586
314.587
314.578
314.567
314.565
314.591
314.631
314.614
314.579
314.594
314.614
314.662
314.741
314.739
314.734
314.779
314.825
314.873
314.911
314.935
314.95
314.965
314.984
315.009
315.036
315.064
315.092
315.119
315.146
315.173
315.2
315.225
315.25
315.273
315.295
315.314
315.329
315.34
315.346
315.348
315.348
315.346
315.344
315.343
315.345
315.353
315.369
315.398
315.442
315.511
315.758
315.731
315.695
315.657
315.619
315.585
315.553
315.526
315.508
315.505
310.227
310.439
310.628
310.799
310.955
311.097
311.228
311.348
311.46
311.567
312.858
312.901
313.028
313.18
313.334
313.479
313.612
313.729
313.83
313.916
313.987
314.045
314.091
314.125
314.15
314.167
314.182
314.201
314.225
314.251
314.27
314.274
314.265
314.25
314.241
314.261
314.302
314.293
314.269
314.286
314.309
314.356
314.433
314.443
314.452
314.517
314.585
314.651
314.704
314.74
314.768
314.796
314.827
314.861
314.892
314.92
314.944
314.965
314.983
314.998
315.01
315.02
315.029
315.037
315.042
315.045
315.044
315.04
315.034
315.025
315.016
315.008
315
314.995
314.993
314.997
315.008
315.03
315.065
315.122
315.28
315.23
315.185
315.145
315.109
315.08
315.055
315.033
315.02
315.022
310.224
310.432
310.618
310.786
310.94
311.08
311.209
311.327
311.437
311.539
311.636
311.729
311.818
311.906
311.991
312.073
312.153
312.231
312.306
312.379
312.45
312.519
312.586
312.651
312.713
312.774
312.832
312.888
312.943
312.996
313.049
313.1
313.149
313.198
313.244
313.29
313.337
313.384
313.431
313.479
313.527
313.575
313.623
313.671
313.718
313.766
313.814
313.863
313.911
313.957
314
314.042
314.083
314.123
314.162
314.197
314.23
314.26
314.287
314.313
314.337
314.36
314.38
314.399
314.415
314.429
314.438
314.444
314.447
314.448
314.446
314.442
314.436
314.429
314.42
314.41
314.399
314.388
314.378
314.366
314.354
314.342
314.333
314.326
314.322
314.322
314.326
314.336
314.361
314.408
310.22
310.425
310.608
310.774
310.925
311.063
311.19
311.306
311.414
311.515
311.609
311.699
311.784
311.867
311.947
312.024
312.098
312.17
312.239
312.307
312.372
312.436
312.498
312.559
312.619
312.677
312.733
312.788
312.841
312.893
312.945
312.996
313.046
313.095
313.142
313.19
313.238
313.286
313.337
313.387
313.438
313.487
313.534
313.58
313.625
313.669
313.711
313.752
313.791
313.827
313.863
313.896
313.928
313.959
313.988
314.016
314.042
314.066
314.087
314.107
314.123
314.137
314.149
314.157
314.162
314.164
314.165
314.164
314.161
314.156
314.15
314.142
314.133
314.124
314.116
314.108
314.1
314.094
314.09
314.088
314.088
314.091
314.097
314.108
314.121
314.138
314.158
314.184
314.223
314.279
310.217
310.419
310.599
310.762
310.911
311.047
311.171
311.286
311.391
311.49
311.583
311.67
311.754
311.835
311.913
311.988
312.061
312.131
312.199
312.264
312.328
312.391
312.452
312.513
312.572
312.63
312.686
312.741
312.794
312.847
312.899
312.951
313.002
313.052
313.1
313.149
313.2
313.252
313.306
313.361
313.415
313.468
313.517
313.565
313.611
313.657
313.703
313.75
313.795
313.839
313.881
313.923
313.963
314.003
314.041
314.077
314.113
314.147
314.179
314.21
314.24
314.267
314.291
314.313
314.333
314.349
314.364
314.376
314.386
314.394
314.4
314.404
314.407
314.408
314.409
314.408
314.408
314.408
314.41
314.413
314.419
314.427
314.438
314.451
314.467
314.484
314.504
314.526
314.55
314.578
310.213
310.412
310.589
310.75
310.896
311.03
311.152
311.265
311.369
311.466
311.557
311.643
311.725
311.804
311.881
311.955
312.026
312.095
312.161
312.226
312.289
312.35
312.41
312.47
312.528
312.585
312.641
312.695
312.748
312.8
312.851
312.902
312.952
313.002
313.051
313.1
313.153
313.207
313.264
313.322
313.377
313.43
313.478
313.523
313.565
313.608
313.651
313.695
313.739
313.782
313.825
313.867
313.909
313.95
313.99
314.03
314.068
314.105
314.142
314.176
314.21
314.242
314.272
314.3
314.327
314.352
314.374
314.395
314.414
314.431
314.446
314.46
314.472
314.483
314.491
314.497
314.5
314.501
314.5
314.498
314.495
314.492
314.487
314.482
314.476
314.469
314.461
314.453
314.446
314.445
310.21
310.405
310.58
310.738
310.882
311.013
311.134
311.244
311.346
311.441
311.531
311.615
311.696
311.774
311.849
311.921
311.991
312.059
312.124
312.188
312.249
312.309
312.368
312.426
312.484
312.54
312.595
312.648
312.701
312.752
312.803
312.853
312.902
312.951
313
313.05
313.105
313.16
313.217
313.272
313.32
313.362
313.395
313.424
313.451
313.477
313.506
313.537
313.569
313.601
313.633
313.665
313.697
313.729
313.761
313.793
313.824
313.855
313.885
313.915
313.943
313.97
313.996
314.02
314.043
314.063
314.082
314.098
314.112
314.124
314.132
314.135
314.133
314.126
314.116
314.103
314.087
314.069
314.05
314.03
314.009
313.988
313.967
313.946
313.926
313.906
313.887
313.869
313.855
313.847
310.207
310.399
310.571
310.726
310.867
310.997
311.115
311.223
311.324
311.417
311.505
311.588
311.667
311.743
311.817
311.888
311.957
312.024
312.088
312.15
312.211
312.27
312.327
312.384
312.441
312.496
312.55
312.603
312.655
312.705
312.756
312.805
312.854
312.902
312.951
313.001
313.056
313.109
313.156
313.187
313.197
313.192
313.174
313.153
313.13
313.109
313.092
313.079
313.075
313.075
313.079
313.087
313.099
313.115
313.134
313.156
313.18
313.206
313.233
313.261
313.288
313.314
313.339
313.362
313.382
313.401
313.416
313.428
313.434
313.434
313.43
313.424
313.415
313.404
313.39
313.374
313.357
313.339
313.32
313.3
313.279
313.258
313.239
313.222
313.207
313.193
313.182
313.174
313.173
313.181
310.203
310.392
310.561
310.714
310.853
310.98
311.096
311.203
311.302
311.393
311.479
311.561
311.639
311.714
311.786
311.856
311.923
311.989
312.052
312.114
312.173
312.231
312.288
312.344
312.399
312.453
312.506
312.559
312.61
312.66
312.71
312.759
312.808
312.856
312.904
312.955
313.009
313.044
313.026
312.962
312.868
312.766
312.672
312.591
312.523
312.469
312.431
312.404
312.388
312.383
312.389
312.402
312.42
312.443
312.469
312.497
312.527
312.557
312.586
312.615
312.642
312.667
312.69
312.71
312.727
312.74
312.75
312.756
312.759
312.758
312.754
312.747
312.737
312.726
312.714
312.701
312.688
312.676
312.665
312.656
312.649
312.645
312.643
312.644
312.646
312.651
312.657
312.665
312.678
312.698
310.2
310.386
310.552
310.703
310.84
310.965
311.079
311.184
311.281
311.371
311.455
311.535
311.612
311.685
311.756
311.825
311.891
311.956
312.019
312.079
312.138
312.195
312.251
312.306
312.36
312.413
312.465
312.517
312.567
312.617
312.667
312.717
312.766
312.814
312.864
312.915
312.967
312.944
312.774
312.542
312.338
312.193
312.082
312.01
311.965
311.941
311.933
311.936
311.947
311.962
311.981
312.003
312.028
312.053
312.078
312.103
312.127
312.15
312.171
312.19
312.206
312.218
312.227
312.234
312.238
312.241
312.242
312.242
312.242
312.24
312.238
312.236
312.233
312.23
312.228
312.226
312.226
312.226
312.228
312.232
312.238
312.247
312.257
312.27
312.284
312.299
312.316
312.334
312.356
312.383
310.197
310.38
310.544
310.693
310.827
310.95
311.063
311.166
311.261
311.35
311.433
311.512
311.587
311.659
311.729
311.797
311.862
311.926
311.988
312.048
312.106
312.163
312.218
312.272
312.325
312.378
312.43
312.481
312.531
312.582
312.632
312.682
312.732
312.783
312.834
312.888
312.919
312.791
312.33
311.978
311.763
311.648
311.605
311.596
311.602
311.621
311.647
311.675
311.704
311.732
311.757
311.781
311.802
311.822
311.84
311.854
311.863
311.87
311.875
311.878
311.881
311.882
311.884
311.885
311.886
311.887
311.888
311.889
311.891
311.894
311.897
311.901
311.904
311.909
311.913
311.919
311.925
311.933
311.943
311.954
311.968
311.984
312.001
312.021
312.042
312.063
312.086
312.109
312.136
312.166
310.195
310.376
310.537
310.684
310.817
310.938
311.049
311.151
311.245
311.333
311.415
311.492
311.567
311.638
311.707
311.774
311.838
311.902
311.963
312.023
312.081
312.137
312.192
312.246
312.298
312.351
312.403
312.455
312.506
312.557
312.609
312.66
312.712
312.766
312.821
312.878
312.911
312.777
312.219
311.791
311.509
311.344
311.341
311.36
311.387
311.422
311.46
311.498
311.534
311.567
311.596
311.621
311.641
311.654
311.662
311.666
311.668
311.668
311.666
311.665
311.663
311.662
311.661
311.661
311.662
311.663
311.665
311.668
311.671
311.675
311.679
311.685
311.691
311.699
311.707
311.717
311.727
311.74
311.754
311.769
311.787
311.807
311.829
311.852
311.877
311.902
311.928
311.954
311.984
312.016
310.193
310.372
310.532
310.677
310.809
310.929
311.039
311.14
311.233
311.32
311.401
311.478
311.552
311.622
311.691
311.757
311.821
311.884
311.945
312.004
312.062
312.119
312.174
312.228
312.281
312.334
312.388
312.443
312.497
312.55
312.603
312.656
312.71
312.766
312.824
312.882
312.921
312.795
312.184
311.7
311.365
311.152
311.185
311.23
311.277
311.328
311.377
311.424
311.466
311.504
311.537
311.564
311.585
311.599
311.606
311.608
311.606
311.6
311.592
311.584
311.576
311.568
311.562
311.557
311.553
311.551
311.551
311.552
311.554
311.558
311.562
311.568
311.575
311.583
311.592
311.602
311.613
311.626
311.641
311.658
311.677
311.698
311.722
311.747
311.773
311.8
311.827
311.855
311.886
311.92
310.192
310.37
310.529
310.673
310.804
310.924
311.033
311.133
311.226
311.312
311.393
311.469
311.542
311.613
311.681
311.747
311.811
311.874
311.935
311.994
312.052
312.109
312.165
312.219
312.274
312.33
312.388
312.446
312.504
312.561
312.616
312.67
312.724
312.779
312.833
312.882
312.925
312.825
312.231
311.739
311.389
311.16
311.213
311.28
311.346
311.409
311.463
311.511
311.552
311.588
311.621
311.649
311.673
311.69
311.698
311.699
311.693
311.68
311.663
311.643
311.622
311.602
311.584
311.568
311.555
311.544
311.536
311.531
311.528
311.527
311.528
311.531
311.535
311.541
311.549
311.558
311.569
311.581
311.596
311.613
311.632
311.653
311.676
311.701
311.727
311.754
311.781
311.809
311.839
311.873
310.191
310.369
310.528
310.671
310.802
310.921
311.03
311.13
311.222
311.308
311.389
311.465
311.539
311.609
311.677
311.743
311.808
311.87
311.931
311.991
312.05
312.107
312.163
312.22
312.278
312.337
312.4
312.463
312.525
312.585
312.64
312.692
312.74
312.782
312.812
312.828
312.861
312.895
312.688
312.429
312.15
311.909
311.894
311.886
311.886
311.894
311.902
311.911
311.922
311.934
311.946
311.955
311.962
311.966
311.966
311.962
311.952
311.932
311.901
311.864
311.824
311.783
311.744
311.708
311.677
311.65
311.628
311.61
311.596
311.586
311.579
311.575
311.573
311.574
311.577
311.583
311.59
311.599
311.611
311.626
311.643
311.662
311.684
311.708
311.733
311.759
311.785
311.812
311.842
311.875
310.191
310.369
310.527
310.671
310.802
310.921
311.03
311.13
311.222
311.308
311.388
311.465
311.538
311.609
311.677
311.743
311.808
311.871
311.932
311.992
312.051
312.109
312.167
312.226
312.287
312.351
312.418
312.486
312.552
312.612
312.662
312.7
312.725
312.728
312.704
312.661
312.677
312.718
312.575
312.446
312.321
312.208
312.298
312.377
312.433
312.474
312.499
312.514
312.52
312.515
312.498
312.473
312.442
312.408
312.373
312.338
312.303
312.265
312.223
312.178
312.13
312.078
312.024
311.97
311.919
311.873
311.832
311.798
311.769
311.745
311.725
311.71
311.699
311.691
311.686
311.684
311.684
311.688
311.695
311.704
311.717
311.733
311.751
311.771
311.794
311.817
311.841
311.866
311.894
311.925
310.191
310.369
310.528
310.672
310.802
310.922
311.031
311.131
311.223
311.309
311.389
311.466
311.539
311.61
311.678
311.745
311.809
311.872
311.934
311.995
312.054
312.112
312.171
312.232
312.297
312.365
312.436
312.505
312.568
312.618
312.647
312.654
312.631
312.573
312.483
312.404
312.442
312.508
312.348
312.202
312.079
311.979
312.127
312.266
312.383
312.48
312.556
312.613
312.646
312.665
312.679
312.68
312.667
312.647
312.623
312.596
312.569
312.539
312.503
312.464
312.421
312.375
312.326
312.275
312.224
312.175
312.129
312.087
312.048
312.013
311.982
311.952
311.927
311.905
311.887
311.873
311.863
311.856
311.854
311.855
311.86
311.869
311.881
311.895
311.912
311.931
311.95
311.971
311.995
312.022
310.191
310.369
310.529
310.673
310.804
310.923
311.032
311.132
311.225
311.311
311.392
311.468
311.541
311.612
311.681
311.747
311.812
311.875
311.937
311.997
312.057
312.115
312.175
312.238
312.305
312.374
312.444
312.505
312.546
312.561
312.543
312.496
312.419
312.314
312.202
312.164
312.286
312.442
312.247
312.07
311.934
311.855
312.266
312.648
312.831
312.936
313.013
312.699
312.255
312.122
312.081
312.094
312.114
312.122
312.118
312.103
312.086
312.07
312.056
312.048
312.044
312.044
312.048
312.053
312.06
312.065
312.07
312.073
312.074
312.073
312.07
312.066
312.06
312.054
312.046
312.038
312.032
312.026
312.022
312.021
312.023
312.028
312.035
312.044
312.055
312.068
312.082
312.097
312.116
312.139
310.192
310.37
310.529
310.673
310.804
310.924
311.033
311.134
311.226
311.312
311.393
311.47
311.544
311.614
311.683
311.75
311.815
311.878
311.94
312.001
312.06
312.119
312.179
312.242
312.309
312.372
312.414
312.426
312.403
312.35
312.278
312.197
312.11
312.026
311.973
312.043
312.503
312.205
311.989
311.841
311.739
311.675
311.636
311.613
311.6
311.591
311.583
311.578
311.584
311.593
311.598
311.606
311.617
311.631
311.646
311.663
311.682
311.701
311.721
311.742
311.762
311.783
311.803
311.822
311.841
311.859
311.876
311.893
311.908
311.924
311.939
311.954
311.971
311.987
312.004
312.022
312.04
312.058
312.077
312.095
312.117
312.142
310.192
310.37
310.529
310.673
310.804
310.924
311.033
311.134
311.226
311.313
311.394
311.471
311.544
311.615
311.684
311.751
311.816
311.88
311.942
312.003
312.063
312.122
312.182
312.244
312.308
312.334
312.289
312.189
312.077
311.987
311.899
311.837
311.8
311.794
311.845
312.043
312.273
311.962
311.759
311.63
311.538
311.47
311.418
311.385
311.362
311.347
311.335
311.333
311.344
311.356
311.363
311.372
311.384
311.397
311.413
311.429
311.446
311.464
311.483
311.502
311.522
311.541
311.561
311.58
311.6
311.619
311.637
311.656
311.675
311.694
311.715
311.736
311.758
311.782
311.807
311.833
311.859
311.885
311.91
311.936
311.964
311.993
310.192
310.37
310.529
310.673
310.804
310.923
311.033
311.133
311.226
311.312
311.393
311.47
311.543
311.614
311.683
311.75
311.815
311.879
311.942
312.003
312.063
312.123
312.182
312.242
312.288
312.219
311.941
311.709
311.568
311.504
311.49
311.504
311.542
311.612
311.752
312.077
312.184
311.871
311.677
311.547
311.441
311.371
311.322
311.288
311.265
311.25
311.239
311.24
311.25
311.259
311.265
311.274
311.284
311.295
311.307
311.32
311.334
311.348
311.363
311.378
311.394
311.41
311.426
311.442
311.459
311.475
311.492
311.508
311.526
311.543
311.563
311.583
311.606
311.629
311.654
311.681
311.708
311.735
311.762
311.789
311.819
311.849
310.191
310.369
310.528
310.672
310.803
310.923
311.032
311.132
311.225
311.311
311.392
311.468
311.542
311.613
311.682
311.749
311.814
311.878
311.94
312.002
312.062
312.122
312.181
312.239
312.279
312.196
311.81
311.491
311.274
311.15
311.184
311.238
311.314
311.427
311.625
312.044
312.155
311.854
311.672
311.538
311.445
311.381
311.335
311.303
311.279
311.262
311.252
311.254
311.261
311.268
311.273
311.28
311.286
311.293
311.299
311.306
311.314
311.323
311.332
311.343
311.354
311.365
311.377
311.389
311.401
311.414
311.426
311.44
311.454
311.469
311.485
311.504
311.524
311.547
311.57
311.595
311.622
311.648
311.675
311.701
311.73
311.76
310.191
310.369
310.528
310.672
310.803
310.922
311.031
311.131
311.224
311.31
311.391
311.467
311.541
311.612
311.68
311.747
311.812
311.876
311.938
312
312.06
312.12
312.179
312.236
312.272
312.181
311.709
311.312
311.022
310.831
310.901
310.981
311.079
311.21
311.426
311.884
312.196
311.915
311.746
311.627
311.543
311.482
311.439
311.409
311.385
311.367
311.362
311.366
311.37
311.377
311.382
311.386
311.388
311.388
311.384
311.381
311.379
311.378
311.379
311.38
311.384
311.389
311.396
311.404
311.413
311.423
311.434
311.445
311.457
311.47
311.486
311.503
311.522
311.543
311.565
311.589
311.614
311.639
311.665
311.69
311.718
311.746
310.191
310.369
310.528
310.672
310.802
310.922
311.031
311.131
311.223
311.309
311.39
311.467
311.54
311.611
311.679
311.746
311.811
311.875
311.937
311.998
312.058
312.118
312.177
312.233
312.27
312.183
311.688
311.266
310.951
310.735
310.824
310.919
311.022
311.145
311.336
311.732
312.291
312.043
311.885
311.79
311.695
311.627
311.587
311.564
311.545
311.54
311.546