/*--------------------------------*- C++ -*----------------------------------*\
| =========                 |                                                 |
| \\      /  F ield         | OpenFOAM: The Open Source CFD Toolbox           |
|  \\    /   O peration     | Version:  v2012                                 |
|   \\  /    A nd           | Website:  www.openfoam.com                      |
|    \\/     M anipulation  |                                                 |
\*---------------------------------------------------------------------------*/
FoamFile
{
    version     2.0;
    format      ascii;
    class       volScalarField;
    location    "400/asphalt";
    object      T;
}
// * * * * * * * * * * * * * * * * * * * * * * * * * * * * * * * * * * * * * //

dimensions      [0 0 0 1 0 0 0];


internalField   nonuniform List<scalar> 
1980
(
321.648
322.067
322.48
322.834
323.139
323.404
323.636
323.842
324.024
324.188
324.336
324.47
324.592
324.704
324.807
324.902
324.99
325.072
325.147
325.217
325.283
325.343
325.401
325.455
325.507
325.557
325.605
325.652
325.698
325.743
325.786
325.825
325.851
325.884
325.918
325.952
325.984
326.016
326.047
326.078
326.108
326.137
326.166
326.194
326.222
326.25
326.277
326.303
326.329
326.353
326.376
326.399
326.422
326.444
326.467
326.491
326.515
326.542
326.579
326.606
326.63
326.652
326.674
326.695
326.715
326.734
326.753
326.772
326.791
326.81
326.828
326.846
326.864
326.882
326.899
326.917
326.934
326.951
326.968
326.985
327.003
327.022
327.042
327.063
327.085
327.111
327.142
327.191
327.301
327.61
321.648
322.067
322.48
322.834
323.139
323.404
323.636
323.842
324.024
324.188
324.336
324.47
324.592
324.704
324.807
324.902
324.99
325.072
325.147
325.217
325.282
325.344
325.401
325.456
325.509
325.559
325.607
325.655
325.701
325.747
325.79
325.831
325.868
325.904
325.939
325.973
326.006
326.039
326.07
326.101
326.131
326.161
326.189
326.218
326.245
326.272
326.299
326.325
326.351
326.376
326.4
326.424
326.447
326.47
326.493
326.516
326.539
326.562
326.586
326.609
326.632
326.654
326.676
326.697
326.717
326.737
326.756
326.775
326.794
326.813
326.831
326.85
326.868
326.886
326.903
326.921
326.938
326.955
326.972
326.989
327.007
327.025
327.045
327.065
327.087
327.112
327.144
327.192
327.303
327.612
321.648
322.067
322.48
322.834
323.139
323.404
323.636
323.842
324.024
324.188
324.336
324.47
324.592
324.704
324.807
324.902
324.99
325.072
325.147
325.217
325.283
325.344
325.402
325.458
325.51
325.561
325.61
325.658
325.705
325.75
325.793
325.834
325.872
325.909
325.944
325.978
326.012
326.045
326.077
326.108
326.138
326.167
326.196
326.225
326.252
326.279
326.305
326.331
326.357
326.383
326.408
326.432
326.456
326.479
326.502
326.525
326.547
326.57
326.592
326.614
326.636
326.657
326.679
326.7
326.72
326.74
326.76
326.779
326.798
326.817
326.835
326.854
326.872
326.89
326.908
326.925
326.943
326.96
326.977
326.995
327.012
327.03
327.049
327.069
327.091
327.115
327.146
327.195
327.306
327.615
321.648
322.067
322.48
322.834
323.139
323.404
323.636
323.842
324.024
324.188
324.336
324.47
324.592
324.704
324.807
324.902
324.99
325.072
325.147
325.217
325.283
325.345
325.404
325.459
325.513
325.564
325.613
325.662
325.708
325.753
325.796
325.836
325.874
325.911
325.946
325.981
326.015
326.048
326.08
326.111
326.141
326.171
326.2
326.228
326.256
326.282
326.309
326.335
326.361
326.387
326.412
326.437
326.461
326.485
326.508
326.53
326.553
326.575
326.597
326.618
326.64
326.661
326.683
326.703
326.724
326.743
326.763
326.782
326.801
326.82
326.839
326.858
326.876
326.894
326.912
326.93
326.947
326.965
326.983
327
327.018
327.035
327.054
327.073
327.095
327.119
327.149
327.198
327.308
327.617
321.648
322.066
322.48
322.834
323.139
323.404
323.636
323.842
324.024
324.188
324.336
324.47
324.592
324.704
324.807
324.902
324.99
325.072
325.147
325.218
325.284
325.346
325.405
325.461
325.515
325.567
325.616
325.664
325.711
325.755
325.797
325.837
325.875
325.912
325.948
325.982
326.017
326.05
326.082
326.113
326.144
326.173
326.202
326.231
326.258
326.285
326.311
326.338
326.364
326.39
326.415
326.44
326.465
326.488
326.512
326.535
326.557
326.579
326.601
326.623
326.644
326.665
326.686
326.707
326.727
326.747
326.766
326.786
326.805
326.824
326.843
326.862
326.88
326.898
326.916
326.934
326.952
326.97
326.988
327.006
327.023
327.041
327.059
327.079
327.1
327.124
327.154
327.201
327.312
327.62
321.648
322.066
322.48
322.834
323.139
323.404
323.636
323.842
324.024
324.188
324.336
324.47
324.592
324.704
324.807
324.902
324.99
325.072
325.147
325.218
325.285
325.347
325.407
325.464
325.518
325.569
325.619
325.667
325.713
325.757
325.799
325.838
325.876
325.913
325.949
325.984
326.018
326.052
326.084
326.115
326.146
326.176
326.205
326.233
326.261
326.288
326.314
326.341
326.367
326.393
326.418
326.444
326.468
326.492
326.516
326.539
326.561
326.584
326.606
326.627
326.648
326.669
326.69
326.711
326.731
326.751
326.771
326.79
326.81
326.829
326.848
326.866
326.885
326.903
326.921
326.939
326.957
326.975
326.993
327.012
327.03
327.048
327.066
327.085
327.106
327.13
327.16
327.207
327.317
327.625
321.647
322.066
322.48
322.834
323.139
323.404
323.636
323.841
324.024
324.188
324.336
324.47
324.592
324.704
324.807
324.902
324.99
325.072
325.148
325.219
325.286
325.349
325.409
325.466
325.52
325.572
325.622
325.669
325.715
325.758
325.8
325.84
325.878
325.915
325.951
325.986
326.021
326.054
326.086
326.118
326.148
326.178
326.208
326.236
326.264
326.291
326.318
326.345
326.371
326.397
326.422
326.447
326.472
326.496
326.52
326.543
326.566
326.589
326.611
326.632
326.654
326.675
326.695
326.716
326.736
326.756
326.776
326.796
326.815
326.834
326.854
326.872
326.891
326.909
326.927
326.945
326.963
326.982
327
327.018
327.037
327.055
327.074
327.093
327.114
327.138
327.167
327.213
327.322
327.63
321.647
322.066
322.48
322.833
323.138
323.403
323.636
323.841
324.024
324.188
324.336
324.47
324.592
324.704
324.807
324.903
324.991
325.073
325.149
325.22
325.288
325.351
325.412
325.469
325.523
325.575
325.625
325.672
325.718
325.761
325.803
325.843
325.881
325.919
325.955
325.99
326.025
326.058
326.09
326.122
326.153
326.183
326.213
326.241
326.269
326.297
326.324
326.351
326.377
326.403
326.429
326.454
326.479
326.503
326.527
326.55
326.573
326.596
326.618
326.64
326.661
326.682
326.703
326.724
326.744
326.764
326.784
326.804
326.823
326.843
326.862
326.881
326.899
326.917
326.935
326.953
326.971
326.99
327.008
327.026
327.045
327.063
327.082
327.101
327.122
327.145
327.174
327.219
327.326
327.631
321.647
322.066
322.48
322.833
323.139
323.404
323.636
323.842
324.025
324.189
324.337
324.472
324.594
324.707
324.81
324.905
324.994
325.076
325.153
325.225
325.293
325.357
325.417
325.475
325.53
325.582
325.632
325.679
325.725
325.768
325.81
325.85
325.89
325.927
325.964
326
326.034
326.068
326.101
326.133
326.164
326.194
326.224
326.253
326.282
326.31
326.337
326.364
326.391
326.417
326.443
326.468
326.493
326.517
326.542
326.565
326.589
326.611
326.634
326.656
326.678
326.699
326.72
326.741
326.761
326.781
326.801
326.821
326.841
326.86
326.879
326.898
326.916
326.935
326.953
326.97
326.989
327.007
327.025
327.043
327.061
327.079
327.098
327.117
327.138
327.161
327.188
327.231
327.334
327.633
321.648
322.067
322.482
322.837
323.144
323.41
323.644
323.851
324.035
324.201
324.35
324.486
324.609
324.723
324.827
324.924
325.014
325.097
325.175
325.249
325.318
325.383
325.445
325.503
325.559
325.612
325.663
325.712
325.758
325.803
325.846
325.887
325.927
325.966
326.004
326.041
326.076
326.111
326.145
326.178
326.21
326.242
326.272
326.302
326.332
326.361
326.39
326.418
326.445
326.472
326.499
326.525
326.551
326.576
326.601
326.625
326.649
326.673
326.696
326.719
326.742
326.764
326.786
326.807
326.828
326.849
326.87
326.89
326.911
326.93
326.95
326.969
326.988
327.007
327.026
327.044
327.063
327.081
327.1
327.118
327.136
327.155
327.174
327.194
327.214
327.237
327.265
327.305
327.4
327.686
321.655
322.081
322.503
322.865
323.178
323.451
323.691
323.903
324.093
324.264
324.419
324.56
324.689
324.807
324.916
325.018
325.112
325.2
325.283
325.361
325.434
325.503
325.569
325.631
325.691
325.748
325.802
325.854
325.904
325.953
325.999
326.044
326.088
326.131
326.172
326.212
326.251
326.289
326.326
326.362
326.398
326.432
326.466
326.5
326.532
326.564
326.596
326.627
326.657
326.687
326.717
326.746
326.774
326.802
326.83
326.857
326.884
326.91
326.936
326.962
326.987
327.011
327.036
327.06
327.083
327.107
327.13
327.153
327.175
327.197
327.219
327.241
327.262
327.283
327.304
327.324
327.345
327.365
327.386
327.406
327.426
327.446
327.467
327.488
327.51
327.534
327.562
327.601
327.686
327.932
322.794
323.257
323.699
324.072
324.393
324.672
324.916
325.132
325.325
325.497
325.652
325.793
325.922
326.04
326.148
326.249
326.342
326.428
326.507
326.581
326.65
326.714
326.775
326.832
326.887
326.939
326.99
327.039
327.088
327.135
327.181
327.223
327.256
327.293
327.329
327.364
327.399
327.432
327.465
327.497
327.529
327.56
327.59
327.62
327.649
327.678
327.707
327.735
327.761
327.787
327.812
327.836
327.86
327.884
327.908
327.932
327.957
327.984
328.018
328.045
328.069
328.092
328.115
328.137
328.158
328.179
328.199
328.219
328.238
328.258
328.277
328.296
328.315
328.333
328.352
328.37
328.388
328.406
328.423
328.441
328.46
328.48
328.501
328.523
328.546
328.573
328.604
328.653
328.764
329.114
322.794
323.257
323.699
324.072
324.393
324.672
324.916
325.132
325.325
325.497
325.652
325.793
325.922
326.04
326.149
326.249
326.342
326.428
326.507
326.581
326.65
326.714
326.775
326.833
326.888
326.941
326.992
327.042
327.091
327.139
327.185
327.228
327.268
327.306
327.343
327.379
327.414
327.448
327.482
327.514
327.546
327.577
327.607
327.637
327.666
327.694
327.722
327.75
327.777
327.804
327.829
327.854
327.879
327.903
327.927
327.951
327.975
327.999
328.024
328.048
328.071
328.094
328.118
328.14
328.161
328.181
328.202
328.222
328.242
328.261
328.281
328.3
328.319
328.337
328.356
328.374
328.392
328.41
328.428
328.446
328.464
328.483
328.504
328.525
328.548
328.574
328.606
328.654
328.766
329.115
322.794
323.257
323.699
324.072
324.393
324.672
324.916
325.132
325.325
325.497
325.652
325.794
325.922
326.04
326.149
326.249
326.342
326.427
326.507
326.581
326.65
326.715
326.776
326.834
326.89
326.944
326.995
327.046
327.095
327.143
327.188
327.231
327.271
327.31
327.347
327.383
327.419
327.453
327.487
327.52
327.551
327.583
327.613
327.643
327.672
327.7
327.728
327.755
327.783
327.81
327.836
327.862
327.887
327.911
327.935
327.959
327.983
328.006
328.029
328.052
328.075
328.098
328.121
328.143
328.164
328.185
328.205
328.225
328.245
328.265
328.285
328.304
328.323
328.342
328.36
328.379
328.397
328.415
328.433
328.451
328.47
328.488
328.508
328.529
328.551
328.577
328.608
328.657
328.768
329.118
322.794
323.257
323.699
324.072
324.393
324.672
324.916
325.132
325.325
325.497
325.653
325.794
325.922
326.04
326.149
326.249
326.342
326.427
326.507
326.581
326.65
326.715
326.777
326.836
326.892
326.946
326.998
327.049
327.098
327.145
327.19
327.233
327.273
327.312
327.349
327.385
327.421
327.456
327.49
327.523
327.555
327.586
327.616
327.646
327.675
327.703
327.731
327.758
327.786
327.813
327.84
327.866
327.891
327.916
327.941
327.964
327.988
328.011
328.034
328.057
328.079
328.102
328.124
328.146
328.167
328.188
328.209
328.229
328.249
328.269
328.289
328.308
328.327
328.346
328.365
328.383
328.402
328.42
328.439
328.457
328.475
328.494
328.513
328.533
328.555
328.581
328.611
328.659
328.771
329.121
322.794
323.257
323.698
324.071
324.392
324.671
324.916
325.132
325.324
325.497
325.652
325.794
325.922
326.04
326.149
326.249
326.342
326.427
326.507
326.581
326.651
326.717
326.779
326.838
326.895
326.949
327.001
327.052
327.101
327.148
327.192
327.234
327.274
327.313
327.35
327.387
327.423
327.458
327.492
327.525
327.557
327.588
327.619
327.649
327.677
327.706
327.734
327.761
327.789
327.816
327.843
327.869
327.895
327.92
327.945
327.969
327.992
328.016
328.039
328.061
328.083
328.106
328.128
328.15
328.171
328.192
328.212
328.233
328.253
328.273
328.293
328.312
328.331
328.35
328.369
328.388
328.406
328.425
328.444
328.463
328.481
328.5
328.519
328.539
328.561
328.585
328.616
328.663
328.774
329.124
322.794
323.257
323.698
324.071
324.392
324.671
324.916
325.132
325.324
325.497
325.652
325.793
325.922
326.04
326.149
326.249
326.341
326.427
326.507
326.582
326.652
326.718
326.781
326.84
326.897
326.952
327.004
327.055
327.103
327.149
327.193
327.235
327.275
327.314
327.352
327.389
327.425
327.46
327.494
327.527
327.559
327.59
327.621
327.651
327.68
327.709
327.737
327.764
327.792
327.819
327.846
327.873
327.899
327.924
327.949
327.973
327.997
328.02
328.043
328.066
328.088
328.11
328.132
328.154
328.175
328.196
328.217
328.237
328.257
328.278
328.297
328.317
328.336
328.355
328.374
328.393
328.412
328.431
328.45
328.469
328.488
328.506
328.526
328.546
328.567
328.592
328.622
328.668
328.779
329.128
322.794
323.257
323.698
324.071
324.392
324.671
324.915
325.132
325.324
325.497
325.652
325.793
325.922
326.04
326.149
326.249
326.341
326.427
326.507
326.582
326.653
326.719
326.783
326.843
326.9
326.954
327.007
327.057
327.105
327.151
327.195
327.236
327.277
327.316
327.354
327.391
327.427
327.462
327.496
327.529
327.562
327.593
327.624
327.654
327.683
327.712
327.74
327.768
327.796
327.823
327.85
327.877
327.902
327.928
327.953
327.977
328.001
328.025
328.048
328.071
328.093
328.115
328.137
328.159
328.18
328.201
328.222
328.243
328.263
328.283
328.303
328.323
328.342
328.361
328.38
328.399
328.418
328.437
328.457
328.476
328.495
328.514
328.533
328.554
328.576
328.6
328.629
328.675
328.785
329.133
322.793
323.256
323.698
324.071
324.392
324.671
324.915
325.131
325.324
325.496
325.652
325.793
325.922
326.04
326.149
326.249
326.342
326.428
326.508
326.584
326.655
326.722
326.785
326.845
326.903
326.957
327.01
327.06
327.108
327.153
327.197
327.239
327.28
327.319
327.357
327.395
327.431
327.466
327.5
327.533
327.566
327.598
327.629
327.659
327.689
327.718
327.746
327.774
327.802
327.829
327.856
327.883
327.909
327.934
327.959
327.984
328.008
328.032
328.056
328.078
328.101
328.123
328.145
328.167
328.188
328.209
328.23
328.251
328.271
328.291
328.311
328.331
328.35
328.369
328.388
328.407
328.426
328.445
328.464
328.484
328.503
328.522
328.541
328.561
328.583
328.607
328.636
328.68
328.788
329.133
322.793
323.256
323.697
324.071
324.392
324.671
324.915
325.132
325.324
325.497
325.653
325.794
325.923
326.042
326.15
326.251
326.344
326.431
326.512
326.587
326.659
326.726
326.79
326.851
326.908
326.963
327.015
327.066
327.113
327.159
327.203
327.246
327.287
327.327
327.365
327.403
327.439
327.475
327.509
327.543
327.576
327.608
327.639
327.67
327.7
327.729
327.758
327.787
327.815
327.842
327.869
327.896
327.922
327.948
327.973
327.998
328.022
328.046
328.07
328.093
328.116
328.138
328.16
328.182
328.203
328.224
328.245
328.266
328.287
328.307
328.327
328.347
328.366
328.385
328.404
328.422
328.441
328.46
328.479
328.498
328.517
328.536
328.555
328.575
328.597
328.62
328.648
328.69
328.793
329.132
322.794
323.257
323.7
324.074
324.396
324.676
324.922
325.14
325.334
325.508
325.665
325.807
325.937
326.057
326.167
326.268
326.363
326.451
326.533
326.61
326.683
326.751
326.816
326.878
326.936
326.992
327.046
327.097
327.145
327.192
327.238
327.281
327.323
327.364
327.404
327.443
327.48
327.516
327.552
327.587
327.621
327.654
327.686
327.718
327.749
327.779
327.809
327.839
327.868
327.896
327.924
327.951
327.978
328.005
328.031
328.056
328.082
328.107
328.131
328.155
328.179
328.202
328.225
328.247
328.269
328.291
328.313
328.334
328.355
328.376
328.397
328.417
328.437
328.456
328.475
328.495
328.514
328.533
328.552
328.572
328.591
328.61
328.63
328.65
328.672
328.695
328.723
328.762
328.858
329.182
322.801
323.273
323.723
324.105
324.435
324.723
324.975
325.2
325.4
325.58
325.744
325.892
326.028
326.153
326.268
326.375
326.475
326.568
326.655
326.737
326.815
326.888
326.958
327.024
327.087
327.147
327.204
327.259
327.312
327.363
327.413
327.46
327.507
327.552
327.595
327.638
327.679
327.719
327.758
327.797
327.834
327.871
327.907
327.942
327.977
328.011
328.044
328.077
328.109
328.141
328.172
328.202
328.233
328.262
328.291
328.32
328.348
328.376
328.404
328.431
328.457
328.484
328.509
328.535
328.56
328.584
328.609
328.633
328.657
328.68
328.703
328.726
328.748
328.77
328.792
328.814
328.835
328.857
328.878
328.899
328.92
328.941
328.963
328.985
329.008
329.033
329.061
329.1
329.184
329.462
)
;

boundaryField
{
    inlet
    {
        type            zeroGradient;
    }
    outlet
    {
        type            zeroGradient;
    }
    side
    {
        type            zeroGradient;
    }
    asphalt_to_soil1
    {
        type            compressible::turbulentTemperatureRadCoupledMixed;
        refValue        nonuniform List<scalar> 
990
(
320.488
320.866
321.252
321.587
321.875
322.126
322.346
322.54
322.713
322.868
323.008
323.135
323.25
323.356
323.454
323.544
323.627
323.705
323.776
323.842
323.904
323.961
324.016
324.067
324.116
324.163
324.209
324.253
324.296
324.339
324.379
324.414
324.435
324.465
324.497
324.529
324.559
324.589
324.619
324.648
324.676
324.704
324.731
324.757
324.784
324.81
324.836
324.861
324.885
324.908
324.93
324.951
324.973
324.994
325.016
325.038
325.061
325.089
325.129
325.155
325.178
325.2
325.22
325.24
325.259
325.278
325.296
325.314
325.332
325.349
325.367
325.384
325.401
325.418
325.435
325.451
325.467
325.483
325.5
325.516
325.533
325.551
325.57
325.589
325.611
325.636
325.666
325.715
325.823
326.095
320.488
320.866
321.252
321.587
321.875
322.126
322.346
322.54
322.713
322.868
323.008
323.135
323.25
323.356
323.454
323.544
323.627
323.704
323.776
323.842
323.904
323.961
324.016
324.068
324.117
324.165
324.211
324.256
324.3
324.343
324.384
324.422
324.456
324.49
324.523
324.555
324.586
324.617
324.647
324.676
324.705
324.732
324.76
324.786
324.812
324.838
324.863
324.888
324.913
324.936
324.959
324.982
325.004
325.025
325.047
325.069
325.09
325.113
325.137
325.159
325.18
325.201
325.223
325.243
325.262
325.28
325.298
325.317
325.335
325.352
325.37
325.387
325.404
325.421
325.438
325.455
325.471
325.488
325.504
325.52
325.537
325.554
325.572
325.592
325.613
325.637
325.668
325.716
325.825
326.097
320.488
320.866
321.252
321.587
321.875
322.126
322.346
322.541
322.714
322.869
323.008
323.135
323.251
323.357
323.454
323.544
323.627
323.704
323.776
323.842
323.904
323.962
324.017
324.069
324.119
324.167
324.214
324.259
324.303
324.346
324.387
324.425
324.461
324.496
324.529
324.561
324.593
324.625
324.655
324.684
324.712
324.74
324.768
324.795
324.82
324.846
324.871
324.896
324.92
324.944
324.968
324.991
325.013
325.035
325.057
325.079
325.1
325.121
325.142
325.163
325.184
325.204
325.225
325.245
325.265
325.283
325.302
325.32
325.338
325.356
325.373
325.391
325.408
325.425
325.442
325.459
325.476
325.492
325.509
325.525
325.542
325.559
325.577
325.596
325.617
325.641
325.671
325.719
325.827
326.1
320.488
320.866
321.252
321.587
321.875
322.126
322.346
322.541
322.714
322.869
323.008
323.135
323.251
323.357
323.454
323.544
323.627
323.704
323.776
323.842
323.904
323.963
324.018
324.071
324.122
324.17
324.217
324.262
324.306
324.349
324.389
324.427
324.463
324.498
324.531
324.564
324.596
324.628
324.658
324.687
324.716
324.744
324.772
324.798
324.824
324.849
324.874
324.899
324.924
324.948
324.972
324.996
325.019
325.041
325.063
325.084
325.106
325.127
325.147
325.168
325.188
325.208
325.229
325.248
325.268
325.286
325.305
325.323
325.341
325.359
325.377
325.395
325.412
325.429
325.446
325.463
325.48
325.497
325.514
325.53
325.547
325.564
325.582
325.6
325.621
325.644
325.674
325.722
325.83
326.103
320.488
320.866
321.252
321.587
321.875
322.126
322.346
322.541
322.714
322.869
323.008
323.135
323.251
323.357
323.454
323.544
323.627
323.704
323.776
323.842
323.905
323.964
324.02
324.073
324.124
324.173
324.22
324.265
324.309
324.351
324.391
324.428
324.465
324.499
324.533
324.566
324.598
324.63
324.66
324.689
324.718
324.746
324.774
324.801
324.827
324.852
324.877
324.902
324.927
324.951
324.975
324.999
325.022
325.045
325.067
325.088
325.11
325.131
325.151
325.172
325.192
325.212
325.232
325.252
325.271
325.29
325.308
325.327
325.345
325.363
325.381
325.399
325.416
325.433
325.45
325.467
325.484
325.502
325.519
325.536
325.553
325.57
325.587
325.606
325.626
325.649
325.678
325.726
325.834
326.106
320.487
320.866
321.252
321.586
321.875
322.126
322.346
322.54
322.713
322.868
323.008
323.135
323.251
323.357
323.454
323.544
323.627
323.704
323.776
323.843
323.906
323.965
324.022
324.075
324.126
324.175
324.222
324.268
324.311
324.353
324.392
324.43
324.466
324.501
324.535
324.568
324.6
324.631
324.662
324.692
324.72
324.749
324.776
324.803
324.829
324.855
324.88
324.905
324.93
324.954
324.978
325.002
325.026
325.048
325.07
325.092
325.114
325.135
325.156
325.176
325.196
325.216
325.236
325.255
325.275
325.294
325.312
325.331
325.349
325.367
325.385
325.403
325.421
325.438
325.455
325.472
325.489
325.507
325.524
325.541
325.559
325.576
325.593
325.612
325.632
325.655
325.684
325.731
325.839
326.111
320.487
320.865
321.252
321.586
321.875
322.126
322.346
322.54
322.713
322.868
323.008
323.135
323.251
323.357
323.454
323.544
323.627
323.705
323.776
323.844
323.907
323.967
324.023
324.077
324.129
324.178
324.225
324.27
324.313
324.354
324.393
324.431
324.467
324.503
324.537
324.57
324.602
324.634
324.664
324.694
324.723
324.751
324.779
324.806
324.832
324.858
324.884
324.909
324.934
324.958
324.982
325.006
325.029
325.052
325.075
325.097
325.118
325.14
325.161
325.181
325.201
325.221
325.241
325.26
325.28
325.299
325.317
325.336
325.355
325.373
325.391
325.409
325.426
325.444
325.461
325.478
325.495
325.513
325.531
325.548
325.565
325.583
325.601
325.62
325.64
325.663
325.691
325.737
325.844
326.115
320.487
320.865
321.252
321.586
321.875
322.126
322.346
322.54
322.713
322.869
323.009
323.135
323.251
323.357
323.455
323.545
323.628
323.706
323.778
323.846
323.909
323.969
324.026
324.08
324.132
324.181
324.228
324.273
324.316
324.357
324.396
324.434
324.471
324.506
324.541
324.574
324.606
324.638
324.669
324.699
324.728
324.756
324.784
324.812
324.838
324.864
324.89
324.915
324.94
324.965
324.989
325.013
325.036
325.059
325.082
325.104
325.126
325.147
325.168
325.189
325.209
325.229
325.249
325.268
325.288
325.307
325.326
325.344
325.363
325.381
325.4
325.417
325.435
325.452
325.469
325.487
325.504
325.521
325.539
325.556
325.574
325.591
325.609
325.628
325.648
325.67
325.698
325.743
325.848
326.117
320.487
320.865
321.252
321.586
321.875
322.126
322.347
322.541
322.715
322.87
323.01
323.138
323.254
323.36
323.458
323.548
323.632
323.71
323.782
323.851
323.915
323.975
324.033
324.087
324.139
324.188
324.236
324.281
324.324
324.365
324.405
324.443
324.48
324.516
324.55
324.584
324.617
324.649
324.68
324.71
324.74
324.769
324.797
324.824
324.851
324.878
324.904
324.93
324.955
324.98
325.004
325.028
325.052
325.075
325.098
325.12
325.142
325.164
325.185
325.206
325.227
325.247
325.267
325.287
325.306
325.325
325.344
325.363
325.382
325.4
325.418
325.436
325.454
325.471
325.488
325.505
325.522
325.54
325.557
325.574
325.592
325.609
325.627
325.646
325.666
325.688
325.715
325.758
325.858
326.122
320.488
320.867
321.255
321.591
321.881
322.133
322.355
322.551
322.725
322.882
323.024
323.152
323.269
323.377
323.476
323.567
323.652
323.731
323.806
323.875
323.94
324.002
324.061
324.116
324.169
324.219
324.268
324.314
324.358
324.4
324.441
324.48
324.518
324.555
324.591
324.626
324.659
324.692
324.724
324.756
324.786
324.816
324.845
324.874
324.902
324.929
324.956
324.983
325.009
325.035
325.06
325.085
325.109
325.133
325.157
325.18
325.203
325.225
325.248
325.269
325.291
325.312
325.332
325.353
325.373
325.393
325.413
325.432
325.451
325.47
325.489
325.507
325.526
325.543
325.561
325.579
325.596
325.614
325.632
325.649
325.667
325.685
325.703
325.722
325.742
325.764
325.791
325.831
325.925
326.176
320.494
320.879
321.273
321.615
321.911
322.169
322.396
322.597
322.776
322.938
323.084
323.217
323.339
323.451
323.554
323.65
323.739
323.822
323.9
323.973
324.042
324.108
324.17
324.228
324.285
324.338
324.389
324.439
324.486
324.531
324.575
324.618
324.659
324.699
324.738
324.776
324.812
324.848
324.883
324.917
324.951
324.983
325.015
325.047
325.078
325.108
325.138
325.167
325.195
325.224
325.251
325.279
325.305
325.332
325.358
325.383
325.409
325.434
325.458
325.482
325.506
325.529
325.552
325.575
325.597
325.619
325.641
325.662
325.684
325.705
325.725
325.746
325.766
325.786
325.805
325.825
325.844
325.864
325.883
325.902
325.921
325.94
325.96
325.98
326.001
326.024
326.052
326.091
326.174
326.393
)
;
        refGradient     uniform 0;
        valueFraction   nonuniform List<scalar> 
990
(
0.495766
0.495766
0.495766
0.495766
0.495766
0.495766
0.495766
0.495766
0.495766
0.495766
0.495766
0.495766
0.495766
0.495766
0.495766
0.495766
0.495766
0.495766
0.495766
0.495766
0.495766
0.495766
0.495766
0.495766
0.495766
0.495766
0.495766
0.495766
0.495766
0.495766
0.495766
0.495766
0.495766
0.495766
0.495766
0.495766
0.495766
0.495766
0.495766
0.495766
0.495766
0.495766
0.495766
0.495766
0.495766
0.495766
0.495766
0.495766
0.495766
0.495766
0.495766
0.495766
0.495766
0.495766
0.495766
0.495766
0.495766
0.495766
0.495766
0.495766
0.495766
0.495766
0.495766
0.495766
0.495766
0.495766
0.495766
0.495766
0.495766
0.495766
0.495766
0.495766
0.495766
0.495766
0.495766
0.495766
0.495766
0.495766
0.495766
0.495766
0.495766
0.495766
0.495766
0.495766
0.495766
0.495766
0.495766
0.495766
0.495766
0.495766
0.495766
0.495766
0.495766
0.495766
0.495766
0.495766
0.495766
0.495766
0.495766
0.495766
0.495766
0.495766
0.495766
0.495766
0.495766
0.495766
0.495766
0.495766
0.495766
0.495766
0.495766
0.495766
0.495766
0.495766
0.495766
0.495766
0.495766
0.495766
0.495766
0.495766
0.495766
0.495766
0.495766
0.495766
0.495766
0.495766
0.495766
0.495766
0.495766
0.495766
0.495766
0.495766
0.495766
0.495766
0.495766
0.495766
0.495766
0.495766
0.495766
0.495766
0.495766
0.495766
0.495766
0.495766
0.495766
0.495766
0.495766
0.495766
0.495766
0.495766
0.495766
0.495766
0.495766
0.495766
0.495766
0.495766
0.495766
0.495766
0.495766
0.495766
0.495766
0.495766
0.495766
0.495766
0.495766
0.495766
0.495766
0.495766
0.495766
0.495766
0.495766
0.495766
0.495766
0.495766
0.495766
0.495766
0.495766
0.495766
0.495766
0.495766
0.495766
0.495766
0.495766
0.495766
0.495766
0.495766
0.495766
0.495766
0.495766
0.495766
0.495766
0.495766
0.495766
0.495766
0.495766
0.495766
0.495766
0.495766
0.495766
0.495766
0.495766
0.495766
0.495766
0.495766
0.495766
0.495766
0.495766
0.495766
0.495766
0.495766
0.495766
0.495766
0.495766
0.495766
0.495766
0.495766
0.495766
0.495766
0.495766
0.495766
0.495766
0.495766
0.495766
0.495766
0.495766
0.495766
0.495766
0.495766
0.495766
0.495766
0.495766
0.495766
0.495766
0.495766
0.495766
0.495766
0.495766
0.495766
0.495766
0.495766
0.495766
0.495766
0.495766
0.495766
0.495766
0.495766
0.495766
0.495766
0.495766
0.495766
0.495766
0.495766
0.495766
0.495766
0.495766
0.495766
0.495766
0.495766
0.495766
0.495766
0.495766
0.495766
0.495766
0.495766
0.495766
0.495766
0.495766
0.495766
0.495766
0.495766
0.495766
0.495766
0.495766
0.495766
0.495766
0.495766
0.495766
0.495766
0.495766
0.495766
0.495766
0.495766
0.495766
0.495766
0.495766
0.495766
0.495766
0.495766
0.495766
0.495766
0.495766
0.495766
0.495766
0.495766
0.495766
0.495766
0.495766
0.495766
0.495766
0.495766
0.495766
0.495766
0.495766
0.495766
0.495766
0.495766
0.495766
0.495766
0.495766
0.495766
0.495766
0.495766
0.495766
0.495766
0.495766
0.495766
0.495766
0.495766
0.495766
0.495766
0.495766
0.495766
0.495766
0.495766
0.495766
0.495766
0.495766
0.495766
0.495766
0.495766
0.495766
0.495766
0.495766
0.495766
0.495766
0.495766
0.495766
0.495766
0.495766
0.495766
0.495766
0.495766
0.495766
0.495766
0.495766
0.495766
0.495766
0.495766
0.495766
0.495766
0.495766
0.495766
0.495766
0.495766
0.495766
0.495766
0.495766
0.495766
0.495766
0.495766
0.495766
0.495766
0.495766
0.495766
0.495766
0.495766
0.495766
0.495766
0.495766
0.495766
0.495766
0.495766
0.495766
0.495766
0.495766
0.495766
0.495766
0.495766
0.495766
0.495766
0.495766
0.495766
0.495766
0.495766
0.495766
0.495766
0.495766
0.495766
0.495766
0.495766
0.495766
0.495766
0.495766
0.495766
0.495766
0.495766
0.495766
0.495766
0.495766
0.495766
0.495766
0.495766
0.495766
0.495766
0.495766
0.495766
0.495766
0.495766
0.495766
0.495766
0.495766
0.495766
0.495766
0.495766
0.495766
0.495766
0.495766
0.495766
0.495766
0.495766
0.495766
0.495766
0.495766
0.495766
0.495766
0.495766
0.495766
0.495766
0.495766
0.495766
0.495766
0.495766
0.495766
0.495766
0.495766
0.495766
0.495766
0.495766
0.495766
0.495766
0.495766
0.495766
0.495766
0.495766
0.495766
0.495766
0.495766
0.495766
0.495766
0.495766
0.495766
0.495766
0.495766
0.495766
0.495766
0.495766
0.495766
0.495766
0.495766
0.495766
0.495766
0.495766
0.495766
0.495766
0.495766
0.495766
0.495766
0.495766
0.495766
0.495766
0.495766
0.495766
0.495766
0.495766
0.495766
0.495766
0.495766
0.495766
0.495766
0.495766
0.495766
0.495766
0.495766
0.495766
0.495766
0.495766
0.495766
0.495766
0.495766
0.495766
0.495766
0.495766
0.495766
0.495766
0.495766
0.495766
0.495766
0.495766
0.495766
0.495766
0.495766
0.495766
0.495766
0.495766
0.495766
0.495766
0.495766
0.495766
0.495766
0.495766
0.495766
0.495766
0.495766
0.495766
0.495766
0.495766
0.495766
0.495766
0.495766
0.495766
0.495766
0.495766
0.495766
0.495766
0.495766
0.495766
0.495766
0.495766
0.495766
0.495766
0.495766
0.495766
0.495766
0.495766
0.495766
0.495766
0.495766
0.495766
0.495766
0.495766
0.495766
0.495766
0.495766
0.495766
0.495766
0.495766
0.495766
0.495766
0.495766
0.495766
0.495766
0.495766
0.495766
0.495766
0.495766
0.495766
0.495766
0.495766
0.495766
0.495766
0.495766
0.495766
0.495766
0.495766
0.495766
0.495766
0.495766
0.495766
0.495766
0.495766
0.495766
0.495766
0.495766
0.495766
0.495766
0.495766
0.495766
0.495766
0.495766
0.495766
0.495766
0.495766