/*--------------------------------*- C++ -*----------------------------------*\
| =========                 |                                                 |
| \\      /  F ield         | OpenFOAM: The Open Source CFD Toolbox           |
|  \\    /   O peration     | Version:  v2012                                 |
|   \\  /    A nd           | Website:  www.openfoam.com                      |
|    \\/     M anipulation  |                                                 |
\*---------------------------------------------------------------------------*/
FoamFile
{
    version     2.0;
    format      ascii;
    class       volScalarField;
    location    "150/soil2";
    object      T;
}
// * * * * * * * * * * * * * * * * * * * * * * * * * * * * * * * * * * * * * //

dimensions      [0 0 0 1 0 0 0];


internalField   nonuniform List<scalar> 
10496
(
326.026
326.586
327.019
327.286
327.42
327.47
327.488
327.518
327.586
327.693
327.826
327.968
328.109
328.243
328.366
328.48
328.586
328.685
328.778
328.866
328.948
329.026
329.099
329.167
329.231
329.291
329.347
329.4
329.45
329.5
329.55
329.601
329.651
329.702
329.751
329.799
329.846
329.892
329.937
329.982
330.026
330.069
330.111
330.153
330.194
330.232
330.269
330.304
330.337
330.37
330.402
330.434
330.466
330.498
330.531
330.563
330.594
330.625
330.654
330.682
330.709
330.736
330.764
330.793
330.823
330.856
330.892
330.932
330.974
331.018
331.061
331.103
331.14
331.172
331.197
331.217
331.237
331.264
331.311
331.391
331.519
331.706
331.952
332.243
332.555
332.848
333.079
333.241
333.453
333.923
325.766
326.308
326.725
326.976
327.096
327.134
327.141
327.161
327.219
327.318
327.442
327.577
327.711
327.836
327.953
328.06
328.16
328.252
328.339
328.421
328.498
328.57
328.638
328.701
328.76
328.814
328.864
328.911
328.957
329.003
329.05
329.098
329.146
329.193
329.238
329.281
329.324
329.365
329.406
329.446
329.485
329.524
329.562
329.6
329.636
329.67
329.703
329.734
329.763
329.792
329.82
329.848
329.877
329.906
329.935
329.964
329.993
330.02
330.047
330.072
330.097
330.123
330.148
330.175
330.204
330.236
330.271
330.309
330.35
330.393
330.435
330.476
330.512
330.543
330.567
330.586
330.605
330.631
330.677
330.755
330.883
331.069
331.313
331.604
331.915
332.208
332.438
332.602
332.824
333.329
325.494
326.026
326.433
326.675
326.788
326.819
326.82
326.834
326.888
326.982
327.102
327.233
327.363
327.485
327.599
327.703
327.799
327.889
327.974
328.053
328.127
328.197
328.262
328.323
328.379
328.431
328.479
328.524
328.567
328.61
328.655
328.702
328.749
328.795
328.839
328.881
328.921
328.96
328.999
329.037
329.074
329.111
329.147
329.183
329.217
329.25
329.28
329.309
329.336
329.363
329.389
329.416
329.443
329.47
329.498
329.525
329.551
329.577
329.602
329.626
329.649
329.673
329.697
329.722
329.75
329.78
329.814
329.851
329.89
329.932
329.974
330.013
330.048
330.077
330.1
330.118
330.136
330.161
330.205
330.283
330.409
330.594
330.837
331.126
331.437
331.729
331.958
332.122
332.347
332.849
325.222
325.745
326.143
326.378
326.484
326.51
326.505
326.515
326.565
326.655
326.772
326.9
327.028
327.148
327.258
327.36
327.455
327.543
327.625
327.702
327.775
327.843
327.907
327.966
328.021
328.072
328.119
328.163
328.204
328.246
328.289
328.335
328.381
328.427
328.471
328.512
328.551
328.589
328.627
328.663
328.699
328.735
328.769
328.804
328.838
328.869
328.898
328.925
328.951
328.977
329.003
329.028
329.054
329.081
329.107
329.133
329.159
329.183
329.207
329.23
329.252
329.274
329.297
329.321
329.348
329.377
329.409
329.445
329.484
329.524
329.565
329.603
329.637
329.665
329.687
329.704
329.72
329.744
329.786
329.862
329.987
330.17
330.412
330.7
331.009
331.3
331.528
331.691
331.912
332.401
324.952
325.466
325.856
326.084
326.184
326.203
326.194
326.2
326.245
326.332
326.446
326.572
326.696
326.814
326.923
327.023
327.115
327.201
327.282
327.358
327.429
327.495
327.558
327.616
327.669
327.719
327.766
327.81
327.853
327.894
327.935
327.978
328.021
328.066
328.11
328.15
328.189
328.226
328.262
328.298
328.333
328.367
328.401
328.435
328.467
328.496
328.524
328.55
328.575
328.6
328.625
328.65
328.675
328.7
328.726
328.751
328.775
328.798
328.82
328.841
328.861
328.882
328.903
328.926
328.951
328.979
329.011
329.045
329.083
329.123
329.162
329.2
329.233
329.26
329.281
329.297
329.312
329.335
329.376
329.451
329.574
329.756
329.997
330.284
330.592
330.882
331.11
331.273
331.491
331.967
324.686
325.19
325.573
325.794
325.887
325.901
325.887
325.888
325.93
326.013
326.124
326.247
326.369
326.485
326.591
326.69
326.78
326.865
326.944
327.018
327.088
327.153
327.214
327.27
327.322
327.371
327.419
327.465
327.511
327.554
327.594
327.633
327.672
327.712
327.754
327.794
327.833
327.869
327.904
327.939
327.973
328.006
328.039
328.071
328.101
328.129
328.156
328.181
328.205
328.229
328.253
328.277
328.301
328.325
328.349
328.372
328.395
328.416
328.436
328.456
328.475
328.494
328.515
328.536
328.561
328.588
328.619
328.653
328.69
328.729
328.768
328.805
328.838
328.864
328.884
328.899
328.914
328.936
328.977
329.051
329.174
329.355
329.596
329.883
330.191
330.481
330.709
330.871
331.086
331.553
324.423
324.919
325.293
325.507
325.594
325.603
325.584
325.582
325.62
325.699
325.807
325.927
326.047
326.16
326.265
326.361
326.45
326.533
326.611
326.684
326.752
326.816
326.875
326.93
326.98
327.029
327.077
327.127
327.178
327.227
327.27
327.306
327.337
327.369
327.405
327.444
327.482
327.518
327.551
327.584
327.617
327.649
327.681
327.71
327.739
327.766
327.791
327.815
327.838
327.861
327.883
327.904
327.926
327.948
327.969
327.99
328.01
328.029
328.048
328.066
328.084
328.103
328.122
328.144
328.167
328.194
328.225
328.259
328.296
328.334
328.373
328.41
328.442
328.468
328.488
328.503
328.517
328.539
328.579
328.653
328.776
328.958
329.199
329.486
329.794
330.085
330.313
330.474
330.687
331.145
324.165
324.652
325.018
325.225
325.307
325.31
325.286
325.28
325.314
325.389
325.491
325.606
325.722
325.833
325.936
326.031
326.119
326.202
326.279
326.351
326.419
326.482
326.54
326.594
326.642
326.689
326.738
326.793
326.853
326.911
326.961
326.996
327.021
327.041
327.066
327.099
327.135
327.17
327.201
327.232
327.263
327.294
327.324
327.351
327.376
327.401
327.425
327.446
327.465
327.483
327.5
327.517
327.534
327.552
327.57
327.588
327.606
327.623
327.639
327.656
327.672
327.69
327.708
327.728
327.751
327.778
327.807
327.841
327.877
327.916
327.955
327.991
328.023
328.049
328.068
328.083
328.097
328.119
328.159
328.233
328.357
328.54
328.782
329.07
329.379
329.67
329.899
330.06
330.271
330.718
323.911
324.389
324.747
324.948
325.023
325.021
324.993
324.983
325.012
325.077
325.155
325.254
325.361
325.468
325.57
325.666
325.757
325.843
325.923
325.999
326.071
326.137
326.198
326.253
326.302
326.349
326.399
326.459
326.529
326.601
326.663
326.703
326.722
326.728
326.736
326.758
326.789
326.819
326.846
326.874
326.9
326.929
326.957
326.977
326.997
327.018
327.037
327.054
327.068
327.08
327.091
327.104
327.117
327.131
327.146
327.16
327.175
327.189
327.202
327.216
327.23
327.245
327.261
327.279
327.3
327.324
327.352
327.383
327.418
327.454
327.491
327.526
327.556
327.58
327.598
327.611
327.624
327.644
327.683
327.758
327.886
328.074
328.319
328.61
328.921
329.213
329.443
329.606
329.815
330.247
323.661
324.129
324.481
324.675
324.744
324.737
324.705
324.689
324.708
324.737
324.613
324.605
324.666
324.76
324.87
324.987
325.105
325.221
325.333
325.44
325.539
325.63
325.713
325.785
325.848
325.904
325.961
326.029
326.111
326.201
326.282
326.336
326.357
326.354
326.347
326.356
326.38
326.407
326.433
326.46
326.486
326.515
326.543
326.56
326.576
326.597
326.614
326.627
326.636
326.644
326.651
326.66
326.67
326.681
326.693
326.704
326.715
326.726
326.737
326.748
326.76
326.772
326.786
326.802
326.822
326.844
326.87
326.901
326.934
326.969
327.005
327.039
327.068
327.091
327.108
327.12
327.132
327.151
327.189
327.27
327.443
327.668
327.938
328.245
328.567
328.866
329.101
329.269
329.488
329.935
323.414
323.874
324.218
324.406
324.47
324.458
324.421
324.399
324.4
324.275
322.046
321.603
321.673
321.907
322.189
322.476
322.748
323
323.227
323.429
323.605
323.756
323.881
323.983
324.062
324.122
324.174
324.228
324.296
324.375
324.45
324.501
324.515
324.495
324.465
324.449
324.454
324.466
324.485
324.508
324.531
324.56
324.59
324.605
324.623
324.647
324.667
324.683
324.695
324.705
324.716
324.727
324.74
324.753
324.766
324.778
324.791
324.803
324.815
324.828
324.841
324.856
324.872
324.891
324.913
324.938
324.967
325
325.036
325.074
325.113
325.15
325.183
325.211
325.232
325.248
325.262
325.28
325.313
325.417
326.174
326.808
327.343
327.816
328.239
328.6
328.871
329.063
329.303
329.784
323.172
323.623
323.96
324.141
324.199
324.183
324.141
324.115
324.107
323.953
321.627
321.148
321.211
321.451
321.743
322.041
322.325
322.587
322.826
323.038
323.224
323.383
323.515
323.621
323.703
323.764
323.812
323.862
323.926
324.008
324.094
324.16
324.183
324.161
324.117
324.082
324.072
324.075
324.094
324.126
324.158
324.2
324.245
324.272
324.302
324.34
324.374
324.403
324.428
324.451
324.473
324.497
324.52
324.544
324.565
324.586
324.605
324.623
324.64
324.656
324.673
324.689
324.707
324.727
324.749
324.774
324.802
324.834
324.868
324.905
324.941
324.976
325.006
325.03
325.047
325.059
325.068
325.083
325.115
325.221
325.931
326.518
327.01
327.447
327.844
328.188
328.449
328.637
328.878
329.356
322.933
323.376
323.705
323.88
323.932
323.911
323.865
323.835
323.824
323.665
321.367
320.89
320.949
321.184
321.472
321.765
322.045
322.304
322.539
322.75
322.934
323.092
323.223
323.329
323.41
323.469
323.513
323.556
323.612
323.691
323.782
323.86
323.897
323.881
323.829
323.777
323.746
323.73
323.738
323.767
323.797
323.837
323.882
323.904
323.927
323.964
323.994
324.02
324.043
324.064
324.086
324.108
324.131
324.153
324.173
324.192
324.209
324.225
324.24
324.254
324.268
324.282
324.296
324.312
324.331
324.352
324.376
324.403
324.433
324.464
324.494
324.523
324.547
324.565
324.576
324.582
324.586
324.594
324.619
324.702
325.378
325.94
326.418
326.853
327.255
327.608
327.88
328.081
328.33
328.795
322.698
323.132
323.454
323.622
323.67
323.644
323.594
323.56
323.545
323.388
321.129
320.658
320.716
320.946
321.228
321.515
321.79
322.043
322.274
322.48
322.661
322.816
322.946
323.051
323.133
323.194
323.238
323.276
323.325
323.396
323.487
323.575
323.628
323.626
323.578
323.518
323.471
323.435
323.43
323.457
323.487
323.528
323.575
323.592
323.609
323.643
323.67
323.693
323.713
323.733
323.752
323.771
323.788
323.804
323.819
323.832
323.845
323.856
323.866
323.876
323.886
323.897
323.908
323.921
323.937
323.956
323.978
324.004
324.032
324.062
324.092
324.119
324.142
324.16
324.17
324.175
324.177
324.183
324.201
324.276
324.944
325.502
325.979
326.415
326.819
327.175
327.452
327.656
327.911
328.372
322.466
322.891
323.206
323.368
323.41
323.38
323.326
323.288
323.271
323.115
320.897
320.434
320.49
320.716
320.993
321.275
321.545
321.793
322.018
322.219
322.395
322.546
322.674
322.778
322.861
322.925
322.973
323.011
323.054
323.115
323.198
323.286
323.351
323.367
323.332
323.274
323.216
323.159
323.137
323.161
323.192
323.236
323.287
323.301
323.313
323.346
323.372
323.396
323.418
323.438
323.457
323.473
323.488
323.501
323.514
323.526
323.537
323.547
323.555
323.564
323.572
323.581
323.591
323.604
323.618
323.636
323.658
323.683
323.71
323.74
323.769
323.797
323.82
323.837
323.848
323.853
323.855
323.86
323.878
323.952
324.614
325.168
325.643
326.078
326.482
326.838
327.115
327.318
327.57
328.023
322.237
322.654
322.963
323.118
323.155
323.119
323.061
323.021
323.001
322.847
320.668
320.214
320.269
320.49
320.763
321.041
321.308
321.553
321.773
321.968
322.137
322.283
322.405
322.507
322.592
322.66
322.714
322.757
322.797
322.848
322.918
322.998
323.067
323.098
323.081
323.034
322.972
322.895
322.852
322.87
322.902
322.95
323.008
323.02
323.029
323.061
323.089
323.116
323.141
323.163
323.181
323.196
323.209
323.221
323.234
323.245
323.256
323.265
323.273
323.28
323.288
323.296
323.305
323.316
323.33
323.347
323.368
323.392
323.42
323.449
323.478
323.505
323.528
323.545
323.555
323.559
323.561
323.566
323.584
323.658
324.311
324.859
325.331
325.764
326.167
326.523
326.799
327
327.248
327.694
322.013
322.421
322.723
322.872
322.904
322.863
322.801
322.757
322.735
322.582
320.444
319.998
320.051
320.268
320.536
320.813
321.079
321.323
321.541
321.73
321.891
322.028
322.143
322.24
322.324
322.397
322.46
322.511
322.554
322.598
322.652
322.718
322.782
322.821
322.822
322.791
322.734
322.64
322.571
322.577
322.61
322.665
322.733
322.745
322.753
322.788
322.821
322.853
322.883
322.906
322.923
322.935
322.947
322.961
322.975
322.988
322.998
323.007
323.014
323.02
323.026
323.032
323.04
323.049
323.061
323.077
323.096
323.119
323.145
323.173
323.202
323.228
323.25
323.266
323.276
323.28
323.281
323.286
323.304
323.377
324.021
324.563
325.03
325.461
325.864
326.219
326.494
326.695
326.939
327.379
321.792
322.192
322.487
322.63
322.656
322.611
322.545
322.498
322.474
322.323
320.225
319.789
319.841
320.053
320.317
320.591
320.858
321.105
321.323
321.508
321.66
321.783
321.886
321.975
322.055
322.131
322.2
322.262
322.312
322.353
322.396
322.444
322.496
322.535
322.547
322.533
322.485
322.381
322.286
322.276
322.307
322.37
322.451
322.468
322.48
322.523
322.564
322.605
322.64
322.664
322.678
322.688
322.7
322.716
322.732
322.747
322.76
322.769
322.777
322.783
322.788
322.793
322.799
322.807
322.817
322.831
322.849
322.87
322.895
322.922
322.949
322.974
322.995
323.011
323.02
323.024
323.026
323.031
323.05
323.122
323.756
324.292
324.756
325.186
325.589
325.945
326.22
326.419
326.661
327.094
321.575
321.966
322.254
322.392
322.413
322.363
322.293
322.242
322.217
322.072
320.023
319.6
319.652
319.86
320.118
320.388
320.654
320.903
321.123
321.304
321.443
321.546
321.625
321.694
321.761
321.83
321.9
321.967
322.022
322.064
322.097
322.128
322.161
322.191
322.205
322.203
322.168
322.066
321.956
321.928
321.955
322.026
322.119
322.148
322.176
322.237
322.298
322.355
322.399
322.426
322.44
322.452
322.468
322.487
322.506
322.524
322.539
322.551
322.56
322.568
322.575
322.581
322.588
322.597
322.607
322.621
322.637
322.658
322.681
322.706
322.731
322.754
322.773
322.787
322.794
322.797
322.797
322.802
322.823
322.9
323.531
324.067
324.534
324.966
325.372
325.729
326.004
326.202
326.436
326.863
321.36
321.743
322.025
322.156
322.172
322.118
322.044
321.99
321.967
321.849
319.951
319.573
319.629
319.823
320.061
320.311
320.557
320.789
320.99
321.145
321.249
321.307
321.337
321.362
321.395
321.442
321.503
321.568
321.627
321.672
321.702
321.722
321.742
321.759
321.771
321.779
321.765
321.685
321.588
321.545
321.562
321.628
321.717
321.763
321.816
321.916
322.02
322.117
322.19
322.237
322.267
322.291
322.315
322.339
322.36
322.377
322.388
322.397
322.404
322.41
322.415
322.421
322.426
322.432
322.438
322.446
322.457
322.47
322.487
322.506
322.525
322.542
322.555
322.563
322.565
322.562
322.557
322.557
322.572
322.641
323.291
323.843
324.324
324.768
325.179
325.54
325.814
326.007
326.235
326.654
321.148
321.523
321.798
321.924
321.934
321.876
321.797
321.742
321.729
321.736
321.649
321.667
321.737
321.825
321.92
322.026
322.148
322.283
322.41
322.508
322.561
322.571
322.559
322.554
322.578
322.639
322.73
322.835
322.936
323.021
323.083
323.128
323.165
323.198
323.229
323.271
323.308
323.275
323.216
323.148
323.121
323.129
323.132
323.109
323.093
323.14
323.191
323.223
323.229
323.217
323.204
323.205
323.222
323.249
323.278
323.306
323.332
323.357
323.38
323.402
323.423
323.444
323.462
323.479
323.497
323.517
323.54
323.566
323.596
323.626
323.657
323.686
323.71
323.728
323.739
323.746
323.752
323.765
323.798
323.871
324.033
324.248
324.513
324.817
325.136
325.434
325.665
325.823
326.021
326.413
320.94
321.307
321.575
321.695
321.701
321.638
321.556
321.498
321.486
321.518
321.57
321.645
321.726
321.804
321.881
321.968
322.075
322.203
322.334
322.441
322.498
322.501
322.471
322.442
322.445
322.497
322.589
322.7
322.811
322.905
322.976
323.024
323.06
323.09
323.129
323.202
323.304
323.352
323.393
323.331
323.264
323.204
323.106
323.036
322.976
323.008
323.051
323.075
323.072
323.056
323.046
323.055
323.078
323.108
323.137
323.163
323.187
323.21
323.231
323.251
323.269
323.286
323.302
323.319
323.337
323.358
323.383
323.412
323.445
323.481
323.517
323.55
323.578
323.601
323.616
323.625
323.634
323.65
323.685
323.754
323.877
324.059
324.299
324.586
324.894
325.182
325.403
325.552
325.737
326.115
320.737
321.096
321.358
321.472
321.473
321.405
321.32
321.259
321.245
321.279
321.344
321.425
321.507
321.583
321.654
321.732
321.831
321.958
322.099
322.223
322.299
322.311
322.276
322.228
322.211
322.247
322.335
322.448
322.561
322.658
322.732
322.783
322.817
322.85
322.908
323.033
323.223
323.363
323.525
323.492
323.385
323.241
323.025
322.891
322.762
322.764
322.796
322.812
322.803
322.786
322.782
322.799
322.83
322.865
322.895
322.923
322.948
322.971
322.993
323.013
323.031
323.048
323.063
323.079
323.096
323.117
323.141
323.169
323.201
323.235
323.27
323.302
323.329
323.349
323.362
323.369
323.374
323.385
323.415
323.477
323.588
323.757
323.986
324.261
324.557
324.834
325.043
325.18
325.35
325.708
320.539
320.889
321.145
321.254
321.249
321.177
321.088
321.024
321.008
321.04
321.105
321.186
321.268
321.342
321.409
321.479
321.569
321.69
321.835
321.973
322.069
322.099
322.069
322.012
321.975
321.994
322.073
322.186
322.3
322.397
322.469
322.518
322.55
322.588
322.68
322.881
323.179
323.404
323.69
323.713
323.569
323.329
322.983
322.77
322.541
322.487
322.499
322.508
322.496
322.482
322.485
322.509
322.543
322.578
322.609
322.637
322.662
322.686
322.708
322.728
322.745
322.76
322.774
322.786
322.8
322.816
322.835
322.857
322.883
322.91
322.936
322.958
322.975
322.984
322.985
322.979
322.971
322.968
322.983
323.031
323.126
323.28
323.493
323.754
324.037
324.301
324.5
324.628
324.787
325.121
320.34
320.682
320.932
321.035
321.026
320.95
320.856
320.789
320.77
320.799
320.863
320.942
321.024
321.097
321.162
321.226
321.305
321.414
321.553
321.699
321.813
321.865
321.85
321.794
321.744
321.743
321.81
321.921
322.038
322.136
322.207
322.251
322.276
322.317
322.45
322.746
323.168
323.466
323.867
323.98
323.795
323.419
322.935
322.627
322.268
322.138
322.122
322.127
322.116
322.104
322.109
322.13
322.157
322.183
322.207
322.23
322.251
322.268
322.283
322.295
322.303
322.308
322.311
322.312
322.313
322.315
322.318
322.323
322.332
322.342
322.353
322.361
322.363
322.359
322.347
322.33
322.312
322.303
322.313
322.357
322.45
322.603
322.816
323.077
323.362
323.629
323.833
323.966
324.127
324.446
320.137
320.47
320.714
320.811
320.796
320.716
320.619
320.548
320.526
320.552
320.614
320.691
320.771
320.845
320.909
320.969
321.037
321.131
321.258
321.402
321.528
321.603
321.611
321.566
321.509
321.489
321.537
321.644
321.768
321.873
321.948
321.987
322.003
322.04
322.205
322.595
323.157
323.525
324.187
324.422
324.146
323.519
322.703
322.263
321.745
321.522
321.474
321.468
321.452
321.434
321.427
321.43
321.436
321.445
321.459
321.476
321.492
321.505
321.514
321.52
321.522
321.522
321.519
321.515
321.51
321.504
321.502
321.503
321.509
321.518
321.53
321.541
321.549
321.553
321.553
321.548
321.546
321.551
321.577
321.635
321.742
321.908
322.133
322.406
322.701
322.98
323.195
323.339
323.506
323.817
319.926
320.251
320.487
320.578
320.558
320.473
320.372
320.297
320.272
320.296
320.354
320.429
320.508
320.582
320.648
320.706
320.767
320.846
320.955
321.089
321.22
321.314
321.346
321.319
321.264
321.226
321.247
321.344
321.473
321.593
321.682
321.724
321.735
321.765
321.942
322.4
323.091
323.494
324.095
324.333
323.811
322.799
321.866
321.303
320.659
320.384
320.321
320.327
320.335
320.344
320.36
320.377
320.397
320.423
320.456
320.493
320.529
320.557
320.579
320.595
320.606
320.613
320.616
320.617
320.619
320.623
320.632
320.646
320.667
320.692
320.722
320.752
320.779
320.803
320.822
320.837
320.853
320.877
320.92
320.994
321.116
321.294
321.53
321.814
322.119
322.407
322.632
322.784
322.957
323.264
319.712
320.028
320.257
320.342
320.316
320.226
320.121
320.043
320.014
320.035
320.09
320.163
320.24
320.314
320.381
320.441
320.499
320.566
320.657
320.776
320.904
321.009
321.064
321.059
321.011
320.96
320.951
321.027
321.156
321.292
321.403
321.459
321.479
321.509
321.681
322.158
322.934
323.372
324.896
324.76
323.839
322.506
320.48
319.92
319.341
319.166
319.186
319.265
319.34
319.405
319.46
319.502
319.536
319.571
319.611
319.651
319.687
319.716
319.738
319.756
319.772
319.788
319.802
319.817
319.834
319.854
319.879
319.91
319.947
319.989
320.035
320.082
320.127
320.168
320.203
320.234
320.266
320.304
320.36
320.447
320.579
320.767
321.012
321.303
321.615
321.909
322.14
322.299
322.477
322.782
319.508
319.815
320.038
320.117
320.086
319.992
319.882
319.8
319.769
319.786
319.839
319.909
319.984
320.057
320.127
320.19
320.248
320.309
320.385
320.485
320.603
320.714
320.787
320.804
320.771
320.719
320.688
320.735
320.851
320.992
321.117
321.194
321.242
321.297
321.469
321.917
322.696
322.919
322.077
321.381
320.52
319.542
319.126
318.854
318.462
318.437
318.535
318.666
318.778
318.863
318.92
318.952
318.963
318.969
318.98
318.999
319.023
319.047
319.068
319.089
319.111
319.136
319.161
319.188
319.216
319.248
319.284
319.326
319.374
319.428
319.486
319.544
319.601
319.654
319.701
319.743
319.785
319.833
319.898
319.993
320.133
320.327
320.577
320.873
321.189
321.488
321.723
321.887
322.067
322.371
319.334
319.634
319.851
319.925
319.89
319.791
319.678
319.593
319.559
319.574
319.624
319.692
319.765
319.837
319.907
319.974
320.036
320.095
320.16
320.244
320.349
320.458
320.543
320.583
320.576
320.547
320.525
320.542
320.63
320.752
320.861
320.955
321.044
321.158
321.356
321.748
322.457
322.348
316.691
315.944
315.346
314.863
318.45
318.455
318.145
318.16
318.23
318.334
318.437
318.518
318.565
318.581
318.576
318.561
318.549
318.547
318.557
318.575
318.596
318.619
318.644
318.673
318.705
318.738
318.774
318.812
318.855
318.902
318.955
319.013
319.076
319.141
319.205
319.264
319.318
319.368
319.416
319.471
319.541
319.641
319.785
319.982
320.236
320.534
320.853
321.155
321.392
321.559
321.74
322.044
319.208
319.502
319.715
319.785
319.747
319.646
319.531
319.444
319.408
319.422
319.471
319.537
319.608
319.679
319.749
319.818
319.883
319.944
320.004
320.075
320.165
320.267
320.362
320.431
320.468
320.493
320.528
320.53
320.58
320.652
320.699
320.794
320.926
321.129
321.391
321.716
322.283
321.84
312.049
311.279
310.952
310.958
318.06
318.357
318.133
318.146
318.129
318.169
318.247
318.328
318.384
318.41
318.406
318.381
318.346
318.32
318.312
318.32
318.337
318.356
318.379
318.406
318.437
318.47
318.505
318.544
318.586
318.632
318.685
318.743
318.808
318.875
318.941
319.004
319.062
319.115
319.166
319.224
319.297
319.399
319.545
319.745
320
320.3
320.62
320.923
321.162
321.33
321.512
321.816
319.138
319.429
319.64
319.708
319.668
319.566
319.45
319.363
319.326
319.34
319.39
319.456
319.528
319.599
319.668
319.738
319.805
319.869
319.928
319.99
320.065
320.159
320.265
320.376
320.484
320.589
320.726
320.737
320.746
320.744
320.684
320.753
320.909
321.215
321.573
321.848
322.254
321.555
309.675
308.784
308.639
309.069
318.196
318.731
318.549
318.49
318.317
318.24
318.263
318.333
318.402
318.446
318.454
318.425
318.374
318.322
318.288
318.278
318.291
318.3
318.311
318.326
318.347
318.372
318.4
318.432
318.468
318.509
318.557
318.612
318.674
318.741
318.807
318.871
318.929
318.983
319.036
319.094
319.168
319.271
319.417
319.617
319.873
320.173
320.494
320.797
321.037
321.205
321.389
321.693
319.124
319.414
319.624
319.691
319.651
319.548
319.432
319.344
319.308
319.323
319.374
319.442
319.515
319.587
319.658
319.728
319.798
319.865
319.927
319.984
320.048
320.134
320.262
320.437
320.642
320.839
321.093
321.137
321.109
321.02
320.826
320.831
318.429
318.424
318.412
318.406
318.409
318.418
318.434
318.455
318.482
318.515
318.556
318.605
318.663
318.725
318.789
318.851
318.908
318.96
319.012
319.069
319.142
319.244
319.391
319.59
319.846
320.146
320.467
320.77
321.011
321.179
321.362
321.667
319.152
319.442
319.653
319.721
319.68
319.577
319.46
319.372
319.336
319.351
319.402
319.471
319.545
319.619
319.69
319.76
319.831
319.902
319.968
320.025
320.082
320.168
320.331
320.596
320.925
321.211
321.582
321.682
321.621
321.431
321.087
320.994
318.671
318.642
318.608
318.582
318.567
318.563
318.567
318.579
318.597
318.622
318.656
318.698
318.748
318.805
318.864
318.921
318.975
319.024
319.073
319.127
319.198
319.299
319.444
319.643
319.898
320.197
320.518
320.821
321.061
321.229
321.413
321.718
319.203
319.495
319.707
319.776
319.736
319.633
319.516
319.428
319.39
319.404
319.454
319.522
319.596
319.668
319.738
319.807
319.876
319.947
320.015
320.073
320.125
320.214
320.422
320.794
321.271
321.64
322.12
322.314
322.22
321.892
321.386
321.144
318.89
318.858
318.822
318.792
318.773
318.764
318.763
318.77
318.782
318.8
318.825
318.858
318.9
318.949
319.001
319.053
319.101
319.146
319.191
319.242
319.309
319.408
319.55
319.747
320.001
320.3
320.62
320.922
321.161
321.329
321.512
321.819
319.258
319.553
319.766
319.837
319.798
319.696
319.58
319.492
319.455
319.469
319.518
319.585
319.657
319.728
319.796
319.862
319.927
319.994
320.06
320.115
320.16
320.248
320.492
320.966
321.595
322.05
322.805
323.147
322.992
322.428
321.569
321.135
319.037
319.03
319.015
319.003
318.997
318.994
318.996
319.001
319.008
319.02
319.036
319.059
319.09
319.128
319.171
319.215
319.257
319.296
319.335
319.381
319.445
319.539
319.679
319.873
320.125
320.422
320.741
321.043
321.281
321.447
321.63
321.939
319.304
319.6
319.815
319.887
319.85
319.75
319.635
319.549
319.513
319.528
319.578
319.646
319.719
319.791
319.858
319.922
319.985
320.049
320.112
320.163
320.204
320.285
320.539
321.074
321.825
322.34
323.109
323.556
323.245
322.333
321.338
320.757
319.04
319.06
319.073
319.086
319.103
319.115
319.128
319.139
319.151
319.164
319.18
319.201
319.228
319.262
319.301
319.341
319.38
319.417
319.454
319.498
319.559
319.652
319.789
319.983
320.233
320.53
320.849
321.15
321.388
321.553
321.735
322.045
319.333
319.63
319.846
319.919
319.883
319.783
319.67
319.585
319.55
319.566
319.618
319.687
319.762
319.835
319.904
319.969
320.032
320.095
320.157
320.21
320.25
320.322
320.555
321.08
321.877
322.469
324.426
324.746
324.138
322.881
320.633
320.043
319.033
319.061
319.085
319.112
319.145
319.168
319.19
319.208
319.223
319.239
319.256
319.277
319.304
319.337
319.374
319.413
319.452
319.488
319.525
319.569
319.63
319.722
319.859
320.053
320.304
320.602
320.921
321.223
321.461
321.626
321.808
322.117
319.347
319.644
319.86
319.933
319.897
319.798
319.685
319.6
319.566
319.582
319.634
319.704
319.779
319.853
319.923
319.989
320.053
320.116
320.178
320.234
320.279
320.342
320.524
320.962
321.677
322.078
322.034
321.777
321.111
320.152
319.511
319.254
319.069
319.098
319.129
319.163
319.203
319.234
319.265
319.29
319.31
319.329
319.347
319.368
319.392
319.421
319.454
319.49
319.525
319.56
319.595
319.636
319.695
319.786
319.922
320.115
320.365
320.662
320.981
321.281
321.518
321.681
321.861
322.166
319.35
319.647
319.863
319.936
319.899
319.8
319.686
319.601
319.567
319.583
319.634
319.704
319.78
319.854
319.925
319.992
320.057
320.12
320.183
320.242
320.294
320.349
320.469
320.763
321.28
321.285
316.29
315.825
315.362
314.927
318.649
318.76
319.217
319.247
319.275
319.299
319.318
319.346
319.376
319.402
319.423
319.441
319.458
319.476
319.496
319.521
319.549
319.58
319.612
319.643
319.675
319.713
319.77
319.857
319.991
320.182
320.43
320.726
321.043
321.343
321.577
321.737
321.914
322.215
319.348
319.645
319.861
319.933
319.896
319.797
319.683
319.597
319.562
319.578
319.629
319.699
319.774
319.848
319.92
319.987
320.053
320.116
320.179
320.241
320.3
320.356
320.428
320.57
320.802
320.297
310.74
310.086
309.877
310.031
317.793
318.321
319.508
319.545
319.561
319.552
319.509
319.514
319.527
319.549
319.57
319.586
319.6
319.612
319.626
319.644
319.665
319.689
319.716
319.743
319.771
319.806
319.859
319.943
320.074
320.262
320.509
320.803
321.118
321.416
321.648
321.805
321.978
322.276
319.346
319.643
319.858
319.931
319.894
319.794
319.681
319.595
319.56
319.575
319.626
319.695
319.77
319.844
319.915
319.983
320.047
320.11
320.172
320.233
320.296
320.357
320.413
320.454
320.405
319.393
307.167
306.259
306.255
306.981
317.221
318.122
319.945
319.998
319.997
319.934
319.789
319.745
319.717
319.722
319.738
319.752
319.762
319.771
319.779
319.79
319.804
319.821
319.841
319.862
319.886
319.917
319.965
320.045
320.171
320.356
320.6
320.89
321.203
321.498
321.726
321.88
322.049
322.344
319.347
319.643
319.859
319.931
319.895
319.796
319.682
319.597
319.562
319.578
319.629
319.698
319.773
319.847
319.918
319.986
320.05
320.111
320.17
320.229
320.289
320.351
320.407
320.426
320.252
318.941
305.513
304.251
304.328
305.522
317.512
318.553
320.493
320.572
320.549
320.42
320.153
320.031
319.924
319.892
319.898
319.911
319.921
319.928
319.934
319.94
319.948
319.959
319.973
319.988
320.005
320.03
320.072
320.145
320.266
320.444
320.682
320.967
321.274
321.562
321.785
321.932
322.095
322.386
319.351
319.647
319.863
319.936
319.899
319.8
319.687
319.602
319.568
319.583
319.635
319.705
319.78
319.855
319.927
319.994
320.058
320.118
320.177
320.234
320.291
320.347
320.396
320.414
320.262
318.991
305.611
304.265
304.244
305.456
318.195
319.241
321.122
321.241
321.192
320.988
320.592
320.369
320.144
320.047
320.03
320.041
320.051
320.056
320.058
320.06
320.062
320.066
320.072
320.079
320.088
320.104
320.137
320.2
320.31
320.477
320.703
320.976
321.271
321.547
321.758
321.894
322.046
322.328
319.358
319.655
319.871
319.943
319.907
319.808
319.695
319.61
319.576
319.591
319.643
319.713
319.788
319.863
319.934
320.001
320.064
320.124
320.182
320.238
320.293
320.346
320.39
320.395
320.226
318.952
305.59
304.211
304.148
305.375
318.57
319.739
321.795
321.982
321.89
321.569
321.051
320.713
320.339
320.153
320.101
320.101
320.104
320.098
320.089
320.08
320.071
320.064