/*--------------------------------*- C++ -*----------------------------------*\
| =========                 |                                                 |
| \\      /  F ield         | OpenFOAM: The Open Source CFD Toolbox           |
|  \\    /   O peration     | Version:  v2012                                 |
|   \\  /    A nd           | Website:  www.openfoam.com                      |
|    \\/     M anipulation  |                                                 |
\*---------------------------------------------------------------------------*/
FoamFile
{
    version     2.0;
    format      ascii;
    class       volScalarField;
    location    "250/concrete";
    object      T;
}
// * * * * * * * * * * * * * * * * * * * * * * * * * * * * * * * * * * * * * //

dimensions      [0 0 0 1 0 0 0];


internalField   nonuniform List<scalar> 
1924
(
324.217
324.5
324.837
325
325.188
324.204
311.569
310.336
310.218
311.085
322.219
322.809
322.445
322.185
321.872
321.716
321.696
321.746
321.829
321.932
322.049
322.171
322.288
322.396
322.494
322.594
324.21
324.44
324.709
324.791
325.06
324.14
311.791
310.571
310.514
311.565
323.639
324.406
323.925
323.592
323.159
322.886
322.751
322.691
322.666
322.667
322.687
322.717
322.751
322.787
322.829
322.89
324.054
324.132
324.228
324.257
324.756
323.862
311.319
310.048
310.027
311.251
323.985
324.903
324.173
323.831
323.42
323.168
323.037
322.964
322.896
322.829
322.779
322.759
322.77
322.814
322.889
322.993
323.637
323.544
323.434
323.364
323.432
322.477
311.791
310.65
310.639
311.846
323.594
325.032
324.815
324.494
323.906
323.421
323.061
323.071
323.114
322.995
322.807
322.759
322.788
322.846
322.929
323.024
322.91
322.798
322.586
321.35
303.098
300.281
298.509
298.03
298.036
298.554
300.481
303.531
323.313
324.238
323.756
323.374
323.186
323.136
323.119
323.085
323.039
323.006
322.991
322.997
323.033
323.085
322.122
322.265
322.389
321.105
300.342
297.073
296.165
295.907
295.91
296.182
297.137
300.596
322.847
324.316
323.991
323.639
323.413
323.278
323.182
323.103
323.026
322.966
322.927
322.918
322.937
322.972
321.544
321.959
322.356
321.22
299.815
296.407
295.602
295.396
295.396
295.607
296.437
300.006
322.749
324.297
324.008
323.66
323.406
323.217
323.075
322.97
322.896
322.851
322.832
322.84
322.86
322.891
321.288
321.793
322.312
321.318
299.697
296.248
295.456
295.261
295.26
295.456
296.268
299.868
322.731
324.268
323.99
323.64
323.373
323.18
323.037
322.94
322.88
322.853
322.859
322.88
322.905
322.946
321.095
321.571
322.084
321.165
299.644
296.211
295.426
295.235
295.234
295.426
296.234
299.842
322.734
324.286
324.022
323.708
323.468
323.286
323.147
323.058
323.006
322.994
323.013
323.044
323.087
323.16
321.053
321.386
321.746
320.791
299.608
296.236
295.467
295.278
295.275
295.463
296.266
299.87
322.808
324.428
324.183
323.93
323.696
323.513
323.369
323.274
323.229
323.215
323.235
323.288
323.375
323.498
321.427
321.441
321.452
320.336
299.695
296.446
295.707
295.52
295.508
295.681
296.457
300.011
322.973
324.78
324.624
324.255
323.914
323.703
323.565
323.47
323.413
323.398
323.435
323.536
323.695
323.882
322.114
321.835
321.382
319.977
300.543
297.613
296.939
296.739
296.69
296.81
297.481
300.755
323.036
324.595
324.375
324.071
323.809
323.645
323.546
323.487
323.46
323.475
323.561
323.739
323.992
324.243
322.787
322.437
321.777
320.279
307.724
306.063
305.504
305.168
304.917
304.792
305.036
306.832
321.528
323.054
323.242
323.246
323.246
323.272
323.312
323.357
323.405
323.482
323.638
323.905
324.252
324.551
323.223
322.96
322.364
320.794
308.515
307.076
306.654
306.442
306.316
306.294
306.54
307.953
320.852
322.325
322.683
322.851
322.986
323.119
323.242
323.349
323.442
323.556
323.753
324.072
324.468
324.782
323.462
323.303
322.85
321.31
308.595
307.199
306.841
306.675
306.588
306.588
306.811
308.129
321.015
322.458
322.82
322.997
323.137
323.268
323.39
323.496
323.588
323.7
323.892
324.203
324.589
324.863
323.611
323.512
323.18
321.748
308.729
307.343
307.018
306.877
306.811
306.825
307.04
308.32
321.252
322.644
322.976
323.141
323.275
323.4
323.517
323.622
323.717
323.824
323.993
324.263
324.608
324.866
323.739
323.662
323.407
322.157
310.062
308.785
308.498
308.38
308.329
308.348
308.54
309.71
321.689
322.953
323.244
323.39
323.509
323.618
323.72
323.814
323.902
323.995
324.124
324.32
324.571
324.551
323.857
323.795
323.61
322.66
313.336
312.339
312.12
312.035
312
312.015
312.164
313.076
322.338
323.325
323.553
323.67
323.767
323.856
323.94
324.021
324.101
324.181
324.271
324.382
324.485
323.997
323.956
323.913
323.801
323.232
317.822
317.219
317.089
317.045
317.029
317.042
317.139
317.699
323.098
323.711
323.865
323.95
324.023
324.092
324.158
324.223
324.292
324.361
324.425
324.469
324.411
323.429
324.035
324.011
323.964
323.739
321.854
321.614
321.565
321.556
321.559
321.572
321.625
321.863
323.769
324.04
324.126
324.183
324.235
324.286
324.336
324.388
324.444
324.504
324.557
324.569
324.4
323.083
324.101
324.093
324.09
324.078
324.247
324.232
324.237
324.252
324.267
324.282
324.305
324.344
324.211
324.269
324.312
324.35
324.389
324.43
324.471
324.513
324.559
324.607
324.651
324.653
324.451
323.065
324.169
324.169
324.186
324.252
324.995
325.063
325.092
325.118
325.139
325.155
325.165
325.133
324.43
324.413
324.437
324.466
324.5
324.535
324.572
324.61
324.649
324.688
324.721
324.713
324.51
323.15
324.246
324.249
324.271
324.334
324.852
324.917
324.95
324.979
325.002
325.019
325.027
325
324.524
324.512
324.532
324.559
324.59
324.624
324.66
324.696
324.731
324.766
324.791
324.776
324.568
323.222
324.333
324.338
324.359
324.398
324.562
324.6
324.631
324.658
324.682
324.7
324.712
324.71
324.591
324.605
324.628
324.654
324.684
324.717
324.751
324.786
324.82
324.852
324.874
324.859
324.669
323.43
324.43
324.436
324.457
324.482
324.459
324.479
324.507
324.532
324.555
324.576
324.593
324.61
324.678
324.71
324.733
324.759
324.787
324.819
324.852
324.886
324.919
324.949
324.97
324.961
324.811
323.814
324.533
324.54
324.564
324.587
324.537
324.553
324.578
324.603
324.626
324.649
324.67
324.693
324.791
324.826
324.849
324.873
324.9
324.929
324.96
324.993
325.024
325.054
325.077
325.079
324.986
324.34
324.638
324.648
324.674
324.702
324.684
324.702
324.726
324.749
324.772
324.797
324.821
324.845
324.914
324.947
324.968
324.99
325.015
325.042
325.071
325.102
325.133
325.162
325.188
325.201
325.166
324.87
324.743
324.756
324.785
324.817
324.826
324.844
324.868
324.891
324.915
324.94
324.966
324.991
325.036
325.068
325.088
325.107
325.13
325.155
325.183
325.212
325.241
325.27
325.298
325.321
325.329
325.281
324.848
324.863
324.895
324.929
324.945
324.964
324.988
325.011
325.035
325.061
325.088
325.113
325.154
325.186
325.205
325.223
325.243
325.267
325.293
325.32
325.348
325.376
325.405
325.433
325.465
325.535
324.952
324.969
325.003
325.038
325.053
325.071
325.095
325.119
325.144
325.17
325.197
325.224
325.267
325.301
325.321
325.337
325.356
325.378
325.402
325.428
325.454
325.482
325.511
325.541
325.58
325.672
325.056
325.075
325.11
325.144
325.158
325.176
325.2
325.225
325.251
325.277
325.304
325.332
325.378
325.414
325.435
325.451
325.469
325.489
325.511
325.535
325.561
325.588
325.616
325.647
325.685
325.76
325.159
325.179
325.214
325.248
325.262
325.281
325.306
325.332
325.358
325.385
325.412
325.44
325.486
325.523
325.545
325.563
325.581
325.599
325.62
325.643
325.667
325.693
325.721
325.751
325.786
325.844
325.258
325.278
325.313
325.346
325.362
325.383
325.409
325.437
325.464
325.49
325.518
325.546
325.59
325.626
325.651
325.67
325.688
325.706
325.726
325.747
325.771
325.796
325.823
325.852
325.886
325.935
325.349
325.369
325.403
325.436
325.455
325.478
325.505
325.533
325.561
325.589
325.616
325.644
325.685
325.72
325.746
325.768
325.787
325.806
325.824
325.845
325.868
325.893
325.919
325.947
325.98
326.028
325.429
325.449
325.481
325.514
325.537
325.561
325.59
325.619
325.648
325.675
325.703
325.731
325.768
325.802
325.83
325.853
325.874
325.894
325.913
325.933
325.956
325.98
326.006
326.033
326.064
326.113
325.497
325.517
325.549
325.581
325.607
325.634
325.664
325.694
325.723
325.751
325.779
325.807
325.842
325.874
325.901
325.927
325.95
325.971
325.991
326.012
326.034
326.058
326.083
326.109
326.139
326.187
325.565
325.587
325.619
325.652
325.681
325.71
325.74
325.771
325.8
325.829
325.858
325.886
325.918
325.948
325.976
326.002
326.027
326.049
326.071
326.093
326.116
326.139
326.164
326.189
326.218
326.262
325.971
326.267
326.618
326.784
327.065
326.436
311.828
310.928
310.815
311.365
324.254
324.466
323.984
323.706
323.38
323.232
323.223
323.283
323.377
323.495
323.63
323.771
323.906
324.031
324.147
324.26
325.961
326.197
326.468
326.536
326.901
326.322
312.063
311.17
311.117
311.844
325.818
326.228
325.621
325.277
324.835
324.569
324.436
324.371
324.343
324.345
324.37
324.405
324.444
324.484
324.531
324.593
325.785
325.858
325.936
325.958
326.64
326.095
311.526
310.563
310.542
311.446
326.227
326.786
325.832
325.475
325.08
324.867
324.759
324.696
324.632
324.56
324.498
324.463
324.465
324.508
324.592
324.709
325.327
325.22
325.085
325.12
325.871
325.32
312.774
311.862
311.845
312.797
326.613
327.715
326.746
326.292
325.664
325.188
324.752
324.744
324.92
324.924
324.64
324.523
324.534
324.592
324.682
324.785
324.525
324.411
324.233
323.471
301.805
299.312
297.748
297.339
297.344
297.786
299.488
302.19
325.774
326.141
325.53
325.134
324.951
324.924
324.94
324.929
324.879
324.832
324.804
324.801
324.833
324.878
323.66
323.841
324.093
323.459
299.354
296.466
295.689
295.469
295.472
295.703
296.521
299.579
325.461
326.289
325.836
325.477
325.256
325.12
325.02
324.94
324.855
324.78
324.727
324.707
324.721
324.746
323.046
323.526
324.092
323.677
298.905
295.896
295.208
295.033
295.033
295.212
295.921
299.074
325.431
326.292
325.864
325.503
325.247
325.044
324.884
324.765
324.679
324.625
324.598
324.602
324.619
324.64
322.807
323.367
324.063
323.823
298.805
295.761
295.084
294.918
294.918
295.084
295.778
298.957
325.437
326.267
325.843
325.47
325.186
324.973
324.81
324.7
324.631
324.599
324.604
324.625
324.647
324.681
322.622
323.139
323.822
323.663
298.76
295.729
295.059
294.896
294.895
295.058
295.749
298.935
325.445
326.289
325.87
325.525
325.264
325.059
324.899
324.8
324.741
324.727
324.747
324.778
324.822
324.89
322.587
322.95
323.462
323.241
298.728
295.751
295.093
294.933
294.93
295.09
295.776
298.959
325.531
326.46
326.043
325.757
325.496
325.289
325.122
325.015
324.966
324.949
324.968
325.022
325.112
325.232
323.012
323.027
323.152
322.717
298.8
295.93
295.299
295.14
295.129
295.276
295.94
299.081
325.73
326.91
326.581
326.122
325.73
325.49
325.333
325.224
325.158
325.136
325.171
325.274
325.439
325.624
323.783
323.479
323.076
322.248
299.558
296.968
296.391
296.221
296.178
296.278
296.851
299.748
325.822
326.726
326.301
325.918
325.612
325.421
325.305
325.236
325.201
325.211
325.294
325.476
325.738
325.986
324.528
324.149
323.506
322.385
308.208
306.944
306.459
306.124
305.85
305.681
305.81
307.159
323.835
324.904
324.986
324.964
324.96
324.988
325.032
325.08
325.131
325.21
325.365
325.636
325.991
326.284
324.999
324.724
324.157
322.911
308.856
307.78
307.432
307.236
307.111
307.071
307.234
308.256
322.987
324.085
324.372
324.534
324.678
324.822
324.957
325.074
325.175
325.292
325.487
325.802
326.198
326.499
325.246
325.093
324.693
323.485
308.868
307.836
307.552
307.4
307.311
307.293
307.436
308.375
323.183
324.264
324.556
324.723
324.866
325.005
325.134
325.247
325.345
325.458
325.643
325.941
326.316
326.576
325.394
325.31
325.045
323.964
308.939
307.913
307.659
307.53
307.462
307.46
307.598
308.508
323.425
324.459
324.721
324.876
325.013
325.145
325.269
325.382
325.484
325.594
325.756
326.009
326.34
326.584
325.521
325.462
325.274
324.354
310.363
309.411
309.189
309.08
309.027
309.031
309.155
309.988
323.845
324.783
325.01
325.147
325.269
325.383
325.491
325.591
325.686
325.784
325.908
326.091
326.338
326.359
325.641
325.596
325.466
324.776
314.002
313.258
313.09
313.013
312.977
312.98
313.075
313.725
324.428
325.16
325.338
325.448
325.548
325.642
325.73
325.816
325.902
325.988
326.079
326.186
326.308
325.975
325.743
325.715
325.639
325.231
319.029
318.582
318.485
318.448
318.432
318.436
318.498
318.898
325.088
325.547
325.669
325.75
325.825
325.897
325.967
326.036
326.11
326.185
326.256
326.309
326.297
325.575
325.824
325.813
325.785
325.628
323.53
323.356
323.325
323.321
323.325
323.335
323.371
323.544
325.664
325.871
325.944
325.999
326.053
326.106
326.16
326.214
326.274
326.339
326.401
326.434
326.338
325.348
325.894
325.896
325.9
325.898
326.164
326.159
326.17
326.188
326.205
326.219
326.239
326.271
326.045
326.097
326.138
326.177
326.218
326.261
326.304
326.349
326.398
326.451
326.503
326.528
326.411
325.407
325.966
325.975
325.994
326.048
326.944
327
327.03
327.058
327.081
327.098
327.111
327.093
326.243
326.241
326.268
326.299
326.335
326.373
326.412
326.452
326.494
326.537
326.577
326.591
326.474
325.505
326.047
326.059
326.082
326.135
326.739
326.793
326.827
326.858
326.883
326.901
326.913
326.899
326.34
326.343
326.367
326.397
326.43
326.466
326.505
326.543
326.581
326.619
326.651
326.657
326.532
325.57
326.14
326.153
326.177
326.213
326.394
326.428
326.46
326.49
326.515
326.535
326.55
326.554
326.42
326.443
326.468
326.496
326.528
326.564
326.601
326.638
326.675
326.709
326.738
326.741
326.627
325.743
326.241
326.256
326.28
326.308
326.273
326.295
326.324
326.351
326.376
326.398
326.418
326.435
326.519
326.553
326.578
326.606
326.637
326.67
326.706
326.742
326.777
326.81
326.837
326.843
326.754
326.044
326.346
326.363
326.39
326.418
326.357
326.375
326.403
326.429
326.454
326.478
326.502
326.524
326.638
326.674
326.698
326.723
326.752
326.784
326.817
326.852
326.886
326.918
326.946
326.959
326.908
326.452
326.452
326.471
326.502
326.534
326.512
326.532
326.559
326.584
326.609
326.635
326.661
326.685
326.763
326.797
326.819
326.842
326.869
326.898
326.929
326.962
326.995
327.027
327.056
327.076
327.064
326.861
326.555
326.577
326.611
326.647
326.656
326.677
326.703
326.727
326.753
326.781
326.808
326.833
326.883
326.917
326.937
326.958
326.982
327.009
327.039
327.07
327.101
327.132
327.162
327.189
327.206
327.182
326.654
326.679
326.715
326.753
326.771
326.791
326.817
326.842
326.868
326.896
326.925
326.952
326.995
327.03
327.05
327.068
327.09
327.116
327.143
327.172
327.202
327.233
327.263
327.293
327.326
327.386
326.749
326.776
326.814
326.853
326.868
326.888
326.914
326.94
326.967
326.995
327.024
327.052
327.1
327.136
327.156
327.174
327.194
327.217
327.243
327.27
327.299
327.328
327.358
327.39
327.428
327.503
326.838
326.867
326.906
326.945
326.958
326.978
327.005
327.032
327.059
327.087
327.117
327.145
327.196
327.234
327.256
327.274
327.293
327.314
327.338
327.363
327.391
327.419
327.449
327.481
327.518
327.581
326.921
326.951
326.99
327.028
327.042
327.063
327.09
327.119
327.147
327.175
327.204
327.233
327.284
327.323
327.347
327.366
327.384
327.404
327.426
327.45
327.476
327.504
327.533
327.564
327.6
327.649
326.993
327.024
327.063
327.1
327.117
327.139
327.167
327.197
327.226
327.255
327.284
327.313
327.361
327.4
327.426
327.447
327.465
327.485
327.505
327.528
327.553
327.58
327.608
327.639
327.673
327.716
327.054
327.084
327.122
327.158
327.178
327.203
327.232
327.263
327.293
327.322
327.351
327.38
327.425
327.462
327.49
327.513
327.534
327.553
327.573
327.595
327.619
327.645
327.673
327.702
327.735
327.778
327.101
327.131
327.168
327.203
327.227
327.254
327.285
327.316
327.346
327.376
327.406
327.435
327.475
327.511
327.54
327.565
327.588
327.608
327.628
327.65
327.674
327.699
327.726
327.755
327.786
327.829
327.138
327.168
327.204
327.239
327.266
327.295
327.327
327.359
327.39
327.42
327.45
327.48
327.517
327.551
327.58
327.607
327.631
327.653
327.675
327.697
327.72
327.745
327.772
327.799
327.83
327.872
327.175
327.206
327.242
327.277
327.308
327.339
327.372
327.404
327.436
327.466
327.497
327.527
327.56
327.593
327.622
327.65
327.676
327.7
327.723
327.746
327.77
327.795
327.821
327.847
327.876
327.915
)
;

boundaryField
{
    concrete_to_air
    {
        type            compressible::turbulentTemperatureRadCoupledMixed;
        refValue        nonuniform List<scalar> 
898
(
312.969
313.013
313.043
313.057
313.088
313.118
312.899
312.619
312.316
312.056
312.029
312.01
311.996
311.988
311.985
311.987
311.995
312.01
312.031
312.055
312.084
312.114
312.146
312.178
312.209
312.24
312.939
312.941
312.913
312.864
312.875
312.911
312.764
312.63
312.497
312.373
312.447
312.511
312.553
312.576
312.58
312.572
312.558
312.544
312.533
312.527
312.528
312.535
312.546
312.562
312.582
312.605
312.823
312.761
312.666
312.58
312.613
312.671
312.505
312.357
312.232
312.132
312.273
312.402
312.5
312.582
312.645
312.692
312.724
312.744
312.761
312.78
312.802
312.824
312.846
312.865
312.879
312.885
312.584
312.477
312.361
312.324
312.44
312.585
312.383
312.2
312.062
311.981
312.346
312.673
312.896
313.012
313.066
313.081
313.08
313.113
313.21
313.131
312.663
312.463
312.367
312.304
312.267
312.247
312.25
312.17
312.12
312.2
313.144
312.939
312.793
312.695
312.573
312.425
312.268
312.136
312.052
311.993
311.953
311.924
311.911
311.909
311.924
311.928
311.991
312.208
312.807
312.509
312.319
312.19
312.087
312
311.925
311.864
311.812
311.77
311.741
311.723
311.722
311.726
311.664
311.75
311.906
312.257
312.705
312.366
312.166
312.034
311.932
311.842
311.769
311.715
311.676
311.65
311.635
311.632
311.639
311.647
311.442
311.572
311.788
312.239
312.661
312.302
312.095
311.951
311.845
311.765
311.704
311.662
311.635
311.619
311.617
311.625
311.637
311.652
311.222
311.368
311.601
312.089
312.664
312.282
312.066
311.936
311.846
311.776
311.72
311.686
311.667
311.661
311.671
311.685
311.704
311.728
311.178
311.312
311.516
311.937
312.728
312.343
312.101
312.014
311.928
311.858
311.802
311.768
311.76
311.763
311.776
311.798
311.826
311.861
311.323
311.383
311.498
311.798
312.921
312.621
312.374
312.188
312.033
311.951
311.902
311.878
311.873
311.882
311.903
311.935
311.976
312.025
311.574
311.559
311.57
311.737
313.039
312.564
312.269
312.097
311.984
311.928
311.91
311.916
311.937
311.97
312.013
312.066
312.128
312.197
311.83
311.788
311.735
311.767
311.563
311.32
311.068
310.82
310.585
310.374
310.207
310.146
310.709
311.043
311.269
311.436
311.57
311.683
311.781
311.871
311.954
312.035
312.116
312.202
312.293
312.384
312.046
312.026
311.971
311.927
311.726
311.542
311.373
311.222
311.087
310.968
310.866
310.792
310.999
311.187
311.353
311.501
311.635
311.76
311.877
311.987
312.093
312.196
312.298
312.404
312.511
312.609
312.232
312.242
312.217
312.169
311.962
311.78
311.62
311.477
311.35
311.237
311.139
311.063
311.227
311.388
311.539
311.682
311.818
311.948
312.072
312.192
312.308
312.421
312.533
312.645
312.751
312.821
312.427
312.451
312.455
312.433
312.229
312.045
311.883
311.739
311.61
311.497
311.397
311.317
311.46
311.606
311.748
311.887
312.023
312.155
312.284
312.41
312.532
312.65
312.767
312.878
312.967
312.966
312.633
312.661
312.679
312.681
312.502
312.337
312.188
312.055
311.937
311.832
311.741
311.669
311.797
311.932
312.066
312.199
312.33
312.458
312.583
312.704
312.821
312.934
313.042
313.132
313.174
313.033
312.811
312.842
312.87
312.889
312.763
312.643
312.533
312.436
312.351
312.277
312.216
312.172
312.281
312.396
312.513
312.629
312.743
312.855
312.964
313.069
313.169
313.265
313.354
313.419
313.425
313.22
312.921
312.961
312.999
313.032
312.978
312.924
312.875
312.832
312.798
312.773
312.757
312.753
312.838
312.928
313.018
313.107
313.196
313.282
313.365
313.445
313.521
313.593
313.66
313.702
313.681
313.435
312.965
313.013
313.059
313.103
313.115
313.124
313.134
313.146
313.161
313.181
313.207
313.239
313.302
313.367
313.432
313.496
313.559
313.62
313.68
313.737
313.792
313.844
313.892
313.922
313.89
313.635
312.972
313.024
313.075
313.126
313.177
313.225
313.272
313.319
313.366
313.415
313.465
313.517
313.566
313.615
313.664
313.711
313.758
313.804
313.848
313.891
313.933
313.974
314.013
314.05
314.065
313.996
312.971
313.024
313.077
313.13
313.193
313.254
313.314
313.373
313.431
313.489
313.546
313.602
313.646
313.689
313.732
313.773
313.814
313.854
313.893
313.931
313.969
314.005
314.041
314.076
314.106
314.103
312.976
313.029
313.082
313.135
313.194
313.253
313.311
313.369
313.425
313.481
313.535
313.588
313.632
313.675
313.717
313.759
313.799
313.839
313.878
313.916
313.953
313.99
314.026
314.061
314.094
314.115
312.989
313.041
313.094
313.146
313.199
313.252
313.305
313.357
313.409
313.459
313.509
313.558
313.603
313.648
313.692
313.734
313.776
313.817
313.858
313.897
313.936
313.974
314.011
314.047
314.081
314.105
313.005
313.058
313.11
313.161
313.211
313.261
313.311
313.36
313.408
313.456
313.503
313.549
313.595
313.641
313.686
313.729
313.772
313.814
313.856
313.896
313.935
313.974
314.012
314.049
314.084
314.111
313.022
313.075
313.127
313.179
313.229
313.278
313.327
313.375
313.422
313.47
313.516
313.562
313.608
313.654
313.699
313.743
313.786
313.828
313.87
313.91
313.95
313.99
314.028
314.066
314.102
314.132
313.041
313.094
313.146
313.198
313.248
313.298
313.347
313.396
313.443
313.491
313.538
313.584
313.63
313.676
313.72
313.764
313.807
313.85
313.891
313.932
313.972
314.012
314.051
314.089
314.125
314.16
313.059
313.112
313.165
313.217
313.268
313.318
313.368
313.417
313.465
313.513
313.56
313.607
313.653
313.699
313.743
313.787
313.83
313.873
313.915
313.956
313.996
314.036
314.075
314.113
314.151
314.187
313.077
313.131
313.184
313.236
313.288
313.338
313.388
313.438
313.486
313.534
313.582
313.629
313.675
313.721
313.766
313.81
313.853
313.896
313.938
313.979
314.019
314.059
314.099
314.137
314.176
314.214
313.095
313.15
313.203
313.256
313.308
313.359
313.409
313.458
313.507
313.555
313.603
313.65
313.697
313.743
313.788
313.832
313.876
313.919
313.961
314.003
314.043
314.084
314.123
314.162
314.201
314.24
313.114
313.168
313.222
313.275
313.328
313.379
313.43
313.479
313.529
313.577
313.625
313.672
313.719
313.765
313.811
313.856
313.9
313.943
313.985
314.027
314.069
314.109
314.149
314.189
314.228
314.267
313.132
313.187
313.242
313.295
313.348
313.4
313.451
313.501
313.55
313.599
313.648
313.695
313.742
313.789
313.835
313.88
313.925
313.968
314.011
314.054
314.095
314.136
314.177
314.217
314.256
314.296
313.151
313.206
313.261
313.315
313.368
313.42
313.472
313.523
313.573
313.622
313.671
313.719
313.766
313.813
313.86
313.905
313.95
313.994
314.038
314.08
314.122
314.164
314.205
314.245
314.285
314.325
313.168
313.224
313.28
313.334
313.388
313.44
313.492
313.543
313.594
313.644
313.693
313.741
313.789
313.837
313.884
313.93
313.975
314.02
314.063
314.107
314.149
314.191
314.233
314.274
314.314
314.354
313.184
313.24
313.296
313.351
313.405
313.458
313.511
313.562
313.613
313.664
313.713
313.762
313.811
313.858
313.906
313.952
313.998
314.043
314.087
314.131
314.174
314.217
314.258
314.3
314.341
314.382
313.197
313.254
313.31
313.365
313.42
313.473
313.526
313.578
313.63
313.68
313.73
313.78
313.829
313.877
313.924
313.971
314.018
314.063
314.108
314.152
314.196
314.239
314.281
314.323
314.364
314.406
313.206
313.264
313.32
313.376
313.431
313.485
313.538
313.591
313.643
313.694
313.744
313.794
313.843
313.892
313.94
313.987
314.034
314.08
314.125
314.17
314.214
314.257
314.3
314.343
314.385
314.426
)
;
        refGradient     nonuniform List<scalar> 
898
(
58.1812
58.8375
60.0759
61.3167
63.8751
67.8893
-1.44025
1.65756
2.04449
-0.0907766
77.1349
74.499
72.474
71.8775
70.5555
69.7746
69.2339
68.6866
68.117
67.5896
67.1094
66.6328
66.1265
65.5977
65.0796
64.5855
58.1979
59.0455
60.9202
63.1656
66.6183
70.4471
-0.663718
2.01263
2.38187
0.260747
72.1813
68.454
65.3212
64.543
63.6122
63.4537
63.5453
63.6199
63.6841
63.7843
63.8806
63.901
63.8095
63.6171
63.3547
63.0279
58.6133
59.9231
62.7367
66.1374
71.6271
74.9368
-2.94494
-0.753111
-0.3357
-1.93815
75.0383
70.9481
64.9491
63.405
62.2848
62.1427
62.2649
62.5209
62.9659
63.5065
63.9447
64.1215
63.9944
63.6185
63.0891
62.4845
60.234
62.1714
65.5209
69.2063
83.2518
85.6809
13.6732
14.8481
15.0833
14.0251
81.1128
76.308
60.1304
58.6251
59.1752
60.9988
61.1752
60.1465
61.6996
63.6818
64.206
64.1644
63.8625
63.4167
62.8676
62.3451
63.0097
64.7201
67.0024
71.0441
59.3075
56.9316
58.6088
59.908
60.6743
61.0741
61.4932
61.9872
62.3694
62.573
62.6177
62.551
62.3137
62.0362
66.8379
67.3246
67.7349
70.7554
60.1274
55.9934
57.0328
58.4322
59.6035
60.4929
61.2089
61.8907
62.4722
62.8449
63.0386
63.0395
62.8556
62.6219
69.182
68.1801
67.1445
69.2998
59.8212
55.423
56.4966
58.1314
59.5856
60.7728
61.7012
62.4127
62.9229
63.231
63.358
63.2752
63.0765
62.8602
69.8421
68.1831
66.5039
68.1507
59.4273
54.9997
56.1934
58.118
59.7669
60.9375
61.787
62.3753
62.7667
62.9757
62.9959
62.8841
62.7101
62.5265
70.4596
68.4974
66.659
68.3112
58.9826
54.373
55.7835
57.7429
59.3145
60.4392
61.2367
61.7132
61.9947
62.0852
62.0538
61.9946
61.9002
61.7984
70.6266
68.8812
67.3646
69.5298
58.1403
53.3295
55.0591
56.7243
58.2193
59.3619
60.2022
60.6717
60.8518
60.9154
60.9374
60.9826
61.0472
61.0729
68.9174
68.5416
68.1617
71.0119
56.7747
51.3189
52.7939
55.0394
57.1884
58.4635
59.3194
59.7843
60.0004
60.0652
60.1179
60.2599
60.4999
60.6253
65.7076
66.9104
68.581
72.2343
55.5759
52.4983
54.497
56.2933
57.8723
58.9332
59.5607
59.8484
59.8958
59.818
59.7674
59.8872
60.1934
60.3081
62.7436
64.3611
66.9132
70.1779
-7.11697
-4.51811
-3.53825
-2.6716
-1.83466
-1.11175
-0.867624
-3.64289
63.6135
60.8703
60.7991
60.9824
61.1042
61.0939
60.9477
60.6837
60.3299
59.9361
59.6218
59.5341
59.7133
59.713
60.6423
61.7242
63.9071
68.138
-6.8933
-4.47757
-3.96132
-3.6191
-3.28166
-2.95773
-2.88048
-5.08193
67.4834
64.2884
63.4032
62.8394
62.3407
61.8607
61.3674
60.846
60.2971
59.7295
59.211
58.8829
58.8561
58.7659
59.6798
60.22
61.6825
65.9155
-7.82253
-5.22282
-4.72939
-4.48993
-4.23035
-3.95715
-3.96757
-6.32464
66.9448
63.5973
62.6176
62.0416
61.5753
61.1502
60.7236
60.2771
59.8009
59.2672
58.6814
58.1819
58.0037
58.0537
59.3205
59.549
60.4613
64.2368
-8.64014
-5.92492
-5.43658
-5.27681
-5.08555
-4.86067
-4.95374
-7.41776
66.379
63.112
62.2042
61.7117
61.3044
60.9051
60.4893
60.0574
59.6041
59.0789
58.4302
57.7768
57.4639
57.7301
59.2407
59.3391
59.9372
63.0924
-3.48577
-0.893664
-0.390648
-0.23305
-0.0686804
0.104549
-0.0493387
-2.4093
65.173
62.1952
61.3987
60.9979
60.6689
60.3256
59.9519
59.5614
59.1596
58.6974
58.0902
57.4175
57.1067
58.406
59.3042
59.3453
59.7318
62.0569
11.7263
13.8435
14.3253
14.5114
14.6539
14.7478
14.5482
12.5965
63.5124
61.1834
60.5422
60.2147
59.9425
59.6477
59.3164
58.9662
58.6132
58.2336
57.7525
57.1878
56.9493
59.2872
59.4851
59.4878
59.6911
61.0482
33.0444
34.3821
34.7358
34.8916
34.9767
34.9817
34.7752
33.482
61.6515
60.1916
59.7241
59.4513
59.2153
58.9611
58.6764
58.3738
58.0704
57.7687
57.4427
57.1024
57.0776
60.1747
59.7524
59.7225
59.7726
60.2789
51.6779
52.2099
52.3749
52.4438
52.4483
52.3789
52.1958
51.5733
60.0976
59.4443
59.1451
58.9279
58.7273
58.5132
58.2758
58.0212
57.7618
57.5091
57.2769
57.1249
57.3776
60.8539
60.0612
60.0057
59.9539
59.9353
61.958
61.9479
61.9597
61.9464
61.8871
61.7736
61.6177
61.4364
59.2383
59.09
58.9052
58.7295
58.5567
58.3744
58.1747
57.9599
57.7397
57.5251
57.3363
57.2538
57.6474
60.9856
60.3753
60.3025
60.2007
59.9919
64.3818
64.1661
64.1023
64.0434
63.9526
63.8226
63.6814
63.653
59.0556
59.0871
58.9548
58.8041
58.6517
58.4941
58.3242
58.1394
57.9461
57.7572
57.594
57.5321
57.9319
61.26
60.6837
60.601
60.4841
60.2846
62.9282
62.7204
62.64
62.5663
62.4689
62.3413
62.2058
62.154
59.2922
59.3063
59.182
59.0401
58.897
58.7525
58.6014
58.4379
58.2641
58.0931
57.9531
57.9218
58.3366
61.5901
60.9872
60.8991
60.7823
60.6462
61.1739
61.0299
60.9518
60.8718
60.7742
60.6547
60.5223
60.4043
59.6502
59.5934
59.4595
59.3186
59.1792
59.0411
58.9014
58.7544
58.5984
58.4424
58.312
58.2813
58.6641
61.681
61.2825
61.1913
61.0772
60.9838
60.5194
60.4126
60.3317
60.242
60.1414
60.0289
59.9016
59.7448
59.9761
59.8718
59.727
59.5845
59.4468
59.3116
59.1779
59.0422
58.9011
58.7592
58.6364
58.5944
58.8894
61.3166
61.5557
61.4626
61.3504
61.2692
60.7266
60.6204
60.5279
60.4244
60.3166
60.2069
60.0858
59.9232
60.2281
60.1091
59.9565
59.811
59.6738
59.5403
59.4097
59.2807
59.1503
59.0198
58.9021
58.8413
59.0116
60.5807
61.7886
61.6947
61.5836
61.4998
61.162
61.0387
60.9315
60.8146
60.6988
60.5883
60.4722
60.3195
60.4182
60.3025
60.1446
59.9945
59.8561
59.7234
59.5944
59.4689
59.3454
59.2234
59.1096
59.0292
59.0724
59.7795
61.9641
61.8709
61.7609
61.6718
61.4702
61.3282
61.2083
61.0817
60.959
60.8452
60.7313
60.5889
60.5515
60.443
60.2817
60.1258
59.9839
59.8504
59.7221
59.5981
59.4779
59.3609
59.2495
59.1541
59.1027
59.1983
62.0677
61.9764
61.8669
61.7729
61.5956
61.4393
61.3103
61.1781
61.0503
60.932
60.8174
60.6809
60.6187
60.5171
60.3553
60.1941
60.0469
59.9107
59.7819
59.6583
59.5391
59.424
59.314
59.2109
59.1105
58.9211
62.0826
61.9934
61.8828
61.783
61.5843
61.4181
61.2832
61.1483
61.0171
60.8939
60.776
60.6415
60.5983
60.5026
60.3434
60.1794
60.0266
59.8858
59.7546
59.6299
59.51
59.395
59.2855
59.1807
59.0668
58.8273
61.9855
61.8975
61.7835
61.6758
61.4589
61.2864
61.1478
61.0117
60.8781
60.7503
60.6282
60.4932
60.4634
60.3721
60.2186
60.0552
59.8985
59.7522
59.6167
59.4895
59.368
59.2521
59.1428
59.0388
58.928
58.7332
61.7525
61.6639
61.5443
61.4266
61.2065
61.0309
60.8898
60.7529
60.6176
60.486
60.3594
60.2229
60.1894
60.0998
59.9538
59.7945
59.6365
59.4855
59.3448
59.2136
59.0898
58.9726
58.8626
58.759
58.653
58.5031
61.3775
61.2859
61.1586
61.0303
60.8167
60.641
60.498
60.3602
60.2233
60.0888
59.9582
59.8201
59.7718
59.6804
59.5418
59.3892
59.2331
59.0796
58.9341
58.7987
58.6721
58.5532
58.4417
58.3364
58.231
58.0982
60.892
60.7949
60.6591
60.5205
60.3173
60.1438
59.9993
59.86
59.7217
59.5851
59.4515
59.3121
59.2449
59.1482
59.0154
58.8704
58.719
58.5658
58.4174
58.2783
58.149
58.0281
57.9142
57.8056
57.6968
57.5612
60.3685
60.2641
60.1198
59.9722
59.7802
59.6106
59.4645
59.3235
59.1837
59.0455
58.9097
58.7698
58.6835
58.579
58.4498
58.3115
58.1663