/*--------------------------------*- C++ -*----------------------------------*\
| =========                 |                                                 |
| \\      /  F ield         | OpenFOAM: The Open Source CFD Toolbox           |
|  \\    /   O peration     | Version:  v2012                                 |
|   \\  /    A nd           | Website:  www.openfoam.com                      |
|    \\/     M anipulation  |                                                 |
\*---------------------------------------------------------------------------*/
FoamFile
{
    version     2.0;
    format      ascii;
    class       volScalarField;
    location    "550/air";
    object      alphat;
}
// * * * * * * * * * * * * * * * * * * * * * * * * * * * * * * * * * * * * * //

dimensions      [1 -1 -1 0 0 0 0];


internalField   nonuniform List<scalar> 
287104
(
0.00647909
0.0060022
0.0056354
0.00534293
0.00510413
0.00490567
0.00473837
0.00459565
0.00447267
0.00436574
0.00427207
0.00418944
0.00411611
0.00405068
0.003992
0.00393915
0.00389133
0.00384791
0.00380833
0.00377214
0.00373894
0.00370839
0.0036802
0.00365412
0.00362993
0.00360744
0.00358648
0.0035669
0.00354858
0.00353139
0.00351523
0.00350001
0.00348564
0.00347204
0.00345915
0.0034469
0.00343523
0.00342409
0.00341342
0.0034032
0.00339336
0.00338388
0.00337471
0.00336584
0.00335722
0.00334884
0.00334067
0.00333269
0.00332489
0.00331725
0.00330976
0.00330241
0.00329519
0.00328809
0.00328112
0.00327426
0.00326752
0.00326088
0.00325436
0.00324795
0.00324165
0.00323545
0.00322937
0.00322339
0.00321752
0.00321175
0.00320609
0.00320052
0.00319505
0.00318968
0.00318439
0.00317918
0.00317404
0.00316896
0.00316394
0.00315896
0.003154
0.00314906
0.0031441
0.0031391
0.00313404
0.00312887
0.00312353
0.00311795
0.00311201
0.00310551
0.0030982
0.00308917
0.00307863
0.00305479
0.00647904
0.00600208
0.0056352
0.00534266
0.00510381
0.0049053
0.00473797
0.00459522
0.0044722
0.00436526
0.00427157
0.00418894
0.00411562
0.0040502
0.00399154
0.00393871
0.00389092
0.00384753
0.00380799
0.00377183
0.00373867
0.00370816
0.00368002
0.00365398
0.00362984
0.0036074
0.00358649
0.00356698
0.00354871
0.00353159
0.00351551
0.00350037
0.00348608
0.00347258
0.00345979
0.00344765
0.00343609
0.00342507
0.00341454
0.00340444
0.00339473
0.00338538
0.00337635
0.00336761
0.00335913
0.00335088
0.00334283
0.00333497
0.00332729
0.00331975
0.00331236
0.0033051
0.00329797
0.00329095
0.00328404
0.00327724
0.00327054
0.00326395
0.00325746
0.00325108
0.00324479
0.00323861
0.00323254
0.00322656
0.00322069
0.00321491
0.00320924
0.00320366
0.00319817
0.00319277
0.00318746
0.00318222
0.00317706
0.00317195
0.00316689
0.00316187
0.00315688
0.00315188
0.00314688
0.00314182
0.0031367
0.00313146
0.00312605
0.00312039
0.00311438
0.00310782
0.00310045
0.0030914
0.00308087
0.00305731
0.00647907
0.00600211
0.00563523
0.00534268
0.00510382
0.00490529
0.00473794
0.00459517
0.00447214
0.00436518
0.00427149
0.00418885
0.00411553
0.00405013
0.00399148
0.00393867
0.0038909
0.00384754
0.00380802
0.00377189
0.00373876
0.00370828
0.00368016
0.00365416
0.00363005
0.00360765
0.00358679
0.00356732
0.00354911
0.00353205
0.00351603
0.00350095
0.00348675
0.00347333
0.00346062
0.00344858
0.00343712
0.00342621
0.00341578
0.0034058
0.00339622
0.00338699
0.00337809
0.00336947
0.00336112
0.003353
0.00334508
0.00333735
0.00332979
0.00332238
0.00331512
0.00330798
0.00330096
0.00329406
0.00328727
0.00328059
0.00327402
0.00326755
0.00326118
0.00325491
0.00324875
0.0032427
0.00323674
0.00323089
0.00322515
0.0032195
0.00321396
0.00320851
0.00320316
0.0031979
0.00319273
0.00318763
0.00318261
0.00317765
0.00317273
0.00316786
0.00316301
0.00315815
0.00315328
0.00314836
0.00314337
0.00313825
0.00313296
0.00312742
0.00312153
0.00311509
0.00310786
0.003099
0.00308869
0.00306574
0.0064791
0.00600213
0.00563523
0.00534265
0.00510374
0.00490517
0.00473776
0.00459495
0.00447187
0.00436487
0.00427115
0.00418849
0.00411517
0.00404976
0.00399112
0.00393832
0.00389056
0.00384721
0.0038077
0.00377158
0.00373846
0.00370799
0.00367989
0.0036539
0.00362981
0.00360742
0.00358658
0.00356714
0.00354897
0.00353195
0.00351597
0.00350096
0.00348681
0.00347347
0.00346085
0.00344889
0.00343753
0.00342672
0.00341641
0.00340654
0.00339707
0.00338797
0.00337919
0.00337069
0.00336246
0.00335445
0.00334665
0.00333902
0.00333156
0.00332425
0.00331707
0.00331001
0.00330307
0.00329623
0.0032895
0.00328287
0.00327634
0.00326991
0.00326357
0.00325734
0.0032512
0.00324516
0.00323922
0.00323338
0.00322764
0.003222
0.00321645
0.003211
0.00320564
0.00320036
0.00319516
0.00319003
0.00318497
0.00317996
0.00317499
0.00317005
0.00316512
0.00316017
0.00315518
0.00315012
0.00314496
0.00313965
0.00313414
0.00312837
0.00312223
0.00311553
0.00310805
0.00309895
0.00308842
0.00306538
0.00647913
0.00600217
0.00563525
0.00534265
0.00510371
0.0049051
0.00473765
0.00459479
0.00447166
0.00436462
0.00427086
0.00418819
0.00411485
0.00404945
0.00399082
0.00393803
0.00389029
0.00384696
0.00380747
0.00377137
0.00373826
0.00370781
0.00367972
0.00365375
0.00362968
0.00360732
0.00358651
0.0035671
0.00354897
0.00353199
0.00351608
0.00350113
0.00348707
0.00347381
0.00346129
0.00344944
0.0034382
0.00342751
0.00341733
0.0034076
0.00339828
0.00338933
0.00338069
0.00337235
0.00336426
0.0033564
0.00334874
0.00334126
0.00333394
0.00332675
0.0033197
0.00331276
0.00330593
0.00329921
0.00329259
0.00328606
0.00327963
0.0032733
0.00326706
0.00326091
0.00325487
0.00324892
0.00324307
0.00323732
0.00323166
0.00322611
0.00322065
0.00321528
0.00321
0.0032048
0.00319968
0.00319463
0.00318965
0.00318471
0.00317981
0.00317493
0.00317005
0.00316515
0.00316019
0.00315516
0.00315001
0.0031447
0.00313918
0.00313339
0.00312724
0.00312057
0.00311317
0.00310423
0.00309397
0.00307154
0.00647917
0.0060022
0.00563526
0.00534263
0.00510364
0.00490498
0.00473746
0.00459453
0.00447134
0.00436424
0.00427044
0.00418776
0.00411444
0.00404905
0.00399045
0.00393768
0.00388996
0.00384664
0.00380716
0.00377107
0.00373796
0.00370751
0.00367943
0.00365346
0.0036294
0.00360706
0.00358627
0.0035669
0.00354881
0.00353189
0.00351605
0.00350119
0.00348723
0.00347409
0.0034617
0.00345
0.00343893
0.00342843
0.00341845
0.00340893
0.00339983
0.0033911
0.0033827
0.0033746
0.00336676
0.00335914
0.00335173
0.00334449
0.00333741
0.00333048
0.00332367
0.00331698
0.00331039
0.00330392
0.00329754
0.00329126
0.00328508
0.003279
0.00327302
0.00326715
0.00326138
0.00325572
0.00325017
0.00324472
0.00323939
0.00323417
0.00322906
0.00322406
0.00321916
0.00321436
0.00320966
0.00320505
0.00320051
0.00319606
0.00319166
0.00318731
0.00318298
0.00317866
0.00317432
0.00316992
0.00316543
0.00316081
0.00315603
0.00315106
0.00314583
0.00314021
0.00313403
0.00312662
0.00311814
0.00309876
0.0064792
0.00600223
0.00563528
0.0053426
0.00510356
0.00490483
0.00473723
0.0045942
0.00447089
0.00436367
0.00426978
0.00418705
0.00411371
0.00404833
0.00398974
0.003937
0.00388931
0.00384601
0.00380655
0.00377047
0.00373738
0.00370694
0.00367886
0.00365291
0.00362888
0.00360657
0.00358583
0.00356651
0.00354851
0.00353169
0.00351598
0.00350127
0.00348749
0.00347455
0.0034624
0.00345097
0.00344019
0.00343
0.00342036
0.0034112
0.00340248
0.00339414
0.00338616
0.00337846
0.00337101
0.0033638
0.0033568
0.00334998
0.00334333
0.00333683
0.00333046
0.00332422
0.00331808
0.00331206
0.00330614
0.00330033
0.00329463
0.00328903
0.00328354
0.00327816
0.0032729
0.00326776
0.00326275
0.00325786
0.00325311
0.00324849
0.003244
0.00323965
0.00323543
0.00323135
0.0032274
0.00322359
0.0032199
0.00321634
0.00321289
0.00320954
0.00320628
0.00320308
0.00319992
0.00319675
0.00319354
0.00319025
0.00318687
0.00318338
0.00317976
0.00317593
0.00317183
0.00316705
0.00316215
0.00314835
0.00647923
0.00600226
0.00563528
0.00534257
0.00510346
0.00490465
0.00473695
0.00459379
0.00447035
0.00436302
0.00426909
0.00418638
0.00411311
0.0040478
0.00398927
0.00393656
0.00388887
0.00384555
0.00380604
0.00376988
0.0037367
0.00370617
0.003678
0.00365197
0.00362786
0.00360551
0.00358476
0.00356547
0.00354752
0.00353081
0.00351525
0.00350074
0.00348718
0.0034745
0.00346265
0.00345155
0.00344113
0.00343134
0.00342212
0.00341339
0.00340511
0.00339722
0.00338967
0.00338241
0.00337541
0.00336862
0.00336203
0.00335561
0.00334934
0.0033432
0.00333718
0.00333129
0.00332552
0.00331987
0.00331433
0.00330892
0.00330363
0.00329846
0.00329342
0.00328852
0.00328375
0.00327911
0.00327461
0.00327026
0.00326604
0.00326196
0.00325801
0.00325421
0.00325053
0.00324699
0.00324357
0.00324027
0.00323708
0.003234
0.00323101
0.0032281
0.00322525
0.00322244
0.00321962
0.00321675
0.00321375
0.00321062
0.00320736
0.00320398
0.00320047
0.00319678
0.00319292
0.00318875
0.00318534
0.00317823
0.00647926
0.00600229
0.00563528
0.00534251
0.00510333
0.00490439
0.00473652
0.00459312
0.00446931
0.00436153
0.00426782
0.00418609
0.00411412
0.00405006
0.00399247
0.00394025
0.00389258
0.00384886
0.00380862
0.00377149
0.00373718
0.00370545
0.0036761
0.00364894
0.00362385
0.00360065
0.00357921
0.00355941
0.00354111
0.0035242
0.00350856
0.00349409
0.0034807
0.0034683
0.0034568
0.00344612
0.00343617
0.00342688
0.00341815
0.00340988
0.00340201
0.00339447
0.00338722
0.00338021
0.0033734
0.00336678
0.00336032
0.00335402
0.00334788
0.00334188
0.00333602
0.00333029
0.00332468
0.00331919
0.00331382
0.00330857
0.00330345
0.00329846
0.0032936
0.00328887
0.00328428
0.00327982
0.0032755
0.00327132
0.00326728
0.00326337
0.0032596
0.00325597
0.00325248
0.00324912
0.00324589
0.00324279
0.00323982
0.00323697
0.00323424
0.00323161
0.00322907
0.0032266
0.00322416
0.00322164
0.0032189
0.00321601
0.00321308
0.00321011
0.00320707
0.00320392
0.00320064
0.0031971
0.0031942
0.00318902
0.00647929
0.00600232
0.00563528
0.00534245
0.00510319
0.00490414
0.00473609
0.00459247
0.00446834
0.00436032
0.00432682
0.00430952
0.00428382
0.00424524
0.00419594
0.00413966
0.0040799
0.00401934
0.0039599
0.00390287
0.00384909
0.00379902
0.00375289
0.00371075
0.00367253
0.00363807
0.00360707
0.0035792
0.00355407
0.00353123
0.00351023
0.00349056
0.00347319
0.00345859
0.0034461
0.00343521
0.00342551
0.00341669
0.00340854
0.00340089
0.0033936
0.00338657
0.00337972
0.00337302
0.00336663
0.00336063
0.00335505
0.00334985
0.00334497
0.00334037
0.003336
0.00333184
0.00332786
0.00332404
0.00332036
0.00331683
0.00331345
0.00331021
0.00330711
0.00330415
0.00330132
0.00329863
0.00329608
0.00329365
0.00329135
0.00328918
0.00328714
0.00328522
0.00328343
0.00328175
0.0032802
0.00327878
0.00327749
0.00327632
0.00327529
0.00327438
0.00327358
0.00327287
0.00327222
0.00327142
0.00326353
0.00325411
0.00324504
0.00323683
0.00322954
0.00322301
0.00321705
0.00321128
0.00320636
0.00319911
0.00647932
0.00600234
0.00563527
0.00534238
0.005103
0.00490376
0.00473536
0.00459109
0.00446516
0.00436361
0.00769012
0.0084116
0.00839899
0.0081412
0.00781737
0.00749524
0.00719951
0.00693786
0.00671119
0.00651789
0.00635547
0.00622119
0.00611223
0.00602577
0.00595893
0.00590887
0.00587273
0.00584774
0.00583129
0.00582102
0.00581488
0.00581117
0.00580908
0.00580856
0.00580937
0.00581098
0.00581289
0.00581474
0.00581636
0.00581767
0.00581872
0.00581966
0.00582043
0.00582103
0.00582141
0.00582173
0.00582231
0.00582349
0.00582558
0.00582886
0.00583351
0.00583964
0.00584734
0.00585669
0.0058677
0.00588036
0.00589466
0.00591065
0.00592836
0.0059478
0.00596895
0.00599179
0.00601628
0.00604236
0.00606998
0.00609906
0.00612952
0.00616127
0.00619422
0.00622825
0.00626327
0.00629912
0.00633569
0.00637288
0.00641061
0.00644892
0.00648819
0.00652914
0.00657647
0.00662101
0.0052995
0.00451829
0.00403488
0.00372688
0.00352727
0.00339655
0.00331035
0.00325261
0.00321407
0.0031823
0.00647936
0.00600237
0.00563527
0.00534232
0.00510286
0.00490351
0.00473496
0.00459047
0.00446422
0.00436236
0.00769066
0.00841391
0.00839961
0.00813759
0.00780804
0.00747928
0.00717646
0.00690759
0.00667384
0.00647381
0.0063052
0.00616544
0.00605188
0.00596181
0.00589249
0.00584107
0.00580467
0.00578045
0.00576564
0.00575768
0.00575428
0.00575347
0.00575364
0.00575353
0.00575226
0.00574917
0.00574383
0.00573595
0.0057254
0.00571208
0.00569602
0.00567729
0.00565633
0.00563345
0.00560886
0.00558281
0.00555561
0.00552756
0.00549888
0.00546976
0.00544039
0.00541095
0.00538166
0.00535269
0.00532425
0.00529653
0.00526977
0.00524419
0.00522004
0.00519761
0.00517719
0.00515908
0.00514359
0.00513107
0.00512187
0.00511631
0.00511469
0.00511729
0.00512431
0.0051359
0.00515213
0.00517303
0.00519853
0.00522855
0.00526297
0.00530168
0.00534479
0.00539233
0.00544855
0.00550215
0.00459507
0.00403771
0.00368036
0.00344496
0.00328775
0.00318226
0.00311146
0.00306281
0.00302852
0.00299272
0.00647939
0.0060024
0.00563527
0.00534227
0.00510273
0.00490326
0.00473454
0.0045898
0.00446319
0.00436085
0.00768396
0.00840784
0.00839524
0.00813482
0.00780642
0.0074783
0.00717567
0.00690664
0.00667257
0.0064722
0.00630341
0.0061638
0.00605086
0.00596202
0.00589462
0.00584585
0.00581284
0.00579269
0.00578254
0.00577974
0.00578188
0.00578689
0.0057931
0.00579916
0.0058041
0.00580726
0.00580821
0.00580669
0.00580258
0.00579584
0.0057865
0.00577466
0.00576048
0.00574416
0.00572592
0.005706
0.00568466
0.00566216
0.00563875
0.00561465
0.00559006
0.00556516
0.00554007
0.00551488
0.00548965
0.00546437
0.00543901
0.00541353
0.00538789
0.00536199
0.00533581
0.00530933
0.00528253
0.00525537
0.0052278
0.00519982
0.00517143
0.00514266
0.00511358
0.00508428
0.00505491
0.00502561
0.0049966
0.00496814
0.00494057
0.0049143
0.00489005
0.00486839
0.00485335
0.00483472
0.00405868
0.00360113
0.00331821
0.00313519
0.00301162
0.0029246
0.00286065
0.00280986
0.00276722
0.00271278
0.00647942
0.00600243
0.00563528
0.00534225
0.00510265
0.00490311
0.00473429
0.00458944
0.00446271
0.00436024
0.00768211
0.0084063
0.00839414
0.00813393
0.00780552
0.00747721
0.00717425
0.00690485
0.00667039
0.00646968
0.00630064
0.00616089
0.00604796
0.00595932
0.0058923
0.00584414
0.00581197
0.00579286
0.00578395
0.00578257
0.00578629
0.00579302
0.00580107
0.00580908
0.00581609
0.00582141
0.00582456
0.00582527
0.00582337
0.00581877
0.00581148
0.00580156
0.00578915
0.0057745
0.00575787
0.00573961
0.00572007
0.00569966
0.00567872
0.0056576
0.00563661
0.00561598
0.00559671
0.00557889
0.00556236
0.00554696
0.00553253
0.00551899
0.00550629
0.00549443
0.00548351
0.00547357
0.00546462
0.00545666
0.00544969
0.00544369
0.00543868
0.0054346
0.00543141
0.00542905
0.00542746
0.00542655
0.00542625
0.00542651
0.00542731
0.0054287
0.00543111
0.00543527
0.00544611
0.00546567
0.00460208
0.00411419
0.00382076
0.00363286
0.00350416
0.00340927
0.00333334
0.00326608
0.00320291
0.00313797
0.00647945
0.00600246
0.00563529
0.00534223
0.00510259
0.00490299
0.0047341
0.00458916
0.00446232
0.00435973
0.00767965
0.00840354
0.00839146
0.00813142
0.00780315
0.00747491
0.00717194
0.00690244
0.00666784
0.00646698
0.00629779
0.00615794
0.006045
0.00595644
0.00588962
0.00584178
0.00581005
0.00579149
0.00578325
0.00578262
0.00578716
0.0057948
0.00580381
0.00581285
0.00582095
0.00582737
0.00583163
0.00583339
0.00583241
0.00582854
0.00582168
0.00581185
0.00579913
0.00578377
0.00576606
0.0057464
0.00572521
0.00570294
0.00568
0.00565677
0.00563358
0.00561069
0.00558831
0.00556661
0.00554568
0.00552561
0.00550641
0.0054881
0.00547069
0.00545473
0.00544011
0.00542665
0.00541416
0.0054025
0.00539161
0.00538143
0.005372
0.00536339
0.00535571
0.00534899
0.00534329
0.00533867
0.00533526
0.00533318
0.0053326
0.00533378
0.00533733
0.00534416
0.00535916
0.00538474
0.00455226
0.00408657
0.00381044
0.00363705
0.00352127
0.0034384
0.00337408
0.00331834
0.0032622
0.00318515
0.00647948
0.00600249
0.00563532
0.00534224
0.00510257
0.00490293
0.004734
0.00458902
0.00446212
0.00435947
0.00767814
0.00840158
0.00838921
0.00812891
0.0078004
0.00747191
0.00716871
0.00689901
0.00666424
0.00646325
0.00629398
0.00615412
0.00604123
0.00595281
0.00588619
0.00583863
0.00580722
0.00578903
0.00578117
0.00578094
0.0057859
0.00579397
0.00580344
0.00581299
0.00582163
0.00582864
0.00583351
0.00583583
0.00583529
0.0058316
0.00582455
0.00581404
0.00580009
0.00578293
0.00576291
0.00574049
0.00571621
0.0056906
0.00566416
0.00563733
0.00561048
0.00558388
0.00555774
0.0055322
0.00550733
0.00548316
0.00545969
0.00543689
0.0054147
0.00539306
0.00537189
0.00535113
0.00533069
0.00531048
0.00529041
0.0052704
0.00525035
0.00523019
0.00520985
0.00518924
0.00516829
0.00514694
0.00512513
0.00510284
0.00508006
0.00505684
0.00503343
0.00500988
0.00498918
0.00496201
0.00418366
0.0037379
0.0034702
0.00329996
0.00318363
0.00309699
0.00302637
0.00296242
0.00290148
0.00282063
0.00647951
0.00600253
0.00563535
0.00534226
0.00510258
0.00490294
0.004734
0.00458902
0.00446213
0.00435949
0.00767767
0.00840057
0.00838755
0.00812658
0.00779741
0.00746831
0.0071646
0.00689448
0.00665942
0.00645826
0.00628896
0.00614919
0.00603651
0.00594838
0.00588213
0.00583494
0.0058039
0.00578601
0.00577838
0.00577829
0.00578331
0.00579139
0.00580089
0.00581054
0.0058194
0.0058268
0.0058322
0.00583515
0.00583521
0.00583189
0.00582476
0.00581353
0.00579812
0.00577874
0.00575582
0.00572994
0.00570182
0.00567212
0.00564149
0.00561044
0.0055794
0.00554868
0.00551848
0.00548893
0.00546008
0.00543191
0.00540437
0.00537741
0.00535093
0.00532484
0.00529905
0.00527344
0.00524794
0.00522245
0.00519689
0.00517121
0.00514536
0.00511931
0.00509305
0.00506662
0.00504008
0.00501352
0.00498709
0.00496103
0.00493562
0.00491127
0.00488864
0.00486822
0.0048538
0.0048353
0.00406967
0.00362597
0.00335785
0.00318896
0.00307776
0.00300083
0.00294463
0.00289961
0.0028613
0.00281015
0.00647954
0.00600257
0.00563539
0.00534229
0.00510262
0.00490297
0.00473405
0.00458908
0.00446222
0.00435956
0.00767634
0.00839796
0.0083839
0.00812223
0.00779264
0.00746336
0.00715964
0.00688967
0.00665486
0.00645409
0.00628533
0.00614628
0.00603451
0.00594749
0.0058825
0.00583667
0.00580698
0.0057904
0.00578397
0.005785
0.00579114
0.00580044
0.0058114
0.0058229
0.00583412
0.00584442
0.00585322
0.0058599
0.0058637
0.00586369
0.005859
0.00584896
0.00583332
0.00581237
0.00578681
0.00575761
0.00572587
0.00569264
0.00565886
0.00562528
0.00559245
0.00556076
0.00553041
0.0055015
0.00547403
0.00544793
0.00542311
0.00539947
0.00537695
0.00535546
0.00533494
0.00531532
0.00529658
0.00527869
0.00526166
0.00524555
0.00523041
0.00521634
0.00520349
0.00519201
0.00518208
0.00517393
0.0051678
0.00516398
0.00516283
0.00516476
0.00517046
0.00518084
0.00520069
0.00522206
0.0043944
0.00391497
0.00362457
0.00344121
0.00332075
0.00323844
0.00317977
0.00313506
0.00309863
0.00305604
0.00647957
0.00600261
0.00563543
0.00534235
0.0051027
0.00490311
0.00473427
0.00458946
0.00446285
0.00436057
0.00768018
0.00840039
0.00838412
0.00812037
0.0077892
0.00745914
0.00715563
0.00688709
0.00665517
0.00645893
0.00629647
0.00616544
0.00606324
0.00598694
0.00593338
0.00589917
0.0058809
0.00587523
0.00587914
0.00588999
0.00590561
0.00592435
0.00594494
0.00596647
0.00598821
0.00600946
0.00602939
0.00604689
0.00606048
0.0060683
0.00606852
0.00605983
0.00604177
0.00601496
0.00598081
0.00594126
0.00589844
0.00585439
0.00581088
0.00576935
0.0057308
0.00569589
0.00566496
0.00563809
0.00561515
0.00559591
0.00558021
0.00556784
0.00555849
0.00555182
0.00554745
0.00554507
0.00554442
0.00554532
0.00554766
0.00555137
0.00555644
0.00556291
0.00557082
0.00558024
0.00559126
0.00560396
0.00561846
0.00563489
0.00565345
0.00567444
0.00569854
0.00572844
0.00577152
0.00582874
0.00486569
0.00429998
0.00394716
0.00371635
0.00355951
0.00344951
0.00337008
0.00331042
0.00326316
0.00321713
0.0064796
0.00600265
0.00563548
0.00534241
0.00510278
0.00490323
0.00473447
0.00458976
0.00446335
0.00436119
0.00767523
0.00839253
0.00837763
0.00811768
0.00779462
0.00747862
0.00719618
0.00695604
0.00675932
0.00660381
0.00648571
0.00640044
0.00634308
0.00630873
0.00629276
0.006291
0.00629984
0.00631634
0.00633818
0.00636363
0.00639146
0.00642086
0.0064513
0.00648242
0.00651394
0.00654544
0.00657619
0.00660497
0.00662984
0.006648
0.0066563
0.00665201
0.00663351
0.00660077
0.00655514
0.00649901
0.00643541
0.00636759
0.00629874
0.00623182
0.00616937
0.00611346
0.00606558
0.0060267
0.0059972
0.00597703
0.00596745
0.00596773
0.00597576
0.00598931
0.00600652
0.006026
0.00604682
0.00606838
0.00609033
0.00611251
0.00613485
0.00615736
0.00618008
0.00620307
0.0062264
0.00625012
0.00627431
0.00629907
0.00632456
0.00635104
0.00637921
0.00641038
0.00645037
0.0064959
0.00526231
0.00453664
0.00408708
0.00379792
0.00360677
0.0034777
0.00338899
0.00332673
0.00328235
0.00324634
0.00647963
0.00600269
0.00563553
0.00534249
0.00510292
0.00490348
0.00473499
0.00459085
0.00446615
0.00435743
0.00428067
0.00421379
0.00414559
0.00408222
0.0040229
0.00396742
0.00391574
0.00386779
0.0038235
0.00378274
0.00374535
0.00371116
0.00367997
0.0036516
0.00362586
0.00360254
0.00358146
0.00356246
0.00354537
0.00353006
0.00351641
0.00350434
0.00349379
0.00348472
0.00347715
0.00347108
0.00346656
0.00346357
0.00346201
0.00346162
0.00346195
0.00346243
0.00346251
0.0034617
0.00345971
0.00345628
0.00345138
0.00344512
0.00343771
0.00342936
0.00342033
0.00341088
0.00340126
0.00339168
0.00338233
0.00337338
0.00336494
0.00335711
0.00334994
0.00334342
0.00333754
0.00333225
0.0033275
0.00332323
0.00331938
0.0033159
0.00331271
0.00330979
0.00330709
0.00330458
0.00330223
0.00330002
0.00329793
0.00329597
0.00329411
0.00329235
0.0032907
0.00328913
0.00328765
0.00328608
0.00327816
0.00326887
0.00325992
0.00325179
0.00324457
0.00323817
0.00323248
0.00322723
0.00322297
0.00321648
0.00647966
0.00600273
0.00563558
0.00534254
0.00510299
0.00490359
0.00473517
0.00459113
0.00446661
0.00435802
0.00426287
0.00417906
0.00410469
0.00403825
0.00397854
0.00392459
0.00387561
0.00383096
0.00379013
0.00375267
0.00371823
0.00368652
0.00365728
0.0036303
0.0036054
0.00358244
0.00356129
0.00354184
0.003524
0.00350771
0.00349292
0.0034796
0.00346776
0.00345743
0.00344868
0.00344165
0.00343644
0.00343317
0.00343181
0.00343209
0.00343339
0.00343495
0.00343601
0.00343596
0.00343447
0.0034314
0.0034268
0.00342081
0.00341362
0.00340547
0.00339661
0.00338726
0.00337764
0.00336792
0.00335824
0.00334874
0.00333951
0.00333065
0.00332222
0.00331425
0.00330677
0.0032998
0.00329334
0.00328736
0.00328186
0.00327681
0.00327218
0.00326794
0.00326406
0.00326052
0.00325728
0.00325433
0.00325164
0.00324918
0.00324694
0.00324491
0.00324305
0.00324135
0.00323977
0.00323821
0.00323653
0.00323478
0.00323306
0.00323139
0.00322975
0.00322812
0.00322646
0.00322461
0.00322324
0.00321854
0.00647969
0.00600277
0.00563562
0.0053426
0.00510306
0.00490371
0.00473536
0.00459146
0.00446718
0.00435891
0.00426394
0.00418009
0.00410557
0.00403891
0.00397895
0.00392473
0.00387547
0.00383053
0.00378938
0.00375159
0.00371678
0.00368465
0.00365495
0.00362748
0.00360205
0.00357852
0.00355676
0.00353669
0.00351821
0.00350127
0.00348583
0.00347188
0.00345945
0.00344861
0.00343951
0.00343235
0.00342743
0.00342504
0.00342535
0.00342808
0.00343232
0.00343692
0.00344073
0.00344286
0.0034429
0.00344071
0.00343638
0.00343014
0.00342228
0.00341312
0.00340304
0.00339234
0.00338125
0.00336995
0.00335868
0.00334766
0.00333703
0.00332691
0.00331738
0.0033085
0.0033003
0.00329279
0.00328597
0.00327983
0.00327433
0.00326946
0.00326516
0.00326142
0.00325818
0.00325541
0.00325306
0.00325111
0.00324951
0.00324822
0.00324721
0.00324645
0.00324589
0.0032455
0.0032452
0.00324493
0.00324461
0.00324419
0.00324369
0.00324307
0.00324231
0.00324129
0.0032399
0.0032377
0.00323475
0.00322511
0.00647972
0.0060028
0.00563566
0.00534263
0.00510309
0.00490372
0.00473538
0.00459147
0.00446718
0.00435886
0.00426374
0.00417966
0.00410486
0.00403791
0.00397764
0.00392312
0.00387356
0.00382831
0.00378684
0.00374872
0.00371357
0.00368108
0.00365102
0.00362317
0.00359735
0.00357342
0.00355127
0.00353079
0.0035119
0.00349455
0.00347868
0.00346431
0.00345146
0.00344025
0.00343086
0.00342365
0.00341911
0.0034179
0.00342071
0.00342738
0.00343671
0.00344682
0.00345575
0.00346212
0.00346536
0.00346535
0.00346231
0.00345663
0.00344877
0.00343921
0.00342867
0.00341742
0.00340583
0.00339419
0.00338274
0.0033717
0.00336125
0.00335152
0.00334264
0.00333467
0.00332766
0.00332163
0.00331658
0.00331246
0.00330924
0.00330685
0.00330519
0.00330418
0.00330372
0.0033037
0.00330402
0.00330457
0.00330525
0.00330598
0.00330667
0.00330724
0.00330762
0.00330777
0.0033076
0.00330707
0.00330611
0.00330467
0.00330271
0.00330021
0.00329713
0.00329337
0.00328883
0.00328305
0.00327611
0.00326165
0.00647975
0.00600284
0.00563569
0.00534264
0.00510309
0.00490371
0.00473535
0.00459143
0.00446711
0.00435875
0.00426355
0.00417932
0.00410431
0.0040371
0.00397653
0.00392167
0.00387174
0.0038261
0.00378422
0.00374566
0.00371005
0.0036771
0.00364656
0.00361823
0.00359193
0.00356753
0.00354491
0.00352396
0.00350461
0.00348679
0.00347044
0.00345554
0.00344214
0.00343033
0.00342034
0.00341268
0.00340811
0.00340796
0.00341464
0.00342947
0.00345123
0.00347614
0.00349962
0.00351888
0.00353282
0.00354138
0.00354509
0.00354472
0.00354117
0.00353524
0.00352851
0.00352175
0.0035154
0.00350981
0.00350523
0.00350181
0.00349961
0.00349858
0.00349861
0.00349956
0.00350119
0.00350329
0.00350561
0.00350793
0.00351005
0.00351179
0.003513
0.00351358
0.00351344
0.00351256
0.00351089
0.00350845
0.00350527
0.00350136
0.00349678
0.00349157
0.00348578
0.00347945
0.00347263
0.00346535
0.00345762
0.00344945
0.00344086
0.00343184
0.00342237
0.00341238
0.00340174
0.00338999
0.00337717
0.00335736
0.00647978
0.00600287
0.00563571
0.00534265
0.00510306
0.00490364
0.00473523
0.00459124
0.00446683
0.00435835
0.00426298
0.00417854
0.00410326
0.00403575
0.00397484
0.00391962
0.0038693
0.00382324
0.00378092
0.00374189
0.0037058
0.00367235
0.00364129
0.00361243
0.0035856
0.00356068
0.00353753
0.00351607
0.00349619
0.00347783
0.00346091
0.00344539
0.00343126
0.0034186
0.00340762
0.00339897
0.00339365
0.00339445
0.00341188
0.00345608
0.00352558
0.00360554
0.00368066
0.003745
0.00379699
0.00383752
0.00386842
0.00389167
0.00390906
0.00392207
0.00393146
0.00394014
0.00394758
0.0039533
0.00395693
0.00395823
0.00395714
0.00395369
0.00394803
0.00394034
0.00393084
0.00391977
0.00390734
0.00389376
0.00387923
0.00386391
0.00384794
0.00383147
0.00381461
0.00379745
0.0037801
0.00376262
0.00374508
0.00372756
0.00371009
0.00369272
0.00367549
0.00365842
0.00364153
0.00362483
0.0036083
0.00359194
0.00357572
0.00355961
0.00354353
0.00352738
0.00351099
0.00349386
0.00347589
0.00345176
0.00647981
0.0060029
0.00563573
0.00534264
0.00510302
0.00490355
0.00473507
0.004591
0.00446649
0.00435788
0.00426235
0.0041777
0.00410217
0.00403436
0.00397312
0.00391751
0.00386676
0.00382024
0.00377741
0.00373783
0.00370116
0.0036671
0.00363542
0.00360591
0.00357845
0.00355288
0.00352911
0.00350703
0.00348654
0.00346755
0.00344995
0.00343367
0.00341861
0.00340476
0.00339215
0.00338148
0.0033738
0.00337541
0.00344389
0.00362636
0.00388929
0.00415133
0.00436547
0.00452672
0.00463948
0.0047126
0.00475467
0.00477304
0.0047737
0.00476144
0.00473961
0.00470967
0.00467362
0.00463309
0.00458959
0.00454444
0.00449866
0.00445301
0.00440804
0.00436409
0.00432138
0.00428003
0.00424005
0.00420146
0.0041642
0.00412823
0.00409347
0.00405988
0.00402739
0.00399595
0.00396552
0.00393605
0.00390751
0.00387985
0.00385306
0.00382711
0.00380196
0.0037776
0.00375406
0.00373125
0.00370908
0.00368749
0.00366637
0.00364564
0.00362521
0.00360505
0.00358495
0.00356436
0.00354303
0.00351617
0.00647983
0.00600292
0.00563574
0.00534262
0.00510295
0.00490342
0.00473486
0.0045907
0.00446606
0.00435729
0.00426156
0.00417667
0.00410086
0.00403273
0.00397111
0.00391509
0.00386387
0.00381683
0.00377343
0.00373324
0.00369591
0.00366115
0.00362874
0.00359849
0.00357028
0.00354397
0.00351948
0.0034967
0.00347553
0.00345586
0.00343756
0.00342051
0.00340455
0.00338954
0.00337521
0.00336214
0.00335076
0.00335986
0.00369588
0.00438075
0.00508148
0.00557673
0.00585432
0.00597213
0.00597999
0.0059193
0.00581964
0.00570078
0.00557516
0.00544994
0.0053285
0.00521222
0.00510284
0.00500129
0.00490769
0.00482169
0.00474267
0.00466991
0.00460267
0.00454026
0.00448209
0.00442765
0.00437654
0.00432851
0.00428319
0.00424011
0.00419897
0.00415955
0.0041217
0.00408531
0.00405028
0.00401655
0.00398405
0.00395273
0.00392252
0.00389339
0.00386528
0.00383816
0.00381196
0.00378664
0.00376213
0.00373836
0.00371525
0.00369268
0.00367048
0.0036484
0.00362608
0.00360268
0.00357799
0.00354891
0.00647986
0.00600295
0.00563574
0.00534259
0.00510287
0.00490328
0.00473463
0.00459036
0.00446559
0.00435665
0.00426072
0.00417559
0.00409949
0.00403101
0.00396901
0.00391253
0.0038608
0.00381318
0.00376914
0.00372824
0.00369014
0.00365455
0.00362127
0.00359013
0.00356101
0.00353383
0.00350849
0.0034849
0.00346295
0.00344253
0.00342349
0.00340571
0.00338893
0.00337287
0.00335671
0.00334045
0.00332144
0.00336466
0.00460986
0.00604836
0.00697392
0.00736387
0.00737882
0.00718588
0.00689947
0.00658804
0.0062879
0.00601545
0.00577591
0.00556882
0.00539124
0.00523927
0.00510888
0.00499618
0.00489776
0.00481096
0.00473395
0.00466546
0.00460286
0.00454463
0.00448987
0.00443804
0.00438874
0.00434171
0.00429673
0.00425364
0.00421229
0.00417257
0.0041344
0.00409768
0.00406234
0.00402833
0.00399558
0.00396405
0.00393368
0.00390443
0.00387626
0.00384911
0.00382294
0.00379769
0.0037733
0.00374969
0.00372676
0.00370437
0.00368235
0.0036604
0.00363814
0.00361463
0.00358821
0.00355631
0.00647988
0.00600296
0.00563574
0.00534255
0.00510278
0.00490311
0.00473438
0.00458998
0.00446507
0.00435595
0.0042598
0.00417441
0.004098
0.00402916
0.00396673
0.00390976
0.00385747
0.0038092
0.00376443
0.00372272
0.00368372
0.00364716
0.00361285
0.00358064
0.00355046
0.00352223
0.00349591
0.00347141
0.00344862
0.00342743
0.00340775
0.00338955
0.00337274
0.00335732
0.00334254
0.00332845
0.00331113
0.00335907
0.00471054
0.00624121
0.0072135
0.00758378
0.00757936
0.00736553
0.00705074
0.00670587
0.00637094
0.00606522
0.00579592
0.00556383
0.00536639
0.0051998
0.0050599
0.00494416
0.0048464
0.00476163
0.00468649
0.00461867
0.00455651
0.00449884
0.00444485
0.00439392
0.00434565
0.00429971