/*--------------------------------*- C++ -*----------------------------------*\
| =========                 |                                                 |
| \\      /  F ield         | OpenFOAM: The Open Source CFD Toolbox           |
|  \\    /   O peration     | Version:  v2012                                 |
|   \\  /    A nd           | Website:  www.openfoam.com                      |
|    \\/     M anipulation  |                                                 |
\*---------------------------------------------------------------------------*/
FoamFile
{
    version     2.0;
    format      ascii;
    class       volScalarField;
    location    "550/air";
    object      epsilon;
}
// * * * * * * * * * * * * * * * * * * * * * * * * * * * * * * * * * * * * * //

dimensions      [0 2 -3 0 0 0 0];


internalField   nonuniform List<scalar> 
287104
(
0.0965288
0.0769509
0.0638413
0.0545282
0.0476354
0.0423721
0.0382507
0.0349556
0.0322742
0.0300592
0.0282055
0.0266364
0.0252948
0.0241377
0.0231317
0.0222508
0.0214744
0.0207862
0.0201728
0.0196234
0.019129
0.0186824
0.0182772
0.0179082
0.0175712
0.0172623
0.0169783
0.0167165
0.0164744
0.01625
0.0160414
0.015847
0.0156653
0.0154952
0.0153354
0.0151849
0.0150429
0.0149084
0.0147807
0.0146592
0.0145432
0.0144321
0.0143255
0.0142229
0.0141239
0.0140281
0.0139353
0.0138452
0.0137574
0.0136719
0.0135884
0.0135069
0.0134271
0.013349
0.0132726
0.0131977
0.0131243
0.0130525
0.0129821
0.0129131
0.0128456
0.0127795
0.0127147
0.0126514
0.0125894
0.0125287
0.0124693
0.0124111
0.0123541
0.0122983
0.0122435
0.0121898
0.0121369
0.0120848
0.0120334
0.0119826
0.0119321
0.0118817
0.0118313
0.0117806
0.0117292
0.0116767
0.0116224
0.0115656
0.0115049
0.0114382
0.0113629
0.0112691
0.0111599
0.0109091
0.096523
0.0769405
0.0638277
0.0545126
0.0476185
0.0423543
0.0382324
0.0349369
0.0322553
0.0300402
0.0281865
0.0266175
0.0252763
0.0241195
0.0231139
0.0222335
0.0214576
0.0207699
0.0201571
0.0196082
0.0191144
0.0186682
0.0182635
0.0178951
0.0175586
0.0172503
0.0169669
0.0167057
0.0164643
0.0162406
0.0160328
0.0158393
0.0156586
0.0154895
0.0153308
0.0151815
0.0150407
0.0149075
0.0147812
0.014661
0.0145464
0.0144368
0.0143316
0.0142304
0.0141328
0.0140384
0.0139468
0.0138578
0.0137712
0.0136867
0.0136042
0.0135234
0.0134444
0.0133669
0.013291
0.0132165
0.0131435
0.0130719
0.0130016
0.0129327
0.0128651
0.0127989
0.012734
0.0126704
0.0126081
0.0125471
0.0124873
0.0124288
0.0123714
0.0123151
0.0122598
0.0122056
0.0121522
0.0120995
0.0120476
0.0119961
0.0119449
0.0118939
0.0118427
0.0117912
0.0117389
0.0116855
0.0116303
0.0115725
0.0115109
0.0114433
0.0113673
0.0112732
0.0111639
0.0109161
0.0965206
0.076936
0.063822
0.0545057
0.0476108
0.042346
0.0382235
0.0349276
0.0322456
0.0300303
0.0281764
0.0266075
0.0252663
0.0241097
0.0231044
0.0222243
0.0214487
0.0207614
0.0201488
0.0196003
0.0191068
0.018661
0.0182566
0.0178886
0.0175525
0.0172446
0.0169616
0.016701
0.0164601
0.016237
0.0160299
0.0158372
0.0156573
0.0154891
0.0153313
0.0151831
0.0150434
0.0149113
0.0147863
0.0146674
0.0145541
0.0144458
0.0143419
0.0142421
0.0141458
0.0140528
0.0139626
0.0138749
0.0137896
0.0137063
0.013625
0.0135455
0.0134677
0.0133914
0.0133166
0.0132433
0.0131714
0.0131008
0.0130317
0.0129639
0.0128975
0.0128324
0.0127686
0.0127062
0.0126451
0.0125852
0.0125267
0.0124693
0.0124132
0.0123581
0.0123042
0.0122512
0.0121991
0.0121477
0.0120971
0.0120469
0.011997
0.0119472
0.0118973
0.0118469
0.0117957
0.0117433
0.011689
0.0116321
0.0115714
0.0115049
0.01143
0.0113375
0.0112302
0.0109879
0.0965183
0.0769312
0.0638151
0.0544973
0.047601
0.0423349
0.0382113
0.0349144
0.0322317
0.0300158
0.0281615
0.0265925
0.0252514
0.024095
0.0230899
0.02221
0.0214348
0.0207477
0.0201354
0.0195871
0.0190938
0.0186481
0.018244
0.0178762
0.0175403
0.0172326
0.01695
0.0166896
0.0164492
0.0162266
0.0160201
0.015828
0.015649
0.0154816
0.0153249
0.0151777
0.0150392
0.0149084
0.0147846
0.0146671
0.0145552
0.0144483
0.0143458
0.0142474
0.0141524
0.0140607
0.0139717
0.0138852
0.0138009
0.0137187
0.0136383
0.0135595
0.0134824
0.0134067
0.0133325
0.0132596
0.0131881
0.0131178
0.0130489
0.0129813
0.012915
0.0128499
0.0127862
0.0127237
0.0126625
0.0126025
0.0125438
0.0124862
0.0124298
0.0123744
0.0123201
0.0122666
0.012214
0.012162
0.0121106
0.0120596
0.0120087
0.0119578
0.0119065
0.0118545
0.0118014
0.0117469
0.0116903
0.0116308
0.0115674
0.0114981
0.0114206
0.0113256
0.0112161
0.0109732
0.0965161
0.076927
0.0638094
0.0544901
0.0475926
0.0423254
0.0382008
0.0349029
0.0322192
0.0300026
0.0281479
0.0265786
0.0252375
0.0240814
0.0230766
0.0221971
0.0214222
0.0207355
0.0201235
0.0195755
0.0190825
0.0186371
0.0182331
0.0178655
0.0175299
0.0172225
0.0169402
0.0166803
0.0164404
0.0162185
0.0160127
0.0158214
0.0156433
0.015477
0.0153214
0.0151756
0.0150384
0.0149091
0.0147869
0.014671
0.0145608
0.0144556
0.0143548
0.0142581
0.0141648
0.0140747
0.0139873
0.0139023
0.0138195
0.0137386
0.0136595
0.013582
0.013506
0.0134314
0.0133582
0.0132863
0.0132157
0.0131464
0.0130783
0.0130115
0.012946
0.0128818
0.0128188
0.0127571
0.0126967
0.0126374
0.0125794
0.0125226
0.0124668
0.0124121
0.0123584
0.0123056
0.0122535
0.0122021
0.0121512
0.0121006
0.0120501
0.0119994
0.0119482
0.0118962
0.011843
0.0117881
0.011731
0.011671
0.0116072
0.0115378
0.0114606
0.0113669
0.0112596
0.0110223
0.096514
0.0769226
0.0638031
0.0544823
0.0475832
0.0423144
0.0381884
0.0348891
0.0322043
0.0299868
0.0281317
0.0265625
0.0252219
0.0240663
0.0230622
0.0221832
0.0214088
0.0207224
0.0201107
0.0195628
0.0190698
0.0186245
0.0182206
0.0178531
0.0175176
0.0172104
0.0169285
0.016669
0.0164297
0.0162084
0.0160035
0.0158134
0.0156365
0.0154717
0.0153178
0.0151738
0.0150386
0.0149115
0.0147917
0.0146782
0.0145706
0.014468
0.01437
0.014276
0.0141855
0.0140982
0.0140135
0.0139312
0.0138511
0.0137728
0.0136963
0.0136214
0.013548
0.0134759
0.0134052
0.0133358
0.0132677
0.0132009
0.0131354
0.0130713
0.0130085
0.012947
0.0128869
0.0128282
0.0127708
0.0127148
0.0126602
0.0126068
0.0125548
0.0125039
0.0124541
0.0124055
0.0123578
0.0123109
0.0122648
0.0122192
0.0121739
0.0121287
0.0120832
0.0120371
0.0119899
0.0119413
0.011891
0.0118384
0.0117828
0.011723
0.0116571
0.0115776
0.0114869
0.011278
0.0965119
0.0769184
0.0637971
0.0544745
0.0475737
0.0423031
0.0381751
0.0348738
0.0321868
0.0299673
0.0281109
0.0265412
0.0252007
0.0240457
0.0230422
0.022164
0.0213903
0.0207045
0.0200932
0.0195457
0.0190531
0.018608
0.0182044
0.0178372
0.017502
0.0171954
0.0169141
0.0166554
0.0164172
0.0161973
0.015994
0.0158057
0.0156311
0.0154688
0.0153178
0.0151769
0.0150453
0.0149219
0.014806
0.0146968
0.0145935
0.0144955
0.0144022
0.0143125
0.0142262
0.014143
0.0140625
0.0139843
0.0139084
0.0138344
0.013762
0.0136913
0.013622
0.0135542
0.0134877
0.0134225
0.0133586
0.0132961
0.0132349
0.0131752
0.0131169
0.0130601
0.0130047
0.0129509
0.0128986
0.0128479
0.0127988
0.0127512
0.0127052
0.0126607
0.0126177
0.0125762
0.0125361
0.0124973
0.0124597
0.0124232
0.0123875
0.0123525
0.0123178
0.0122828
0.0122472
0.0122105
0.0121726
0.0121334
0.0120926
0.0120493
0.0120032
0.0119498
0.0118968
0.0117446
0.0965098
0.0769141
0.0637908
0.0544663
0.0475636
0.042291
0.0381607
0.034857
0.0321677
0.0299462
0.0280894
0.0265209
0.0251821
0.0240286
0.0230264
0.0221489
0.0213754
0.0206894
0.0200775
0.019529
0.0190352
0.0185889
0.0181841
0.0178158
0.0174798
0.0171726
0.0168911
0.0166328
0.0163954
0.0161768
0.0159754
0.0157896
0.0156176
0.0154581
0.0153103
0.0151729
0.0150449
0.0149255
0.0148137
0.0147086
0.0146094
0.0145153
0.0144256
0.0143398
0.0142572
0.0141774
0.0141001
0.0140249
0.0139516
0.0138799
0.0138098
0.0137411
0.0136738
0.013608
0.0135435
0.0134804
0.0134188
0.0133586
0.0132999
0.0132427
0.013187
0.0131329
0.0130803
0.0130293
0.0129799
0.012932
0.0128856
0.0128407
0.0127972
0.0127552
0.0127145
0.012675
0.0126368
0.0125996
0.0125635
0.0125281
0.0124932
0.0124587
0.012424
0.0123885
0.0123516
0.0123129
0.0122729
0.0122314
0.0121885
0.0121438
0.0120976
0.0120483
0.0120092
0.0119308
0.0965077
0.0769098
0.0637844
0.0544578
0.0475525
0.0422769
0.0381428
0.0348341
0.0321377
0.029908
0.0280569
0.0265078
0.0251935
0.024062
0.0230752
0.0222051
0.0214311
0.0207379
0.0201138
0.0195499
0.0190389
0.018575
0.018153
0.017769
0.0174192
0.0171003
0.0168093
0.0165437
0.0163011
0.0160792
0.015876
0.0156897
0.0155187
0.0153617
0.0152171
0.0150837
0.0149603
0.0148455
0.0147382
0.0146369
0.0145409
0.0144492
0.0143611
0.0142761
0.0141936
0.0141133
0.014035
0.0139587
0.0138842
0.0138115
0.0137405
0.013671
0.013603
0.0135365
0.0134714
0.0134078
0.0133457
0.0132852
0.0132262
0.0131688
0.013113
0.0130588
0.0130062
0.0129553
0.012906
0.0128583
0.0128122
0.0127677
0.0127248
0.0126835
0.0126437
0.0126054
0.0125685
0.0125331
0.012499
0.0124661
0.0124343
0.0124033
0.0123726
0.0123409
0.0123068
0.0122711
0.0122349
0.0121985
0.0121615
0.0121234
0.0120841
0.0120422
0.0120087
0.0119511
0.0965057
0.0769056
0.0637781
0.0544492
0.0475415
0.042263
0.0381252
0.034812
0.0321092
0.0298757
0.02923
0.0289181
0.0284408
0.0277156
0.026796
0.0257655
0.0246969
0.0236426
0.0226363
0.0216977
0.0208365
0.0200556
0.019354
0.0187279
0.0181722
0.0176809
0.0172471
0.0168636
0.0165229
0.0162178
0.0159407
0.015684
0.0154604
0.0152753
0.0151192
0.0149847
0.0148664
0.0147597
0.0146618
0.0145703
0.0144833
0.0143996
0.0143181
0.0142382
0.014162
0.0140907
0.0140244
0.0139625
0.0139046
0.0138498
0.0137979
0.0137482
0.0137004
0.0136543
0.0136098
0.0135669
0.0135254
0.0134855
0.013447
0.0134099
0.0133743
0.01334
0.0133072
0.0132756
0.0132455
0.0132166
0.0131891
0.0131629
0.0131381
0.0131145
0.0130923
0.0130714
0.013052
0.013034
0.0130175
0.0130024
0.0129885
0.0129757
0.0129635
0.0129492
0.0128502
0.0127335
0.0126215
0.0125203
0.0124306
0.0123504
0.0122776
0.0122081
0.0121498
0.0120674
0.0965037
0.0769013
0.0637715
0.0544401
0.0475291
0.042246
0.0381003
0.0347733
0.0320335
0.0299372
0.164269
0.215549
0.21516
0.196471
0.174397
0.154098
0.136894
0.122781
0.11137
0.102221
0.0949388
0.0891922
0.0847109
0.0812715
0.0786866
0.0767961
0.0754606
0.0745575
0.0739794
0.0736329
0.0734403
0.0733371
0.073293
0.0733063
0.0733688
0.0734612
0.0735649
0.0736666
0.0737592
0.0738407
0.073913
0.0739819
0.0740444
0.0741002
0.0741476
0.0741923
0.0742466
0.0743232
0.074434
0.0745894
0.0747963
0.0750592
0.075382
0.0757679
0.0762182
0.0767325
0.0773116
0.077958
0.0786738
0.0794605
0.0803188
0.0812489
0.0822506
0.0833232
0.0844657
0.0856769
0.0869549
0.0882975
0.089702
0.0911659
0.0926854
0.094256
0.0958735
0.0975344
0.0992367
0.100983
0.102792
0.104701
0.10694
0.109026
0.0558166
0.0345416
0.0245651
0.0193337
0.0163714
0.0146021
0.0135054
0.0128005
0.0123435
0.0119779
0.0965017
0.0768972
0.0637654
0.0544318
0.0475185
0.0422325
0.0380833
0.0347519
0.0320062
0.0299042
0.164254
0.215651
0.21512
0.196123
0.173692
0.153042
0.135518
0.121123
0.109471
0.100118
0.0926657
0.0867825
0.0821966
0.0786845
0.0760587
0.0741587
0.0728438
0.071989
0.071483
0.0712276
0.0711375
0.0711405
0.071178
0.0712048
0.0711879
0.0711044
0.0709383
0.0706794
0.0703228
0.0698674
0.0693149
0.0686696
0.0679493
0.0671658
0.0663277
0.0654462
0.0645328
0.0635988
0.0626529
0.0617017
0.0607518
0.0598101
0.058883
0.0579763
0.0570959
0.0562476
0.0554378
0.0546728
0.0539587
0.0533036
0.0527144
0.0521987
0.0517644
0.0514204
0.0511756
0.0510387
0.0510179
0.0511205
0.051353
0.0517208
0.0522279
0.0528771
0.0536699
0.0546074
0.0556907
0.0569213
0.0583086
0.0598606
0.0617294
0.0635371
0.0369696
0.025049
0.0189414
0.0155106
0.0134621
0.0121895
0.0113781
0.010839
0.0104675
0.0100921
0.0964998
0.0768931
0.0637593
0.0544237
0.047508
0.0422191
0.0380661
0.0347297
0.0319769
0.029866
0.16378
0.215116
0.214708
0.195844
0.173508
0.152909
0.135404
0.121008
0.109346
0.099983
0.0925283
0.0866556
0.0820976
0.0786344
0.0760813
0.0742788
0.0730865
0.0723781
0.0720399
0.0719705
0.0720813
0.0722972
0.072556
0.0728092
0.0730209
0.0731663
0.073229
0.0731988
0.0730708
0.0728447
0.0725225
0.0721088
0.0716099
0.0710338
0.0703897
0.069688
0.0689393
0.0681539
0.0673414
0.0665107
0.0656695
0.064824
0.063979
0.0631379
0.0623022
0.061472
0.0606465
0.0598244
0.0590043
0.0581836
0.0573615
0.0565377
0.0557121
0.0548834
0.0540508
0.053214
0.0523738
0.0515316
0.0506894
0.0498506
0.049019
0.0481991
0.0473968
0.0466189
0.0458743
0.0451735
0.0445349
0.0439717
0.0435912
0.0431136
0.0255107
0.0178166
0.0139342
0.0117485
0.0104085
0.00952761
0.00891222
0.0084425
0.00806169
0.00759412
0.0964979
0.0768893
0.0637537
0.0544164
0.0474989
0.0422082
0.0380531
0.0347145
0.0319594
0.0298465
0.163616
0.21493
0.214546
0.195703
0.173372
0.15277
0.135255
0.120848
0.109176
0.0998063
0.0923481
0.0864762
0.0819241
0.0784724
0.0759369
0.0741588
0.0729978
0.0723277
0.0720349
0.0720174
0.0721861
0.0724651
0.072792
0.073118
0.0734069
0.0736331
0.0737787
0.0738317
0.0737855
0.0736378
0.0733891
0.0730429
0.0726054
0.0720847
0.0714923
0.0708421
0.0701491
0.0694278
0.068692
0.0679541
0.0672251
0.0665136
0.0658531
0.0652461
0.0646868
0.0641683
0.0636856
0.063235
0.062814
0.0624231
0.0620643
0.0617394
0.0614483
0.0611903
0.0609651
0.0607725
0.0606121
0.0604825
0.0603818
0.0603082
0.0602592
0.0602325
0.0602257
0.0602367
0.0602653
0.0603135
0.0603949
0.060534
0.0608932
0.0615243
0.0366964
0.0262006
0.020973
0.01802
0.0161665
0.0148852
0.0139117
0.013088
0.0123503
0.0116208
0.096496
0.0768855
0.0637484
0.0544096
0.0474906
0.0421983
0.0380416
0.0347011
0.031944
0.0298288
0.163414
0.214651
0.214265
0.195445
0.17314
0.152558
0.135057
0.120658
0.10899
0.0996219
0.0921656
0.0862965
0.081749
0.0783046
0.0757795
0.0740152
0.0728716
0.0722224
0.0719538
0.0719637
0.0721626
0.0724747
0.0728376
0.0732023
0.0735321
0.0738006
0.0739886
0.0740819
0.0740712
0.073951
0.0737187
0.0733752
0.0729255
0.0723773
0.0717437
0.071041
0.0702864
0.0694971
0.068689
0.0678761
0.0670701
0.0662804
0.0655139
0.064776
0.06407
0.0633974
0.0627589
0.0621544
0.0615833
0.0610632
0.0605902
0.0601571
0.0597573
0.0593864
0.0590414
0.0587208
0.0584253
0.0581571
0.0579189
0.0577119
0.0575376
0.057398
0.0572967
0.0572376
0.0572261
0.0572704
0.0573897
0.0576133
0.0580976
0.0589084
0.0355578
0.0257018
0.0208211
0.0180954
0.0164135
0.0152758
0.0144307
0.0137259
0.0130444
0.012153
0.0964942
0.0768819
0.0637434
0.0544034
0.0474834
0.0421901
0.0380324
0.034691
0.031933
0.0298166
0.163274
0.214434
0.214018
0.195188
0.172883
0.152304
0.134807
0.120414
0.108752
0.0993906
0.0919415
0.0860804
0.081542
0.0781077
0.0755939
0.073842
0.0727116
0.0720764
0.0718223
0.0718471
0.0720613
0.0723893
0.0727692
0.0731528
0.0735036
0.0737951
0.0740071
0.074123
0.0741299
0.0740179
0.0737795
0.0734117
0.0729172
0.0723036
0.0715859
0.0707842
0.0699198
0.0690136
0.068085
0.0671502
0.0662222
0.065311
0.0644232
0.0635633
0.0627334
0.0619341
0.0611647
0.0604234
0.059708
0.059016
0.0583448
0.0576917
0.0570537
0.0564279
0.0558113
0.055201
0.0545944
0.0539891
0.0533829
0.0527736
0.0521591
0.0515378
0.0509085
0.0502704
0.0496242
0.0489714
0.0483195
0.0476704
0.0471092
0.0463697
0.0278017
0.0198321
0.0158708
0.013649
0.0122567
0.011284
0.0105306
0.00987857
0.00928359
0.00853234
0.0964925
0.0768785
0.0637387
0.0543979
0.0474772
0.0421835
0.0380255
0.0346841
0.0319262
0.02981
0.1632
0.214291
0.213817
0.194945
0.172611
0.152014
0.134508
0.120113
0.108455
0.0991022
0.0916648
0.0858182
0.0812963
0.0778797
0.0753838
0.0736489
0.0725335
0.0719106
0.0716652
0.0716951
0.0719117
0.0722405
0.0726217
0.0730092
0.073369
0.0736759
0.0739097
0.0740511
0.0740824
0.0739864
0.0737472
0.0733548
0.0728078
0.0721139
0.0712917
0.0703671
0.069368
0.0683213
0.067251
0.0661765
0.065113
0.0640709
0.0630571
0.0620752
0.0611263
0.0602094
0.0593224
0.0584624
0.0576262
0.0568103
0.0560114
0.055226
0.0544511
0.053684
0.0529223
0.0521642
0.0514083
0.0506538
0.049901
0.0491506
0.0484045
0.0476654
0.0469376
0.0462268
0.0455411
0.0448906
0.0442922
0.0437578
0.043387
0.0429065
0.0255831
0.0180905
0.0143608
0.0122941
0.011045
0.0102301
0.00965877
0.00921558
0.00884905
0.00837768
0.0964908
0.0768752
0.0637343
0.0543928
0.0474717
0.0421778
0.03802
0.0346789
0.0319213
0.0298047
0.163072
0.214026
0.213466
0.194558
0.172223
0.151644
0.134164
0.119799
0.108173
0.0988524
0.0914497
0.0856409
0.0811608
0.0777902
0.0753433
0.0736589
0.0725933
0.0720177
0.0718166
0.0718886
0.0721476
0.0725234
0.0729614
0.0734208
0.0738718
0.0742913
0.0746572
0.0749433
0.0751193
0.0751509
0.0750037
0.0746534
0.0740929
0.0733332
0.0724043
0.0713477
0.0702076
0.0690251
0.0678352
0.0666648
0.0655329
0.0644516
0.0634273
0.0624618
0.0615539
0.0606998
0.0598951
0.0591359
0.0584187
0.0577404
0.0570978
0.0564885
0.0559106
0.0553631
0.0548458
0.0543594
0.0539055
0.0534867
0.0531064
0.0527689
0.0524792
0.0522433
0.0520682
0.051962
0.0519351
0.0519996
0.0521765
0.0524931
0.0530975
0.0537452
0.0320094
0.0226156
0.0179298
0.0153283
0.01376
0.0127488
0.0120566
0.0115446
0.011138
0.0106783
0.0964891
0.076872
0.0637303
0.0543885
0.0474676
0.0421747
0.0380187
0.0346807
0.0319283
0.0298186
0.163274
0.214148
0.21341
0.194352
0.171925
0.151318
0.133873
0.119601
0.108125
0.0990118
0.091872
0.0863773
0.0822548
0.0792739
0.0772359
0.0759667
0.0753118
0.0751358
0.0753217
0.0757713
0.0764051
0.0771616
0.0779949
0.0788706
0.0797616
0.0806416
0.0814771
0.0822202
0.0828078
0.0831633
0.0832094
0.082892
0.082196
0.0811485
0.079815
0.0782825
0.0766416
0.0749754
0.0733522
0.0718233
0.0704229
0.0691704
0.0680734
0.0671305
0.0663339
0.0656718
0.0651361
0.0647176
0.0644045
0.0641834
0.0640414
0.0639672
0.0639521
0.0639896
0.064076
0.0642094
0.0643895
0.0646177
0.064896
0.0652271
0.0656145
0.0660619
0.066574
0.0671565
0.0678175
0.0685692
0.0694381
0.0705196
0.0720933
0.0741915
0.0430997
0.0297092
0.0229528
0.0191362
0.0167971
0.0152731
0.0142298
0.0134774
0.0129013
0.0123599
0.0964874
0.0768689
0.0637264
0.0543842
0.0474636
0.0421714
0.0380169
0.034681
0.0319323
0.0298246
0.162919
0.213491
0.212854
0.194095
0.172214
0.152426
0.136068
0.123117
0.113147
0.105667
0.100224
0.0964249
0.0939401
0.0924921
0.0918495
0.0918208
0.0922503
0.0930141
0.0940165
0.0951863
0.0964728
0.0978417
0.099271
0.100747
0.102256
0.103783
0.105292
0.106723
0.107978
0.108917
0.10938
0.109229
0.108387
0.106858
0.104725
0.102126
0.0992241
0.0961844
0.0931582
0.0902744
0.087635
0.0853142
0.0833594
0.0817942
0.0806204
0.0798247
0.0794472
0.0794569
0.0797719
0.0803066
0.0809896
0.0817678
0.0826048
0.0834774
0.0843723
0.0852828
0.0862063
0.0871435
0.088096
0.0890665
0.0900578
0.091073
0.0921157
0.0931905
0.0943045
0.0954706
0.0967213
0.0981162
0.099925
0.101974
0.0541443
0.0346539
0.0253148
0.0202954
0.0173691
0.0155594
0.0143896
0.0136037
0.0130614
0.0126342
0.0964858
0.0768659
0.0637228
0.0543808
0.0474612
0.0421716
0.038023
0.034699
0.0319858
0.0297401
0.0282265
0.0269522
0.0256906
0.0245546
0.0235222
0.0225835
0.021732
0.020962
0.0202674
0.0196424
0.0190811
0.0185777
0.0181271
0.017724
0.017364
0.0170428
0.0167566
0.0165019
0.0162758
0.0160758
0.0158996
0.0157457
0.0156129
0.0155003
0.0154079
0.0153357
0.0152841
0.0152526
0.0152399
0.0152426
0.0152548
0.0152691
0.0152782
0.0152755
0.0152569
0.0152191
0.0151616
0.0150862
0.0149952
0.0148919
0.0147796
0.0146619
0.0145419
0.0144227
0.0143065
0.0141954
0.0140909
0.013994
0.0139053
0.0138247
0.013752
0.0136866
0.0136278
0.0135747
0.0135267
0.013483
0.0134429
0.0134059
0.0133715
0.0133393
0.013309
0.0132803
0.0132531
0.0132272
0.0132025
0.0131791
0.0131568
0.0131355
0.0131151
0.0130934
0.0129956
0.0128819
0.0127727
0.0126738
0.0125862
0.0125085
0.0124396
0.0123766
0.0123262
0.0122523
0.0964842
0.0768629
0.063719
0.0543766
0.0474571
0.0421682
0.0380209
0.034699
0.0319892
0.0297456
0.0278691
0.0262841
0.0249301
0.0237614
0.0227435
0.0218498
0.0210598
0.020357
0.0197287
0.0191644
0.0186556
0.0181957
0.0177788
0.0174002
0.0170562
0.0167435
0.0164592
0.0162012
0.0159675
0.0157567
0.0155676
0.0153993
0.0152515
0.0151243
0.0150182
0.0149348
0.0148754
0.0148409
0.0148312
0.0148425
0.0148671
0.0148949
0.0149162
0.0149228
0.0149103
0.0148772
0.0148239
0.0147523
0.0146652
0.0145656
0.0144568
0.014342
0.0142238
0.0141046
0.0139864
0.0138706
0.0137585
0.0136511
0.0135491
0.0134531
0.0133632
0.0132796
0.0132021
0.0131306
0.0130647
0.0130043
0.0129488
0.012898
0.0128514
0.0128087
0.0127696
0.0127338
0.0127009
0.0126708
0.0126432
0.0126179
0.0125946
0.0125731
0.0125529
0.0125328
0.0125114
0.0124891
0.0124673
0.0124462
0.0124257
0.0124053
0.0123851
0.012363
0.0123476
0.0122958
0.0964826
0.0768599
0.0637151
0.0543724
0.0474531
0.0421648
0.0380192
0.0347001
0.031995
0.0297574
0.0278836
0.0262971
0.0249395
0.0237663
0.0227436
0.0218452
0.0210505
0.0203431
0.0197099
0.0191406
0.0186265
0.0181608
0.0177378
0.0173528
0.0170019
0.0166819
0.0163902
0.0161245
0.0158831
0.0156645
0.0154677
0.015292
0.0151374
0.0150045
0.0148945
0.0148103
0.014755
0.0147324
0.0147446
0.0147878
0.0148508
0.0149186
0.0149763
0.0150123
0.0150207
0.0150001
0.0149515
0.014878
0.0147836
0.0146726
0.0145501
0.0144201
0.0142856
0.0141489
0.0140132
0.0138808
0.0137538
0.0136335
0.0135208
0.0134163
0.0133203
0.0132328
0.0131538
0.0130828
0.0130196
0.0129638
0.0129148
0.0128722
0.0128355
0.0128043
0.0127779
0.012756
0.0127381
0.0127239
0.0127128
0.0127045
0.0126985
0.0126943
0.0126912
0.0126884
0.0126849
0.0126803
0.0126746
0.0126676
0.0126589
0.0126473
0.0126316
0.0126069
0.0125744
0.0124647
0.096481
0.0768568
0.0637109
0.0543674
0.0474476
0.042159
0.0380132
0.0346939
0.0319885
0.0297498
0.0278733
0.0262826
0.0249201
0.0237421
0.0227147
0.0218119
0.0210128
0.0203011
0.0196638
0.0190902
0.0185718
0.0181016
0.0176741
0.0172845
0.0169289
0.0166043
0.0163079
0.0160375
0.0157914
0.015568
0.0153664
0.0151859
0.0150266
0.0148893
0.0147763
0.0146918
0.0146418
0.0146343
0.0146784
0.0147723
0.0149008
0.0150404
0.0151651
0.0152568
0.015307
0.0153144
0.0152817
0.015214
0.0151177
0.0149996
0.0148689
0.0147297
0.0145867
0.0144436
0.0143037
0.0141696
0.0140433
0.0139266
0.0138205
0.0137259
0.0136432
0.0135725
0.0135135
0.0134659
0.013429
0.0134018
0.0133833
0.0133725
0.0133681
0.0133689
0.0133736
0.0133811
0.0133901
0.0133996
0.0134086
0.0134162
0.0134217
0.0134242
0.013423
0.0134176
0.013407
0.0133906
0.0133682
0.0133393
0.0133036
0.0132599
0.0132071
0.0131397
0.0130591
0.0128903
0.0964794
0.0768536
0.0637066
0.0543622
0.0474416
0.0421525
0.0380062
0.0346865
0.0319806
0.0297412
0.0278631
0.0262697
0.0249037
0.0237214
0.0226893
0.0217813
0.0209768
0.0202595
0.0196164
0.0190369
0.0185125
0.0180364
0.0176029
0.0172073
0.016846
0.0165158
0.0162139
0.0159382
0.0156868
0.0154581
0.0152509
0.0150645
0.0148987
0.0147546
0.0146346
0.0145448
0.0144946
0.0145006
0.0145935
0.0147912
0.0150804
0.0154145
0.0157339
0.0159997
0.0161953
0.016318
0.0163739
0.0163736
0.016329
0.0162517
0.0161634
0.0160745
0.0159913
0.0159182
0.0158587
0.0158145
0.0157863
0.0157737
0.0157751
0.0157884
0.0158108
0.0158393
0.0158707
0.0159019
0.0159304
0.0159537
0.0159699
0.0159775
0.0159756
0.0159635
0.0159411
0.0159084
0.0158658
0.0158138
0.015753
0.0156841
0.0156079
0.015525
0.0154361
0.0153415
0.0152417
0.0151367
0.0150269
0.0149123
0.0147926
0.0146669
0.0145339
0.0143878
0.0142294
0.0139856
0.0964779
0.0768504
0.063702
0.0543564
0.0474348
0.0421446
0.0379971
0.034676
0.0319684
0.0297266
0.0278456
0.0262485
0.0248782
0.0236912
0.0226541
0.0217408
0.0209308
0.0202078
0.0195588
0.0189732
0.0184427
0.0179602
0.0175203
0.0171184
0.0167508
0.0164145
0.0161066
0.0158251
0.0155679
0.0153332
0.0151196
0.014926
0.0147519
0.0145979
0.0144661
0.0143643
0.014305
0.0143225
0.0145494
0.0151242
0.0160537
0.0171672
0.0182579
0.0192269
0.0200337
0.0206773
0.0211764
0.0215567
0.0218434
0.0220592
0.0222159
0.0223612
0.0224865
0.022583
0.0226441
0.0226659
0.0226469
0.0225879
0.0224913
0.0223607
0.0222003
0.0220142
0.0218067
0.0215816
0.0213424
0.0210923
0.0208339
0.0205696
0.0203016
0.0200314
0.0197607
0.0194908
0.0192228
0.0189575
0.0186957
0.0184381
0.0181851
0.017937
0.0176939
0.0174559
0.0172227
0.0169941
0.0167696
0.0165487
0.0163303
0.0161129
0.0158945
0.015668
0.0154328
0.0151197
0.0964763
0.0768472
0.0636974
0.0543506
0.0474277
0.0421361
0.0379872
0.0346645
0.0319549
0.0297109
0.027827
0.0262265
0.0248522
0.0236606
0.0226184
0.0216996
0.0208836
0.0201541
0.0194983
0.0189055
0.0183674
0.0178773
0.0174296
0.0170199
0.0166447
0.0163009
0.0159859
0.0156975
0.0154334
0.0151918
0.0149708
0.0147687
0.0145839
0.0144159
0.0142647
0.0141386
0.0140503
0.0140746
0.0149428
0.0174291
0.0214741
0.0260808
0.0302964
0.03375
0.0363112
0.038036
0.0390498
0.0394947
0.0395051
0.0391983
0.0386611
0.0379347
0.0370734
0.0361214
0.0351188
0.034098
0.0330835
0.0320923
0.0311353
0.0302188
0.0293456
0.0285161
0.0277296
0.0269841
0.0262773
0.0256068
0.0249702
0.0243652
0.0237896
0.0232416
0.0227194
0.0222215
0.0217465
0.0212931
0.0208602
0.0204467
0.0200517
0.0196745
0.0193147
0.0189705
0.0186402
0.0183223
0.0180153
0.0177172
0.0174265
0.0171429
0.0168634
0.0165801
0.0162901
0.0159289
0.0964748
0.0768441
0.0636929
0.0543447
0.0474203
0.0421272
0.0379765
0.0346518
0.0319399
0.029693
0.0278059
0.0262015
0.0248227
0.0236262
0.0225785
0.0216536
0.020831
0.0200945
0.0194311
0.0188303
0.0182837
0.0177848
0.0173282
0.0169096
0.0165255
0.0161731
0.01585
0.0155539
0.0152824
0.0150335
0.0148049
0.0145946
0.0144
0.0142189
0.0140476
0.0138932
0.0137596
0.0138673
0.0184185
0.0305854
0.0476185
0.0628368
0.0726122
0.0770326
0.0773101
0.0749715
0.0712506
0.0669825
0.0626632
0.0585483
0.0547347
0.0512425
0.0480965
0.0452939
0.0428094
0.0406085
0.0386541
0.0369108
0.0353473
0.0339363
0.0326554
0.0314863
0.0304144
0.0294293
0.0285201
0.027674
0.026882
0.0261377
0.0254365
0.0247745
0.0241485
0.023556
0.0229946
0.0224623
0.0219572
0.0214775
0.0210217
0.0205883
0.0201757
0.0197825
0.0194071
0.0190479
0.0187031
0.0183705
0.0180474
0.01773
0.0174128
0.0170842
0.0167411
0.0163427
0.0964735
0.0768413
0.0636887
0.054339
0.0474132
0.0421184
0.0379658
0.0346389
0.0319245
0.0296747
0.0277842
0.0261759
0.0247926
0.0235909
0.0225374
0.0216061
0.0207763
0.0200319
0.0193599
0.0187497
0.0181933
0.0176839
0.0172166
0.0167871
0.0163925
0.0160299
0.0156973
0.0153923
0.0151126
0.0148558
0.0146197
0.0144019
0.0141988
0.0140065
0.0138145
0.0136228
0.0133953
0.0139037
0.0355698
0.0800176
0.122357
0.143871
0.144695
0.133642
0.11832
0.103048
0.0896341
0.0785146
0.0695336
0.0623445
0.05659
0.0519557
0.0481876
0.0450813
0.0424805
0.0402713
0.0383759
0.0367416
0.0352893
0.0339736
0.032767
0.0316515
0.0306148
0.0296473
0.0287416
0.0278916
0.0270923
0.0263393
0.0256291
0.0249584
0.0243244
0.0237247
0.023157
0.0226193
0.0221096
0.0216264
0.021168
0.0207328
0.0203193
0.0199259
0.0195509
0.0191927
0.0188491
0.0185178
0.0181958
0.0178785
0.0175601
0.0172279
0.0168593
0.0164197
0.0964724
0.0768388
0.0636849
0.0543339
0.0474065
0.0421099
0.0379553
0.0346261
0.031909
0.0296561
0.027762
0.0261495
0.0247614
0.0235542
0.0224944
0.021556
0.0207184
0.0199652
0.0192833
0.0186625
0.0180945
0.017573
0.0170929
0.0166506
0.0162434
0.0158691
0.0155256
0.0152109
0.0149225
0.0146581
0.0144159
0.0141949
0.0139936
0.0138111
0.0136381
0.0134746
0.013269
0.0138315
0.0379099
0.0877624
0.135089
0.156712
0.156438
0.143607
0.126024
0.108477
0.0930718
0.0803484
0.0701492
0.0620836
0.0557291
0.0507177
0.046749
0.0436262
0.0410997
0.0389897
0.0371813
0.0355979
0.0341871
0.0329124
0.0317481
0.030676
0.0296825
0.0287574
0.0278929
0.0270828
0.0263221
0.0256065
0.0249325
0.0242971
0.0236976
0.0231314
0.0225964
0.0220907
0.0216122
0.0211594
0.0207304
0.0203238
0.0199377
0.0195706
0.0192206
0.0188857
0.0185638
0.018252
0.0179471
0.0176441
0.0173372
0.0170127
0.0166477
0.0161879
0.0964715
0.0768369
0.0636818
0.0543295
0.0474006
0.0421022
0.0379457
0.0346141
0.0318942
0.0296382
0.0277402
0.0261234
0.0247303
0.0235174
0.022451
0.021505
0.0206587
0.0198956
0.0192027
0.0185695
0.017988
0.0174519
0.0169565
0.0164986
0.0160762
0.0156876
0.0153315
0.0150059
0.014708
0.0144355
0.0141875
0.0139661
0.0137753
0.0136249
0.0135157
0.0134617
0.013377
0.0139456
0.0370391
0.0862315
0.13401
0.156375
0.15657
0.14418
0.126967
0.109726
0.094531
0.0819026
0.0716792
0.06347
0.0568801
0.051612
0.0474179
0.0439957
0.0411492
0.0387431
0.0366804
0.0348891
0.0333153
0.0319178
0.0306651
0.0295327
0.0285015
0.0275568
0.0266866
0.0258816
0.0251342
0.0244383
0.0237888
0.0231814
0.0226126
0.0220792
0.0215784
0.0211078
0.0206651
0.0202482
0.0198549
0.0194833
0.0191314
0.0187971
0.018478
0.0181718
0.0178759
0.0175869
0.0173013
0.0170136
0.016718
0.0163998
0.016038
0.0155727
0.096471
0.0768355
0.0636795
0.0543259
0.0473956
0.0420955
0.0379369
0.034603
0.0318804
0.029621
0.0277193
0.0260981
0.0246998
0.0234808
0.0224073
0.0214532
0.0205974
0.0198234
0.019118
0.0184708
0.0178734
0.01732
0.0168062
0.0163295
0.0158886
0.0154833
0.0151129
0.0147757
0.014468
0.0141873
0.0139342
0.0137169
0.0135517
0.013476
0.0135262
0.0137707
0.0139938
0.0145923
0.0343041
0.0775993
0.121362
0.143988
0.146086
0.135892
0.121228
0.106558
0.0935802
0.0826327
0.0735133
0.0658966
0.0594883
0.0541359
0.0496217
0.0457631
0.0424403
0.0395665
0.0370727
0.0349013
0.0330031
0.0313358
0.0298632
0.0285551
0.027386
0.0263351
0.0253854
0.024523
0.0237366
0.0230167
0.0223558
0.0217472
0.0211857
0.0206663
0.0201851
0.0197383
0.0193226
0.018935
0.0185725
0.0182322
0.0179114
0.0176074
0.017317
0.0170374
0.0167651
0.0164965
0.0162274
0.015952
0.0156644
0.0153483
0.0149853
0.0145014
0.0964707
0.0768347
0.0636779
0.0543232
0.0473915
0.0420898
0.0379293
0.034593
0.0318676
0.0296051
0.0276996
0.0260739
0.0246703
0.0234451
0.0223644
0.0214016
0.0205356
0.0197497
0.0190304
0.0183669
0.0177511
0.017177
0.0166407
0.0161406
0.0156769
0.015251
0.0148647
0.0145161
0.0142004
0.0139144
0.0136619
0.0134638
0.0133641
0.0134681
0.0139256
0.0149584
0.0158294
0.0163351
0.0173052
0.0211799
0.0289597
0.0381314
0.046572
0.053703
0.0588699
0.0619038
0.0630025
0.0625021
0.0607683
0.0581594
0.0550069
0.0516316
0.0482396
0.0449641
0.0418915
0.0390692
0.0365146
0.0342252
0.0321854
0.0303732
0.0287637
0.0273315
0.0260531
0.0249076
0.0238767
0.0229452
0.0221006
0.0213326
0.0206327
0.0199937
0.0194097
0.0188752
0.0183858
0.017937
0.0175248
0.0171454