/*--------------------------------*- C++ -*----------------------------------*\
| =========                 |                                                 |
| \\      /  F ield         | OpenFOAM: The Open Source CFD Toolbox           |
|  \\    /   O peration     | Version:  v2012                                 |
|   \\  /    A nd           | Website:  www.openfoam.com                      |
|    \\/     M anipulation  |                                                 |
\*---------------------------------------------------------------------------*/
FoamFile
{
    version     2.0;
    format      ascii;
    class       volScalarField;
    location    "550/air";
    object      G;
}
// * * * * * * * * * * * * * * * * * * * * * * * * * * * * * * * * * * * * * //

dimensions      [1 0 -3 0 0 0 0];


internalField   nonuniform List<scalar> 
287104
(
2870.22
2906.21
2916.07
2924.19
2931.84
2938.8
2945.05
2950.67
2955.75
2960.39
2964.63
2968.53
2972.15
2975.51
2978.65
2981.6
2984.38
2987
2989.49
2991.86
2994.11
2996.27
2998.34
3000.33
3002.25
3004.1
3005.9
3007.63
3009.32
3010.96
3012.56
3014.12
3015.65
3017.14
3018.58
3020
3021.4
3022.8
3024.16
3025.49
3026.79
3028.05
3029.31
3030.59
3031.83
3033.04
3034.24
3035.42
3036.59
3037.74
3038.88
3040.01
3041.13
3042.23
3043.32
3044.4
3045.46
3046.52
3047.56
3048.59
3049.6
3050.61
3051.6
3052.59
3053.56
3054.53
3055.49
3056.45
3057.41
3058.37
3059.33
3060.29
3061.24
3062.19
3063.13
3064.06
3064.99
3065.92
3066.85
3067.78
3068.71
3069.64
3070.55
3071.44
3072.24
3072.92
3073.68
3075.52
3079.92
3070.81
2881.49
2920.29
2929.91
2937.63
2944.91
2951.5
2957.39
2962.68
2967.44
2971.74
2975.65
2979.23
2982.51
2985.54
2988.35
2990.97
2993.42
2995.72
2997.89
2999.94
3001.88
3003.73
3005.49
3007.18
3008.79
3010.34
3011.84
3013.28
3014.67
3016.02
3017.33
3018.6
3019.84
3021.04
3022.2
3023.3
3024.41
3025.56
3026.67
3027.72
3028.74
3029.7
3030.68
3031.72
3032.71
3033.65
3034.59
3035.52
3036.43
3037.33
3038.22
3039.1
3039.97
3040.83
3041.68
3042.52
3043.35
3044.17
3044.98
3045.79
3046.58
3047.36
3048.14
3048.91
3049.66
3050.42
3051.17
3051.92
3052.68
3053.43
3054.18
3054.93
3055.66
3056.38
3057.1
3057.82
3058.56
3059.33
3060.13
3060.95
3061.78
3062.61
3063.42
3064.21
3064.96
3065.62
3066.37
3068.4
3073.76
3065.26
2868.97
2906.87
2916.02
2923.39
2930.39
2936.73
2942.4
2947.47
2952.04
2956.17
2959.91
2963.33
2966.45
2969.34
2972.01
2974.49
2976.82
2978.99
2981.04
2982.97
2984.8
2986.54
2988.19
2989.77
2991.28
2992.74
2994.13
2995.47
2996.76
2998.02
2999.23
3000.4
3001.55
3002.66
3003.71
3004.71
3005.71
3006.79
3007.83
3008.79
3009.71
3010.56
3011.43
3012.4
3013.33
3014.18
3015.03
3015.87
3016.7
3017.51
3018.32
3019.12
3019.9
3020.68
3021.45
3022.21
3022.96
3023.7
3024.43
3025.15
3025.87
3026.57
3027.27
3027.96
3028.65
3029.33
3030.01
3030.69
3031.37
3032.04
3032.7
3033.35
3033.98
3034.62
3035.26
3035.92
3036.63
3037.38
3038.17
3038.99
3039.82
3040.62
3041.4
3042.15
3042.88
3043.5
3044.17
3046.15
3051.82
3044.21
2856.62
2893.61
2902.48
2909.63
2916.43
2922.6
2928.1
2933.04
2937.48
2941.5
2945.13
2948.45
2951.49
2954.29
2956.88
2959.29
2961.53
2963.64
2965.62
2967.49
2969.26
2970.94
2972.53
2974.06
2975.52
2976.92
2978.27
2979.56
2980.8
2982
2983.16
2984.29
2985.39
2986.45
2987.45
2988.38
2989.32
2990.37
2991.38
2992.28
2993.15
2993.94
2994.75
2995.69
2996.59
2997.39
2998.2
2998.99
2999.77
3000.55
3001.31
3002.07
3002.81
3003.54
3004.27
3004.98
3005.69
3006.39
3007.08
3007.77
3008.44
3009.11
3009.77
3010.42
3011.07
3011.72
3012.37
3013.01
3013.64
3014.25
3014.86
3015.45
3016.04
3016.64
3017.27
3017.94
3018.67
3019.46
3020.29
3021.14
3022
3022.83
3023.62
3024.35
3025.04
3025.61
3026.21
3028.11
3033.85
3026.73
2845.15
2881.42
2890.11
2897.1
2903.75
2909.77
2915.15
2919.97
2924.31
2928.23
2931.78
2935.03
2938
2940.74
2943.27
2945.62
2947.81
2949.87
2951.8
2953.62
2955.34
2956.98
2958.53
2960.02
2961.44
2962.8
2964.11
2965.37
2966.58
2967.74
2968.87
2969.95
2971.01
2972.04
2973.01
2973.89
2974.79
2975.79
2976.77
2977.64
2978.48
2979.23
2979.99
2980.9
2981.77
2982.53
2983.3
2984.05
2984.8
2985.54
2986.27
2986.99
2987.69
2988.39
2989.08
2989.76
2990.43
2991.09
2991.75
2992.4
2993.03
2993.67
2994.29
2994.91
2995.53
2996.14
2996.75
2997.34
2997.91
2998.47
2999.01
2999.56
3000.13
3000.73
3001.39
3002.09
3002.85
3003.67
3004.51
3005.38
3006.23
3007.04
3007.77
3008.41
3008.94
3009.36
3009.84
3011.62
3017.13
3009.91
2834.14
2869.78
2878.32
2885.19
2891.7
2897.58
2902.85
2907.58
2911.84
2915.69
2919.2
2922.38
2925.31
2928
2930.48
2932.78
2934.92
2936.93
2938.82
2940.6
2942.28
2943.88
2945.4
2946.85
2948.24
2949.57
2950.84
2952.08
2953.26
2954.4
2955.49
2956.55
2957.57
2958.56
2959.51
2960.39
2961.25
2962.19
2963.11
2963.94
2964.76
2965.51
2966.23
2967.07
2967.89
2968.62
2969.35
2970.07
2970.78
2971.47
2972.16
2972.83
2973.49
2974.14
2974.78
2975.42
2976.05
2976.66
2977.27
2977.87
2978.46
2979.04
2979.62
2980.19
2980.76
2981.31
2981.84
2982.35
2982.84
2983.32
2983.8
2984.3
2984.85
2985.46
2986.13
2986.85
2987.61
2988.39
2989.19
2989.97
2990.72
2991.39
2991.95
2992.37
2992.63
2992.78
2993.02
2994.47
2999.24
2990.79
2823.37
2858.43
2866.84
2873.57
2879.95
2885.69
2890.83
2895.46
2899.66
2903.46
2906.96
2910.1
2912.98
2915.63
2918.06
2920.32
2922.42
2924.39
2926.25
2927.99
2929.65
2931.21
2932.7
2934.12
2935.47
2936.77
2938.02
2939.22
2940.38
2941.5
2942.57
2943.59
2944.58
2945.54
2946.48
2947.38
2948.23
2949.04
2949.86
2950.66
2951.44
2952.22
2952.94
2953.63
2954.34
2955.03
2955.7
2956.35
2956.99
2957.62
2958.23
2958.82
2959.41
2959.98
2960.55
2961.1
2961.65
2962.18
2962.7
2963.22
2963.72
2964.22
2964.71
2965.19
2965.65
2966.08
2966.49
2966.87
2967.23
2967.6
2968
2968.44
2968.95
2969.52
2970.14
2970.81
2971.5
2972.18
2972.83
2973.44
2973.94
2974.35
2974.61
2974.71
2974.65
2974.46
2974.39
2975.36
2978.84
2967.3
2812.77
2847.26
2855.54
2862.15
2868.39
2873.98
2878.96
2883.44
2887.52
2891.23
2894.7
2897.76
2900.58
2903.18
2905.58
2907.82
2909.9
2911.86
2913.71
2915.45
2917.09
2918.65
2920.13
2921.53
2922.86
2924.13
2925.35
2926.52
2927.66
2928.76
2929.81
2930.8
2931.74
2932.64
2933.57
2934.54
2935.38
2935.99
2936.61
2937.34
2938.07
2938.9
2939.62
2940.07
2940.59
2941.2
2941.78
2942.34
2942.88
2943.4
2943.9
2944.38
2944.85
2945.32
2945.77
2946.21
2946.63
2947.03
2947.42
2947.79
2948.16
2948.51
2948.85
2949.16
2949.44
2949.69
2949.91
2950.12
2950.33
2950.58
2950.87
2951.23
2951.65
2952.12
2952.64
2953.19
2953.75
2954.29
2954.77
2955.18
2955.43
2955.55
2955.52
2955.34
2955.04
2954.66
2954.38
2954.93
2956.85
2940.01
2802.3
2836.23
2844.39
2850.9
2857.01
2862.47
2867.27
2871.55
2875.37
2878.76
2881.6
2884.28
2886.91
2889.47
2891.9
2894.2
2896.38
2898.44
2900.39
2902.24
2903.99
2905.64
2907.19
2908.66
2910.02
2911.3
2912.5
2913.65
2914.76
2915.82
2916.83
2917.77
2918.64
2919.46
2920.37
2921.44
2922.3
2922.62
2922.95
2923.6
2924.28
2925.2
2925.99
2926.11
2926.35
2926.91
2927.38
2927.82
2928.24
2928.62
2928.99
2929.36
2929.73
2930.09
2930.43
2930.75
2931.05
2931.34
2931.62
2931.88
2932.13
2932.37
2932.57
2932.75
2932.89
2933.01
2933.12
2933.25
2933.42
2933.65
2933.95
2934.31
2934.72
2935.17
2935.65
2936.14
2936.64
2937.13
2937.57
2937.95
2938.28
2938.42
2938.33
2938.05
2937.66
2937.29
2937.08
2937.63
2938.82
2918.78
2791.97
2825.33
2833.38
2839.79
2845.82
2851.18
2855.85
2859.93
2863.37
2865.73
2863.52
2863.91
2865.63
2868.05
2870.77
2873.6
2876.44
2879.22
2881.89
2884.42
2886.8
2889.02
2891.07
2892.94
2894.64
2896.18
2897.57
2898.85
2900.06
2901.2
2902.29
2903.31
2904.22
2905.06
2906.05
2907.36
2908.4
2908.46
2908.52
2909.2
2909.93
2911.12
2912.19
2912
2912.02
2912.64
2913.11
2913.54
2913.93
2914.3
2914.65
2915.02
2915.38
2915.73
2916.05
2916.33
2916.59
2916.82
2917.04
2917.24
2917.4
2917.54
2917.62
2917.67
2917.69
2917.7
2917.73
2917.81
2917.95
2918.15
2918.4
2918.7
2919.01
2919.34
2919.67
2920.01
2920.34
2920.65
2920.96
2921.4
2923.11
2924.34
2924.92
2924.96
2924.72
2924.51
2924.64
2925.77
2927.65
2908.31
2781.78
2814.59
2822.51
2828.83
2834.77
2840.07
2844.71
2848.77
2851.83
2850.52
2806.62
2797.99
2799.88
2805.19
2811.42
2817.68
2823.63
2829.13
2834.11
2838.57
2842.5
2845.91
2848.85
2851.33
2853.39
2855.07
2856.43
2857.54
2858.46
2859.27
2860.01
2860.69
2861.28
2861.81
2862.59
2863.94
2865
2864.58
2864.16
2864.74
2865.42
2866.83
2868.2
2867.64
2867.36
2868.08
2868.59
2869.07
2869.51
2869.93
2870.36
2870.8
2871.22
2871.6
2871.92
2872.19
2872.41
2872.59
2872.72
2872.8
2872.8
2872.73
2872.6
2872.4
2872.18
2871.96
2871.76
2871.59
2871.44
2871.31
2871.17
2871.02
2870.85
2870.65
2870.42
2870.16
2869.84
2869.43
2869
2869.55
2885.24
2897.16
2905.06
2909.95
2912.86
2914.74
2916.55
2919.5
2923.98
2909.36
2771.75
2804
2811.81
2818.03
2823.88
2829.1
2833.7
2837.72
2840.69
2838.91
2792.52
2783.11
2784.92
2790.38
2796.86
2803.39
2809.61
2815.36
2820.58
2825.25
2829.36
2832.93
2835.98
2838.55
2840.67
2842.39
2843.75
2844.8
2845.61
2846.27
2846.87
2847.43
2847.92
2848.39
2849.25
2850.96
2852.42
2851.77
2851.08
2851.88
2852.82
2854.83
2856.95
2856.31
2856.01
2857.19
2858.11
2859.03
2859.96
2860.93
2861.97
2863.05
2864.13
2865.19
2866.22
2867.24
2868.23
2869.21
2870.14
2871.03
2871.85
2872.61
2873.33
2874.02
2874.7
2875.39
2876.08
2876.74
2877.35
2877.88
2878.32
2878.65
2878.86
2878.97
2878.95
2878.8
2878.5
2878.02
2877.46
2877.88
2890.72
2900.43
2906.87
2910.9
2913.37
2915.13
2917.17
2921.22
2928.69
2920.53
2761.87
2793.58
2801.27
2807.39
2813.15
2818.3
2822.82
2826.78
2829.69
2827.88
2782.03
2772.68
2774.44
2779.83
2786.22
2792.68
2798.83
2804.53
2809.7
2814.32
2818.38
2821.9
2824.89
2827.4
2829.47
2831.16
2832.48
2833.45
2834.14
2834.62
2835
2835.36
2835.69
2836.02
2836.82
2838.77
2840.46
2839.34
2838.06
2838.74
2839.56
2841.76
2844.24
2843.02
2842.12
2843.21
2843.96
2844.72
2845.52
2846.4
2847.33
2848.27
2849.18
2850.06
2850.93
2851.79
2852.66
2853.5
2854.32
2855.11
2855.9
2856.7
2857.55
2858.47
2859.49
2860.58
2861.74
2862.92
2864.12
2865.3
2866.46
2867.6
2868.7
2869.76
2870.75
2871.64
2872.41
2873.02
2873.57
2875.03
2887.19
2896.1
2902
2905.94
2908.8
2911.23
2914.09
2919.38
2929.35
2927.13
2752.14
2783.32
2790.9
2796.93
2802.6
2807.67
2812.12
2816.02
2818.89
2817.12
2772.09
2762.91
2764.64
2769.93
2776.22
2782.57
2788.63
2794.23
2799.32
2803.87
2807.87
2811.33
2814.26
2816.71
2818.75
2820.45
2821.82
2822.86
2823.55
2823.94
2824.17
2824.36
2824.56
2824.8
2825.62
2827.86
2829.91
2828.43
2826.6
2827.25
2828.02
2830.46
2833.45
2831.76
2830.31
2831.38
2832.04
2832.77
2833.58
2834.44
2835.3
2836.08
2836.78
2837.42
2838.06
2838.68
2839.27
2839.81
2840.3
2840.77
2841.23
2841.73
2842.29
2842.92
2843.6
2844.31
2845.01
2845.67
2846.3
2846.88
2847.42
2847.91
2848.34
2848.7
2848.95
2849.09
2849.09
2848.94
2848.69
2849.12
2860.95
2869.48
2875.14
2879.12
2882.25
2885.08
2888.38
2893.88
2902.75
2896.06
2742.56
2773.21
2780.7
2786.64
2792.24
2797.22
2801.61
2805.44
2808.27
2806.53
2762.27
2753.25
2754.95
2760.15
2766.33
2772.58
2778.55
2784.07
2789.08
2793.56
2797.5
2800.89
2803.76
2806.15
2808.16
2809.87
2811.34
2812.52
2813.33
2813.73
2813.83
2813.81
2813.82
2813.94
2814.76
2817.3
2819.76
2818
2815.68
2816.33
2817.09
2819.77
2823.32
2821.28
2819.34
2820.46
2821.17
2822.05
2823.03
2824
2824.85
2825.54
2826.15
2826.77
2827.43
2828.1
2828.74
2829.33
2829.89
2830.45
2831.06
2831.74
2832.5
2833.3
2834.11
2834.91
2835.67
2836.39
2837.05
2837.67
2838.23
2838.71
2839.09
2839.33
2839.44
2839.41
2839.25
2838.96
2838.62
2839.02
2850.51
2858.84
2864.42
2868.29
2871.15
2873.55
2876.37
2881.31
2889.49
2882.45
2733.11
2763.24
2770.65
2776.52
2782.05
2786.98
2791.3
2795.07
2797.84
2796.11
2752.56
2743.67
2745.34
2750.46
2756.54
2762.7
2768.58
2774.02
2778.96
2783.37
2787.25
2790.59
2793.4
2795.72
2797.67
2799.37
2800.93
2802.31
2803.35
2803.89
2803.93
2803.7
2803.44
2803.36
2804.12
2806.87
2809.74
2807.82
2805.06
2805.72
2806.47
2809.35
2813.46
2811.17
2808.81
2810.03
2810.94
2812.1
2813.35
2814.43
2815.21
2815.75
2816.24
2816.83
2817.52
2818.25
2818.96
2819.65
2820.37
2821.16
2822.05
2823.02
2824.04
2825.07
2826.08
2827.06
2828.01
2828.94
2829.85
2830.71
2831.52
2832.23
2832.82
2833.31
2833.69
2834.01
2834.32
2834.68
2835.25
2836.99
2848.96
2857.89
2864
2868.18
2871.15
2873.59
2876.49
2881.67
2891.15
2889.79
2723.8
2753.42
2760.73
2766.54
2772.02
2776.92
2781.21
2784.93
2787.65
2785.92
2742.99
2734.23
2735.86
2740.9
2746.89
2752.96
2758.75
2764.12
2768.98
2773.33
2777.15
2780.43
2783.18
2785.43
2787.29
2788.93
2790.54
2792.1
2793.45
2794.27
2794.41
2794.01
2793.43
2793.03
2793.62
2796.48
2799.72
2797.71
2794.6
2795.25
2796
2799
2803.59
2801.14
2798.46
2799.87
2801.12
2802.69
2804.2
2805.28
2805.86
2806.15
2806.49
2807.04
2807.77
2808.56
2809.37
2810.21
2811.13
2812.14
2813.23
2814.36
2815.48
2816.57
2817.62
2818.64
2819.64
2820.62
2821.55
2822.4
2823.13
2823.71
2824.15
2824.45
2824.68
2824.88
2825.13
2825.51
2826.16
2828.02
2840.01
2848.98
2854.98
2858.84
2861.37
2863.34
2865.69
2870.12
2878.67
2875.24
2714.63
2743.73
2750.96
2756.7
2762.13
2767.02
2771.31
2775.04
2777.75
2776.06
2733.75
2725.13
2726.73
2731.68
2737.57
2743.54
2749.23
2754.49
2759.26
2763.51
2767.24
2770.44
2773.1
2775.24
2776.96
2778.47
2780
2781.67
2783.32
2784.51
2784.89
2784.44
2783.52
2782.69
2782.92
2785.7
2789.19
2787.14
2783.7
2784.29
2785
2788
2792.94
2790.43
2787.54
2789.24
2790.95
2792.96
2794.63
2795.51
2795.68
2795.6
2795.72
2796.19
2796.9
2797.71
2798.55
2799.44
2800.39
2801.39
2802.38
2803.34
2804.23
2805.05
2805.84
2806.58
2807.28
2807.89
2808.37
2808.69
2808.82
2808.76
2808.55
2808.23
2807.87
2807.54
2807.29
2807.18
2807.29
2808.52
2820.48
2829.3
2835.07
2838.72
2841.15
2843.07
2845.09
2848.51
2854.76
2846.98
2705.61
2734.2
2741.33
2746.99
2752.36
2757.22
2761.54
2765.33
2768.17
2766.71
2725.37
2717.02
2718.64
2723.48
2729.21
2735.01
2740.52
2745.58
2750.14
2754.16
2757.65
2760.6
2763
2764.86
2766.27
2767.43
2768.65
2770.15
2771.89
2773.39
2774.08
2773.68
2772.46
2771.09
2770.73
2773.15
2776.7
2774.61
2770.88
2771.37
2772
2774.88
2780.08
2777.65
2774.79
2776.98
2779.35
2781.82
2783.51
2784.04
2783.75
2783.35
2783.34
2783.8
2784.54
2785.35
2786.15
2786.94
2787.69
2788.39
2788.99
2789.5
2789.93
2790.31
2790.64
2790.91
2791.08
2791.1
2790.93
2790.56
2790.01
2789.35
2788.61
2787.88
2787.2
2786.63
2786.19
2785.81
2785.48
2785.92
2798.11
2807.29
2813.51
2817.71
2820.7
2822.98
2824.92
2827.55
2831.8
2820.83
2696.75
2724.84
2731.86
2737.43
2742.72
2747.52
2751.83
2755.69
2758.77
2758.09
2720.61
2713.26
2714.92
2719.43
2724.68
2729.9
2734.75
2739.08
2742.84
2746.03
2748.66
2750.78
2752.42
2753.59
2754.36
2754.91
2755.57
2756.68
2758.32
2760.09
2761.24
2761.19
2759.98
2758.23
2757.31
2759.31
2762.87
2760.86
2756.97
2757.42
2757.97
2760.66
2766.03
2763.78
2761.12
2763.96
2767.02
2769.85
2771.44
2771.6
2771.03
2770.62
2770.84
2771.6
2772.58
2773.53
2774.29
2774.86
2775.26
2775.49
2775.6
2775.64
2775.64
2775.61
2775.52
2775.32
2774.97
2774.44
2773.73
2772.88
2771.96
2771.04
2770.18
2769.44
2768.84
2768.39
2768.04
2767.72
2767.39
2767.78
2780.87
2790.89
2797.84
2802.64
2805.98
2808.25
2809.86
2811.74
2814.48
2801.51
2688.01
2715.6
2722.53
2728.02
2733.23
2737.94
2742.15
2745.92
2749.24
2751.74
2750.98
2752.12
2754.15
2756.42
2758.7
2760.91
2763
2764.96
2766.78
2768.47
2770.03
2771.47
2772.78
2773.91
2774.83
2775.61
2776.53
2777.96
2780.14
2782.81
2785.16
2786.32
2785.97
2784.58
2783.63
2785.64
2789.65
2788.03
2784.24
2784.85
2785.35
2787.71
2793.03
2790.43
2787.32
2790.05
2792.78
2794.7
2794.88
2793.59
2791.95
2791.01
2791.08
2791.85
2792.88
2793.85
2794.67
2795.33
2795.87
2796.31
2796.7
2797.07
2797.4
2797.65
2797.76
2797.69
2797.41
2796.97
2796.42
2795.83
2795.29
2794.84
2794.55
2794.42
2794.44
2794.58
2794.77
2794.96
2795.11
2795.33
2796.59
2797.69
2798.54
2799.19
2799.61
2799.78
2799.84
2800.46
2802.02
2788.08
2679.37
2706.47
2713.31
2718.71
2723.84
2728.47
2732.6
2736.3
2739.62
2742.56
2745.11
2747.47
2749.72
2751.83
2753.8
2755.64
2757.37
2759
2760.53
2761.97
2763.34
2764.65
2765.88
2766.99
2767.92
2768.67
2769.42
2770.57
2772.53
2775.26
2778.09
2779.99
2780.3
2779.15
2777.93
2779.45
2783.33
2781.83
2778.07
2778.73
2779.13
2781.18
2786.59
2784.26
2781.4
2784.47
2787.15
2788.44
2787.75
2785.86
2784.15
2783.56
2784.1
2785.22
2786.38
2787.33
2788.07
2788.66
2789.18
2789.68
2790.17
2790.62
2790.96
2791.14
2791.1
2790.85
2790.45
2789.97
2789.5
2789.1
2788.82
2788.7
2788.73
2788.89
2789.13
2789.41
2789.68
2789.89
2790.04
2790.14
2790.28
2790.42
2790.55
2790.65
2790.63
2790.48
2790.34
2790.83
2792.6
2780.29
2670.79
2697.39
2704.15
2709.47
2714.52
2719.08
2723.15
2726.79
2730.07
2733.04
2735.83
2738.31
2740.56
2742.63
2744.54
2746.32
2747.99
2749.56
2751.04
2752.44
2753.77
2755.05
2756.28
2757.44
2758.45
2759.26
2759.93
2760.79
2762.34
2764.81
2767.78
2770.24
2771.25
2770.56
2769.26
2770.29
2773.88
2772.37
2768.59
2769.24
2769.51
2771.21
2776.8
2774.9
2772.37
2775.64
2778.02
2778.59
2777.28
2775.32
2774.13
2774.27
2775.37
2776.71
2777.86
2778.71
2779.38
2779.99
2780.62
2781.25
2781.82
2782.24
2782.44
2782.43
2782.2
2781.85
2781.46
2781.1
2780.86
2780.75
2780.79
2780.96
2781.22
2781.55
2781.88
2782.19
2782.44
2782.65
2782.8
2782.92
2782.97
2783.03
2783.08
2783.1
2783.08
2782.99
2782.93
2783.64
2786.36
2778.09
2662.24
2688.36
2695.02
2700.26
2705.23
2709.72
2713.73
2717.31
2720.54
2723.46
2726.16
2728.6
2730.82
2732.87
2734.76
2736.53
2738.18
2739.73
2741.19
2742.57
2743.88
2745.13
2746.36
2747.56
2748.68
2749.64
2750.39
2751.12
2752.28
2754.3
2757.07
2759.77
2761.36
2761.2
2760.03
2760.71
2763.96
2762.37
2758.82
2759.38
2759.43
2760.71
2766.02
2764.51
2762.12
2765.23
2767.01
2766.85
2765.22
2763.59
2763.08
2763.76
2764.96
2766.06
2766.85
2767.46
2768.06
2768.7
2769.36
2769.92
2770.29
2770.4
2770.26
2769.94
2769.52
2769.11
2768.78
2768.58
2768.53
2768.61
2768.8
2769.07
2769.37
2769.67
2769.94
2770.18
2770.39
2770.58
2770.74
2770.86
2770.95
2771.03
2771.12
2771.24
2771.4
2771.52
2771.69
2772.71
2776.01
2768.59
2653.74
2679.37
2685.94
2691.1
2695.99
2700.41
2704.36
2707.89
2711.06
2713.93
2716.55
2718.94
2721.13
2723.15
2725.03
2726.78
2728.42
2729.96
2731.4
2732.76
2734.05
2735.27
2736.47
2737.69
2738.93
2740.12
2741.14
2741.99
2742.99
2744.59
2746.96
2749.6
2751.47
2751.71
2750.7
2751.17
2754.16
2752.47
2748
2748.23
2747.78
2748.32
2754.02
2752.56
2749.94
2752.56
2753.66
2752.98
2751.36
2750.18
2750.06
2750.64
2751.28
2751.66
2751.9
2752.21
2752.64
2753.12
2753.47
2753.58
2753.41
2753
2752.45
2751.89
2751.41
2751.08
2750.92
2750.93
2751.08
2751.33
2751.65
2752.01
2752.36
2752.71
2753.05
2753.37
2753.69
2753.99
2754.26
2754.49
2754.71
2754.96
2755.27
2755.67
2756.13
2756.53
2756.91
2758.17
2761.47
2752.49
2645.34
2670.48
2676.97
2682.05
2686.87
2691.22
2695.1
2698.57
2701.7
2704.52
2707.09
2709.43
2711.59
2713.59
2715.45
2717.18
2718.81
2720.34
2721.77
2723.12
2724.39
2725.59
2726.74
2727.93
2729.22
2730.62
2732.02
2733.27
2734.44
2735.87
2737.88
2740.26
2742.16
2742.52
2741.5
2741.74
2744.59
2742.98
2742.65
2741.95
2739.96
2738.59
2738.32
2736
2732.55
2734.46
2734.93
2733.87
2732.24
2731.12
2730.69
2730.49
2730.19
2729.9
2729.88
2730.19
2730.68
2731.1
2731.29
2731.21
2730.95
2730.63
2730.36
2730.26
2730.34
2730.6
2731.01
2731.54
2732.13
2732.76
2733.4
2734.02
2734.62
2735.2
2735.76
2736.3
2736.81
2737.28
2737.72
2738.13
2738.57
2739.08
2739.7
2740.4
2741.09
2741.62
2742.08
2743.38
2746.36
2735.6
2637.18
2661.84
2668.24
2673.24
2677.99
2682.27
2686.1
2689.52
2692.6
2695.38
2697.9
2700.21
2702.33
2704.3
2706.14
2707.86
2709.47
2710.99
2712.42
2713.77
2715.04
2716.22
2717.33
2718.45
2719.7
2721.18
2722.88
2724.61
2726.24
2727.85
2729.74
2731.94
2733.82
2734.21
2733
2732.81
2735.55
2733.47
2716.21
2711.84
2705.76
2700.92
2713.2
2710.06
2706.1
2708.09
2708.81
2708.2
2707.16
2706.48
2706.15
2705.91
2705.83
2706.17
2707.01
2708.12
2709.17
2709.94
2710.4
2710.64
2710.85
2711.13
2711.56
2712.17
2712.91
2713.75
2714.64
2715.55
2716.46
2717.33
2718.17
2718.98
2719.75
2720.48
2721.18
2721.84
2722.45
2723.01
2723.55
2724.12
2724.78
2725.55
2726.41
2727.26
2727.97
2728.44
2728.89
2730.18
2732.83
2720.99
2629.48
2653.68
2660.01
2664.93
2669.6
2673.83
2677.59
2680.96
2684
2686.74
2689.23
2691.5
2693.6
2695.54
2697.35
2699.05
2700.66
2702.17
2703.6
2704.96
2706.24
2707.43
2708.52
2709.57
2710.7
2712.08
2713.83
2715.86
2717.96
2719.98
2722.03
2724.27
2726.35
2727.08
2725.89
2725.13
2727.57
2725.17
2752.16
2740.15
2727.59
2718.77
2681.85
2679.58
2677.78
2682.25
2684.87
2685.86
2686.24
2686.67
2687.17
2687.74
2688.63
2689.94
2691.52
2693
2694.14
2694.92
2695.48
2696
2696.62
2697.39
2698.3
2699.31
2700.36
2701.42
2702.47
2703.49
2704.46
2705.38
2706.27
2707.11
2707.91
2708.66
2709.37
2710.01
2710.62
2711.21
2711.85
2712.57
2713.42
2714.35
2715.27
2716.06
2716.63
2716.99
2717.44
2718.76
2721.19
2708.72
2622.57
2646.38
2652.63
2657.48
2662.09
2666.25
2669.96
2673.28
2676.27
2678.96
2681.42
2683.66
2685.72
2687.64
2689.43
2691.11
2692.71
2694.22
2695.67
2697.04
2698.34
2699.57
2700.7
2701.73
2702.73
2703.89
2705.42
2707.37
2709.64
2711.98
2714.27
2716.69
2719.17
2720.78
2720.52
2719.86
2721.99
2714.29
2651.46
2631.69
2620
2616.33
2655.4
2659.35
2660.71
2667.38
2670.99
2672.81
2674.07
2675.31
2676.53
2677.79
2679.22
2680.78
2682.2
2683.3
2684.07
2684.65
2685.25
2685.98
2686.88
2687.91
2689.01
2690.15
2691.27
2692.36
2693.4
2694.4
2695.35
2696.25
2697.1
2697.91
2698.66
2699.37
2700.01
2700.62
2701.23
2701.89
2702.63
2703.48
2704.42
2705.35
2706.18
2706.8
2707.2
2707.5
2708.01
2709.36
2711.58
2698.7
2616.85
2640.31
2646.51
2651.31
2655.87
2659.99
2663.66
2666.95
2669.89
2672.56
2674.97
2677.17
2679.19
2681.06
2682.82
2684.47
2686.04
2687.55
2689
2690.39
2691.72
2693
2694.2
2695.28
2696.26
2697.24
2698.44
2700.02
2702.07
2704.41
2706.81
2709.33
2712.14
2714.85
2716.31
2716.74
2719.18
2704.26
2420.71
2400.92
2393.49
2397.26
2644.41
2654.48
2655.35
2660.49
2662.38
2663.64
2665.2
2667.05
2668.87
2670.58
2672.18
2673.54
2674.62
2675.45
2676.2
2677.02
2678
2679.11
2680.32
2681.55
2682.76
2683.93
2685.04
2686.09
2687.09
2688.02
2688.9
2689.72
2690.5
2691.23
2691.9
2692.54
2693.14
2693.76
2694.43
2695.17
2696
2696.89
2697.78
2698.59
2699.25
2699.71
2700.04
2700.38
2700.99
2702.37
2704.43
2691.22
2612.6
2635.82
2641.99
2646.77
2651.31
2655.43
2659.11
2662.41
2665.37
2668.04
2670.46
2672.65
2674.65
2676.48
2678.19
2679.78
2681.29
2682.73
2684.13
2685.48
2686.81
2688.1
2689.33
2690.48
2691.49
2692.42
2693.43
2694.65
2696.34
2698.48
2700.85
2703.43
2706.43
2709.94
2713.16
2715.07
2718.79
2699.26
2236.36
2217.68
2214.48
2224.4
2642.28
2655.88
2654.15
2656.37
2656.21
2657.08
2658.94
2661.02
2662.84
2664.39
2665.76
2667.02
2668.25
2669.51
2670.89
2672.38
2673.94
2675.48
2676.95
2678.31
2679.55
2680.69
2681.72
2682.67
2683.55
2684.36
2685.11
2685.83
2686.51
2687.15
2687.78
2688.39
2689.03
2689.72
2690.47
2691.29
2692.13
2692.96
2693.72
2694.37
2694.88
2695.28
2695.65
2696.1
2696.82
2698.27
2700.27
2686.83
2609.94
2633.01
2639.16
2643.94
2648.49
2652.65
2656.38
2659.76
2662.82
2665.59
2668.12
2670.41
2672.49
2674.38
2676.1
2677.68
2679.14
2680.5
2681.8
2683.05
2684.27
2685.47
2686.63
2687.73
2688.72
2689.61
2690.53
2691.56
2693.01
2694.97
2697.31
2700
2703.19
2707.16
2711.47
2714.08
2719.02
2698.94
2166.01
2148.82
2148.72
2162.06
2649.78
2662.94
2657.66
2657.25
2655.56
2655.9
2657.13
2658.26
2659.15
2660.1
2661.36
2663.01
2664.96
2667.08
2669.25
2671.38
2673.37
2675.15
2676.7
2678.04
2679.18
2680.18
2681.06
2681.85
2682.57
2683.26
2683.92
2684.56
2685.2
2685.84
2686.49
2687.18
2687.92
2688.7
2689.53
2690.36
2691.15
2691.87
2692.5
2693.03
2693.49
2693.92
2694.39
2694.97
2695.82
2697.4
2699.51
2686.01
2608.76
2631.73
2637.86
2642.62
2647.17
2651.33
2655.1
2658.55
2661.7
2664.61
2667.3
2669.78
2672.06
2674.14
2676.05
2677.77
2679.34
2680.76
2682.08
2683.31
2684.49
2685.61
2686.68
2687.67
2688.55
2689.31
2690.02
2690.85
2692.06
2693.78
2696
2698.67
2702.71
2706.96
2711.87
2714.16
2719.64
2701.51
2158.66
2143.27
2145.53
2162.24
2683.35
2693.06
2681.35
2676.13
2670.28
2667.06
2664.94
2663.34
2662.46
2662.59
2663.74
2665.64
2667.92
2670.28
2672.52
2674.59
2675.81
2677.36
2678.66
2679.75
2680.68
2681.51
2682.26
2682.98
2683.68
2684.39
2685.09
2685.82
2686.56
2687.34
2688.14
2688.99
2689.86
2690.75
2691.61
2692.42
2693.15
2693.81
2694.39
2694.92
2695.43
2695.96
2696.56
2697.29
2698.29
2700.11
2702.56
2689.17
2608.66
2631.61
2637.71
2642.42
2646.92
2651.03
2654.74
2658.13
2661.26
2664.17
2666.89
2669.45
2671.85
2674.1
2676.21
2678.16
2679.96
2681.62
2683.15
2684.6
2685.98
2687.3
2688.55
2689.71
2690.71
2691.5
2692.35
2692.95
2693.73
2694.85
2696.09
2697.88
2701.03
2704.52
2709.47
2711.8
2720.62
2704.14
2165.78
2150.02
2152.64
2172.19
2709.32
2723.42
2709.27
2702.44
2693.69
2687.32
2682.22
2678.35
2675.84
2674.71
2674.65
2675.27
2676.19
2677.19
2678.19
2679.2
2679.55
2680.46
2681.32
2682.15
2682.98
2683.83
2684.69
2685.58
2686.49
2687.42
2688.37
2689.34
2690.34
2691.36
2692.41
2693.46
2694.5
2695.48
2696.39
2697.22
2697.98
2698.69
2699.37
2700.04
2700.71
2701.38
2702.1
2702.9
2704.04
2706.16
2709.22
2696.59
2609.14
2632.1
2638.19
2642.88
2647.33
2651.36
2654.97
2658.24
2661.22
2663.97
2666.53
2668.94
2671.22
2673.39
2675.46
2677.43
2679.29
2681.06
2682.74
2684.38
2685.99
2687.62
2689.27
2690.9
2692.41
2693.65
2693.85
2694.45
2694.87
2695.2
2696.08
2695.96
2696.47
2696.82
2699.81
2704.4
2729.06
2715.23
2151.41
2129.57
2130.76
2155.06
2727.22
2746.69
2719.2
2708.94
2698.99
2692.93
2688.91
2686.26
2684.54
2683.42
2682.69
2682.19
2681.87
2681.73
2681.8
2682.1
2681.98
2682.64
2683.45
2684.4
2685.49
2686.7
2687.99
2689.33
2690.69
2692.06
2693.45
2694.85
2696.25
2697.63
2698.99
2700.3
2701.53
2702.68
2703.72
2704.67
2705.55
2706.39
2707.23
2708.1
2709.01
2709.96
2710.93
2711.96
2713.33
2715.87
2719.89
2709.3
2609.7
2632.71
2638.81
2643.5
2647.96
2651.98
2655.56
2658.77
2661.67
2664.3
2666.72
2668.95
2671.04
2673
2674.86
2676.63
2678.31
2679.91
2681.43
2682.92
2684.4
2685.95
2687.64
2689.45
2691.31
2693
2697.65
2698.12
2697.79
2696.84
2691.97
2689.86
2687.72
2684.2
2682.72
2688.71
2756.26
2746.2
2223.23
2196.69
2196.03
2222.66
2770.05
2797.16
2731.61
2717.12
2704.75
2696.64
2691.34
2688.02
2685.96
2684.57
2683.58
2682.91
2682.57
2682.6
2683.02
2683.84
2684.34
2685.68
2687.18
2688.89
2690.81
2692.87
2694.98
2697.09
2699.14
2701.11
2702.97
2704.72
2706.35
2707.85
2709.21
2710.4
2711.44
2712.35
2713.18
2713.98
2714.78
2715.59
2716.41
2717.26
2718.16
2719.14
2720.2
2721.38
2722.91
2725.7
2730.33
2721.07
2610.06
2633.09
2639.2
2643.91
2648.39
2652.44
2656.06
2659.31
2662.24
2664.89
2667.32
2669.55
2671.61
2673.53
2675.33
2677.01
2678.59
2680.05
2681.42
2682.68
2683.88
2685.11
2686.48
2688.05
2689.78
2691.03
2679.37
2677.56
2674.55
2671.15
2679.36
2675.9
2672.59
2667.83
2661.2
2635.63
2698.09
2713.97
2703.73
2695.89
2690.44
2686.44
2684.47
2683.77
2683.88
2684.48
2685.5
2687.01
2688.96
2691.33
2693.26
2695.87
2698.26
2700.11
2701.41
2702.37
2703.11
2703.75
2704.37
2705
2705.66
2706.34
2707.02
2707.67
2708.28
2708.83
2709.33
2709.81
2710.29
2710.81
2711.37
2711.99
2712.65
2713.37
2714.14
2714.93
2715.74
2716.63
2717.85
2720.16
2723.62
2711.23
2610.13
2633.15
2639.25
2643.96
2648.44
2652.5
2656.13
2659.4
2662.35
2665.05
2667.51
2669.79
2671.9
2673.87
2675.72
2677.45
2679.08
2680.59
2681.99
2683.26
2684.4
2685.48
2686.6
2687.87
2689.28
2690.61
2725.47
2719.24
2711.46
2704.74
2663.68
2660.71
2660.17
2660.11
2660.53
2637.19
2694.6
2717.76
2708.83
2700.93
2695.53
2692.08
2690.15
2689.59
2690.11
2691.16
2692.34
2693.84
2695.34
2696.65
2696.98
2697.76
2698.28
2698.58
2698.74
2698.87
2699
2699.18
2699.45
2699.81
2700.25
2700.73
2701.2
2701.65
2702.06
2702.44
2702.82
2703.21
2703.64
2704.12
2704.66
2705.26
2705.91
2706.61
2707.33
2708.04
2708.73
2709.46
2710.46
2712.28
2714.69
2700.67
2609.96
2632.96
2639.06
2643.75
2648.22
2652.26
2655.87
2659.12
2662.06
2664.73
2667.19
2669.45
2671.56
2673.53
2675.37
2677.12
2678.75
2680.28
2681.7
2682.98
2684.12
2685.11
2686.06
2687.03
2687.5
2683.82
2633.49
2618.41
2609.98
2608.33
2643.57
2646.65
2650.31
2654.79
2660.43
2640.88
2693.13
2717.75
2709.85
2702.28
2696.96
2693.33
2690.95
2689.7
2689.34
2689.53
2690.04
2690.83
2691.56
2692.17
2691.92
2692.19
2692.33
2692.4
2692.44
2692.56
2692.72
2692.97
2693.31
2693.73
2694.19
2694.64
2695.06
2695.46
2695.82
2696.19
2696.58
2697.01
2697.5
2698.06
2698.67
2699.33
2700.04
2700.75
2701.44
2702.08
2702.67
2703.29
2704.09
2705.49
2707.25
2692.73
2609.69
2632.68
2638.77
2643.45
2647.9
2651.93
2655.53
2658.76
2661.68
2664.34
2666.78
2669.03
2671.13
2673.1
2674.95
2676.7
2678.34
2679.88
2681.3
2682.59
2683.72
2684.69
2685.57
2686.36
2685.63
2673.92
2401.58
2383.64
2378.22
2384.01
2630.88
2640.74
2646.34
2652.71
2660.75
2643.3
2692.63
2717.66
2709.86
2701.69
2695.61
2691.22
2688.15
2686.26
2685.3
2685.04
2685.28
2685.75
2686.25
2686.74
2686.49
2686.75
2686.92
2687.06
2687.17
2687.38
2687.63
2687.95
2688.33
2688.76
2689.18
2689.57
2689.93
2690.28
2690.63
2691.01
2691.45
2691.94
2692.5
2693.12
2693.79
2694.49
2695.19
2695.85
2696.46
2697
2697.51
2698.04
2698.68
2699.81
2701.28
2686.73
2609.43
2632.4
2638.5
2643.19
2647.63
2651.66
2655.24
2658.46
2661.37
2664.01
2666.43
2668.67
2670.76
2672.72
2674.57
2676.32
2677.96
2679.5
2680.92
2682.2
2683.33
2684.31
2685.2
2685.92
2684.27
2666.01
2209.56
2190.07
2187.27
2198.73
2621.98
2637.38
2643.91
2650.48
2658.51
2641.41
2693.43
2719.06
2710.91
2702.76
2696.17
2691.18
2687.6
2685.34
2684.03
2683.46
2683.33
2683.46
2683.73
2684.1
2683.85
2684.12
2684.33
2684.51
2684.61
2684.83
2685.05
2685.31
2685.6
2685.9
2686.19
2686.45
2686.71
2687
2687.32
2687.71
2688.18
2688.71
2689.3
2689.93
2690.59
2691.23
2691.85
2692.4
2692.9
2693.36
2693.82
2694.29
2694.79
2695.72
2697.07
2682.65
2609.24
2632.22
2638.32
2643.01
2647.47
2651.5
2655.1
2658.32
2661.23
2663.86
2666.27
2668.5
2670.56
2672.5
2674.34
2676.07
2677.7
2679.23
2680.64
2681.91
2683.04
2684.02
2684.88
2685.49
2683.32
2662.13
2129.34
2109.12
2107.69
2122.14
2620.38
2638.04
2643.9
2648.87
2654.7
2636.1
2696.32
2723.7
2715.19
2706.65
2699.32
2693.67
2689.63
2687.15
2685.63
2684.69
2684.17
2683.98
2684.03
2684.31