/*--------------------------------*- C++ -*----------------------------------*\
| =========                 |                                                 |
| \\      /  F ield         | OpenFOAM: The Open Source CFD Toolbox           |
|  \\    /   O peration     | Version:  v2012                                 |
|   \\  /    A nd           | Website:  www.openfoam.com                      |
|    \\/     M anipulation  |                                                 |
\*---------------------------------------------------------------------------*/
FoamFile
{
    version     2.0;
    format      ascii;
    class       volScalarField;
    location    "550/air";
    object      GLeaf;
}
// * * * * * * * * * * * * * * * * * * * * * * * * * * * * * * * * * * * * * //

dimensions      [1 0 -3 0 0 0 0];


internalField   nonuniform List<scalar> 
287104
(
766.883
794.777
797.362
798.833
800.339
801.572
802.453
803.019
803.326
803.419
803.336
803.106
802.755
802.302
801.763
801.151
800.477
799.75
798.977
798.165
797.318
796.443
795.542
794.62
793.679
792.723
791.754
790.774
789.785
788.79
787.79
786.786
785.78
784.77
783.751
782.726
781.718
780.734
779.746
778.745
777.742
776.731
775.739
774.782
773.82
772.852
771.894
770.944
770.002
769.068
768.144
767.23
766.325
765.431
764.547
763.673
762.809
761.954
761.109
760.273
759.447
758.631
757.825
757.03
756.246
755.474
754.715
753.973
753.248
752.543
751.857
751.188
750.532
749.886
749.246
748.612
747.988
747.379
746.786
746.208
745.637
745.069
744.497
743.9
743.222
742.42
741.683
741.994
744.757
733.728
778.26
809.082
811.526
812.696
813.918
814.866
815.478
815.792
815.851
815.695
815.357
814.869
814.257
813.542
812.743
811.873
810.944
809.963
808.939
807.879
806.786
805.668
804.527
803.368
802.194
801.005
799.806
798.597
797.383
796.164
794.942
793.72
792.497
791.272
790.027
788.763
787.534
786.371
785.2
783.989
782.772
781.529
780.32
779.198
778.058
776.889
775.738
774.595
773.463
772.342
771.233
770.136
769.051
767.978
766.917
765.868
764.831
763.805
762.792
761.789
760.799
759.82
758.852
757.895
756.952
756.023
755.11
754.217
753.342
752.486
751.643
750.81
749.982
749.16
748.348
747.556
746.795
746.074
745.395
744.75
744.122
743.497
742.867
742.227
741.543
740.765
740.064
740.602
744.37
733.982
765.862
795.886
797.961
798.869
799.894
800.671
801.128
801.303
801.237
800.967
800.521
799.931
799.223
798.418
797.532
796.581
795.573
794.519
793.424
792.296
791.14
789.96
788.761
787.546
786.317
785.077
783.827
782.569
781.305
780.039
778.771
777.503
776.238
774.97
773.677
772.352
771.07
769.889
768.698
767.447
766.188
764.888
763.628
762.498
761.342
760.136
758.954
757.781
756.62
755.472
754.338
753.216
752.107
751.01
749.926
748.855
747.797
746.752
745.72
744.702
743.695
742.7
741.718
740.749
739.795
738.857
737.938
737.037
736.152
735.279
734.412
733.549
732.691
731.845
731.023
730.24
729.509
728.837
728.218
727.638
727.07
726.492
725.893
725.278
724.629
723.88
723.158
723.709
727.844
718.404
753.622
782.844
784.739
785.517
786.426
787.101
787.47
787.571
787.442
787.117
786.62
785.988
785.243
784.404
783.488
782.508
781.474
780.395
779.278
778.13
776.954
775.757
774.543
773.314
772.073
770.822
769.561
768.292
767.017
765.738
764.458
763.178
761.902
760.624
759.315
757.962
756.655
755.479
754.293
753.029
751.757
750.43
749.142
748.022
746.874
745.654
744.463
743.281
742.112
740.958
739.817
738.688
737.571
736.466
735.374
734.295
733.23
732.18
731.142
730.117
729.103
728.102
727.114
726.14
725.182
724.241
723.315
722.403
721.498
720.596
719.696
718.8
717.917
717.059
716.244
715.484
714.79
714.161
713.587
713.048
712.517
711.962
711.365
710.722
710.021
709.203
708.39
708.846
713.021
704.049
742.271
770.874
772.683
773.392
774.226
774.831
775.14
775.192
775.026
774.667
774.144
773.494
772.734
771.883
770.955
769.963
768.918
767.829
766.705
765.55
764.37
763.17
761.952
760.721
759.48
758.23
756.973
755.708
754.437
753.161
751.881
750.602
749.327
748.052
746.749
745.397
744.082
742.907
741.73
740.47
739.206
737.885
736.593
735.48
734.347
733.135
731.951
730.78
729.623
728.48
727.351
726.234
725.127
724.033
722.953
721.887
720.836
719.799
718.776
717.764
716.765
715.779
714.808
713.853
712.914
711.988
711.073
710.161
709.249
708.336
707.429
706.539
705.683
704.877
704.132
703.454
702.843
702.29
701.784
701.303
700.82
700.3
699.709
699.027
698.245
697.349
696.505
696.927
700.985
692.056
731.371
759.455
761.212
761.874
762.65
763.198
763.461
763.485
763.302
762.932
762.412
761.76
761.001
760.148
759.216
758.218
757.168
756.076
754.95
753.795
752.616
751.417
750.202
748.973
747.735
746.49
745.24
743.987
742.728
741.463
740.193
738.921
737.651
736.385
735.106
733.789
732.485
731.287
730.103
728.86
727.622
726.348
725.082
723.954
722.829
721.645
720.488
719.347
718.223
717.115
716.019
714.936
713.867
712.813
711.777
710.759
709.758
708.773
707.803
706.849
705.912
704.992
704.092
703.211
702.346
701.491
700.641
699.791
698.942
698.103
697.291
696.527
695.831
695.215
694.682
694.225
693.831
693.487
693.175
692.88
692.571
692.216
691.78
691.231
690.566
689.815
689.189
689.781
693.604
683.975
720.715
748.32
750.034
750.652
751.367
751.848
752.053
752.042
751.85
751.487
751.016
750.37
749.616
748.765
747.832
746.832
745.78
744.689
743.565
742.413
741.239
740.045
738.834
737.61
736.375
735.135
733.895
732.657
731.42
730.178
728.931
727.678
726.424
725.179
723.955
722.734
721.485
720.246
719.041
717.849
716.683
715.54
714.376
713.244
712.173
711.122
710.099
709.108
708.142
707.199
706.275
705.372
704.493
703.64
702.813
702.009
701.226
700.464
699.723
699.005
698.311
697.642
696.997
696.374
695.767
695.168
694.577
693.996
693.437
692.922
692.473
692.114
691.859
691.714
691.673
691.721
691.837
691.999
692.184
692.371
692.517
692.614
692.626
692.53
692.317
692.014
691.797
692.517
695.301
682.948
710.219
737.358
739.037
739.617
740.273
740.672
740.784
740.685
740.431
740.035
739.594
738.915
738.139
737.289
736.367
735.383
734.351
733.282
732.181
731.053
729.902
728.73
727.539
726.331
725.108
723.878
722.652
721.436
720.232
719.034
717.835
716.629
715.442
714.291
713.235
712.283
711.266
710.085
708.977
708.034
707.161
706.433
705.666
704.681
703.821
703.115
702.422
701.769
701.146
700.551
699.998
699.495
699.045
698.647
698.297
697.99
697.724
697.5
697.321
697.188
697.102
697.059
697.056
697.084
697.137
697.212
697.314
697.458
697.665
697.958
698.354
698.865
699.491
700.224
701.054
701.964
702.932
703.929
704.92
705.872
706.719
707.471
708.093
708.58
708.949
709.225
709.548
710.59
712.614
695.269
699.858
726.536
728.186
728.743
729.359
729.69
729.695
729.448
728.997
728.331
727.307
726.285
725.346
724.457
723.547
722.599
721.616
720.599
719.549
718.469
717.361
716.227
715.07
713.888
712.717
711.571
710.46
709.395
708.385
707.426
706.505
705.609
704.725
703.886
703.22
702.798
702.263
701.271
700.371
699.857
699.452
699.36
699.218
698.471
697.937
697.789
697.633
697.534
697.477
697.463
697.494
697.58
697.721
697.908
698.131
698.382
698.663
698.976
699.325
699.707
700.12
700.555
701.002
701.454
701.909
702.374
702.866
703.407
704.021
704.723
705.516
706.395
707.346
708.353
709.406
710.493
711.6
712.702
713.774
714.796
715.786
716.586
717.138
717.475
717.695
717.894
718.213
719.197
720.581
700.331
689.634
715.851
717.473
718.017
718.616
718.918
718.86
718.479
717.705
716.062
709.92
706.369
704.106
702.531
701.264
700.147
699.103
698.085
697.062
696.015
694.936
693.821
692.668
691.475
690.291
689.114
687.95
686.818
685.737
684.718
683.758
682.837
681.877
680.883
680.081
679.648
678.989
677.401
675.891
675.068
674.39
674.255
674.093
672.785
671.787
671.489
671.13
670.825
670.555
670.336
670.193
670.139
670.166
670.257
670.401
670.593
670.837
671.14
671.503
671.921
672.383
672.878
673.398
673.942
674.519
675.149
675.855
676.657
677.568
678.586
679.699
680.889
682.137
683.425
684.745
686.088
687.444
688.801
690.175
691.742
694.77
697.395
699.383
700.804
701.881
702.884
704.1
706.124
708.552
689.261
679.555
705.311
706.904
707.43
708.017
708.326
708.298
707.951
706.847
701.478
649.991
633.227
626.89
624.063
622.349
620.941
619.553
618.093
616.55
614.945
613.31
611.679
610.081
608.538
607.062
605.655
604.323
603.072
601.917
600.866
599.906
598.997
598.097
597.226
596.66
596.677
596.413
594.674
592.93
592.165
591.486
591.509
591.47
589.514
587.857
587.204
586.367
585.531
584.691
583.884
583.142
582.47
581.853
581.267
580.706
580.179
579.699
579.275
578.909
578.595
578.327
578.103
577.929
577.821
577.807
577.912
578.157
578.549
579.081
579.737
580.496
581.34
582.255
583.233
584.266
585.339
586.429
587.505
588.646
592.104
612.718
629.187
641.315
650.129
656.661
661.857
666.608
672.065
678.357
664.536
669.625
694.927
696.489
696.994
697.564
697.869
697.853
697.529
696.389
690.604
636.798
619.437
613.167
610.617
609.229
608.135
607.024
605.796
604.439
602.977
601.447
599.886
598.333
596.818
595.363
593.976
592.651
591.384
590.19
589.09
588.102
587.204
586.318
585.444
584.956
585.3
585.336
583.25
581.087
580.348
579.7
580.047
580.429
578.027
575.938
575.284
574.328
573.338
572.317
571.309
570.329
569.357
568.356
567.303
566.196
565.047
563.865
562.649
561.395
560.103
558.776
557.432
556.101
554.821
553.634
552.57
551.647
550.867
550.224
549.713
549.334
549.093
548.997
549.053
549.256
549.594
550.04
550.566
551.235
553.347
569.423
583.303
594.367
603.182
610.415
616.764
623.131
631.147
642.028
636.555
659.847
684.701
686.238
686.725
687.276
687.567
687.542
687.212
686.069
680.3
627.16
609.981
603.794
601.292
599.94
598.883
597.812
596.627
595.317
593.905
592.425
590.917
589.42
587.973
586.611
585.348
584.163
583.022
581.912
580.851
579.887
579.04
578.242
577.48
577.2
578.03
578.57
576.289
573.822
573.281
572.839
573.713
574.827
572.244
569.989
569.706
569.069
568.453
567.874
567.368
566.918
566.479
566.015
565.521
565.012
564.496
563.967
563.407
562.805
562.152
561.46
560.756
560.066
559.416
558.813
558.249
557.701
557.141
556.543
555.892
555.184
554.419
553.595
552.705
551.737
550.674
549.5
548.214
546.909
546.757
558.427
567.671
574.426
579.559
583.802
587.713
592.083
598.824
609.984
608.541
650.22
674.634
676.15
676.624
677.159
677.437
677.404
677.071
675.942
670.263
618.059
601.171
595.082
592.612
591.274
590.228
589.171
588.004
586.715
585.325
583.867
582.377
580.893
579.462
578.138
576.953
575.885
574.861
573.816
572.73
571.669
570.714
569.848
569.065
568.866
570.053
571.008
568.422
565.486
564.983
564.564
565.758
567.452
564.492
561.797
561.613
561.032
560.535
560.132
559.812
559.509
559.168
558.824
558.503
558.228
557.99
557.761
557.518
557.261
557.015
556.814
556.694
556.676
556.767
556.951
557.201
557.486
557.78
558.071
558.354
558.627
558.882
559.101
559.26
559.334
559.3
559.145
558.887
558.703
560.403
574.91
585.635
593.035
598.317
602.328
605.603
608.86
613.719
621.264
612.995
640.737
664.721
666.224
666.692
667.218
667.486
667.444
667.104
665.983
660.391
609.071
592.465
586.469
584.031
582.708
581.676
580.635
579.486
578.217
576.851
575.417
573.946
572.473
571.048
569.745
568.631
567.704
566.863
565.968
564.918
563.752
562.613
561.577
560.691
560.506
561.984
563.337
560.472
557.04
556.525
556.077
557.494
559.724
556.384
553.183
553.025
552.475
552.095
551.837
551.597
551.257
550.794
550.281
549.81
549.412
549.054
548.689
548.301
547.912
547.588
547.358
547.236
547.216
547.271
547.366
547.472
547.572
547.663
547.748
547.828
547.896
547.935
547.924
547.844
547.689
547.464
547.193
546.925
546.867
548.793
563.217
574.141
581.997
587.872
592.496
596.406
600.419
606.121
614.128
605.299
631.39
654.95
656.447
656.92
657.453
657.726
657.682
657.334
656.21
650.688
600.182
583.835
577.928
575.526
574.226
573.216
572.198
571.075
569.833
568.495
567.09
565.645
564.184
562.757
561.453
560.38
559.584
558.969
558.322
557.416
556.201
554.841
553.53
552.43
552.164
553.839
555.562
552.48
548.571
548.012
547.506
549.057
551.765
548.101
544.411
544.287
543.846
543.673
543.589
543.363
542.86
542.149
541.42
540.811
540.328
539.896
539.457
539.011
538.6
538.267
538.028
537.868
537.75
537.632
537.482
537.283
537.037
536.746
536.408
536.005
535.509
534.888
534.117
533.189
532.119
530.942
529.704
528.468
527.381
527.542
538.655
547.213
553.217
557.407
560.402
562.825
565.624
570.574
579.537
577.165
622.176
645.313
646.804
647.289
647.844
648.148
648.131
647.793
646.667
641.2
591.438
575.335
569.513
567.148
565.874
564.89
563.899
562.803
561.589
560.28
558.905
557.486
556.041
554.606
553.273
552.192
551.475
551.075
550.742
550.108
548.959
547.403
545.734
544.282
543.793
545.522
547.544
544.311
539.965
539.323
538.732
540.311
543.402
539.489
535.379
535.345
535.141
535.268
535.346
535.02
534.21
533.154
532.174
531.428
530.871
530.391
529.925
529.49
529.127
528.853
528.644
528.455
528.239
527.967
527.634
527.248
526.815
526.332
525.777
525.117
524.317
523.357
522.239
520.992
519.67
518.344
517.099
516.026
515.283
515.951
527.709
537.254
544.409
549.823
554.155
558.09
562.473
568.917
579.276
577.288
613.103
635.816
637.295
637.785
638.364
638.718
638.769
638.494
637.42
632.041
583.003
567.155
561.427
559.092
557.83
556.853
555.869
554.78
553.572
552.27
550.904
549.496
548.056
546.603
545.215
544.064
543.337
543.077
543.058
542.8
541.877
540.238
538.208
536.292
535.42
537.035
539.274
535.973
531.272
530.542
529.872
531.402
534.793
530.757
526.391
526.597
526.819
527.344
527.549
527.015
525.828
524.451
523.323
522.58
522.109
521.756
521.457
521.223
521.068
520.97
520.881
520.756
520.575
520.345
520.082
519.797
519.484
519.114
518.651
518.061
517.334
516.482
515.545
514.583
513.667
512.878
512.291
511.984
512.092
513.758
527.42
538.769
547.494
554.297
559.919
564.962
569.97
576.163
584.793
578.792
604.181
626.472
627.932
628.413
628.998
629.392
629.525
629.376
628.476
623.376
575.424
559.966
554.36
552.026
550.727
549.701
548.662
547.516
546.252
544.898
543.489
542.055
540.6
539.128
537.687
536.441
535.633
535.419
535.669
535.86
535.358
533.865
531.615
529.234
527.863
529.207
531.578
528.297
523.346
522.538
521.778
523.159
526.737
522.678
518.221
518.801
519.552
520.435
520.606
519.708
518.101
516.495
515.389
514.84
514.642
514.593
514.613
514.686
514.795
514.9
514.966
514.983
514.968
514.943
514.915
514.866
514.757
514.543
514.194
513.707
513.109
512.45
511.799
511.224
510.789
510.546
510.527
510.857
511.729
514.949
531.445
544.602
554.488
562.107
568.285
573.504
578.121
583.088
589.023
578.708
595.408
617.284
618.725
619.188
619.758
620.156
620.337
620.308
619.7
615.438
571.397
557.001
551.514
548.989
547.446
546.207
545.023
543.815
542.582
541.345
540.132
538.956
537.804
536.638
535.453
534.361
533.617
533.487
533.998
534.695
534.81
533.761
531.562
528.839
526.918
527.834
530.211
526.959
521.786
520.811
519.804
520.763
524.225
519.988
515.323
516.08
517.032
517.768
517.342
515.636
513.373
511.476
510.417
510.11
510.232
510.541
511.026
511.581
512.14
512.664
513.143
513.595
514.04
514.474
514.864
515.162
515.319
515.314
515.158
514.893
514.588
514.315
514.147
514.138
514.321
514.703
515.261
515.961
516.901
519.872
536.813
550.195
560.117
567.598
573.381
577.879
581.479
585.074
589.044
576.566
586.765
608.231
609.657
610.107
610.656
611.028
611.172
611.114
610.81
609.867
605.81
603.768
602.718
601.983
601.337
600.692
600.009
599.271
598.473
597.618
596.713
595.764
594.753
593.638
592.386
591.068
589.943
589.387
589.637
590.413
590.907
590.249
588.127
585.015
582.381
582.715
585.064
581.81
576.417
575.424
574.332
575.086
578.782
574.575
569.882
571.075
572.332
572.858
571.75
569.284
566.592
564.715
563.971
564.052
564.494
564.993
565.441
565.828
566.177
566.516
566.88
567.283
567.709
568.11
568.419
568.585
568.595
568.471
568.271
568.068
567.936
567.936
568.109
568.47
569.007
569.683
570.441
571.222
571.997
572.901
574.978
576.945
578.684
580.224
581.523
582.524
583.355
584.638
586.569
572.558
578.215
599.275
600.688
601.127
601.662
602.016
602.137
602.056
601.8
601.345
600.66
599.93
599.206
598.451
597.656
596.827
595.969
595.086
594.181
593.259
592.328
591.391
590.44
589.426
588.285
587.013
585.792
585.009
585.064
585.921
586.898
586.974
585.485
582.578
579.626
579.425
581.601
578.419
573.033
572.07
570.889
571.359
575.214
571.377
567.067
568.742
570.073
570.086
568.206
565.217
562.519
561.036
560.765
561.154
561.669
562.059
562.306
562.481
562.658
562.88
563.155
563.442
563.677
563.793
563.745
563.535
563.211
562.845
562.519
562.303
562.246
562.372
562.68
563.145
563.724
564.364
565.014
565.641
566.231
566.815
567.452
568.097
568.722
569.28
569.699
569.944
570.129
570.842
572.547
559.714
569.724
590.378
591.777
592.205
592.726
593.07
593.186
593.107
592.867
592.492
592.101
591.53
590.857
590.112
589.314
588.476
587.607
586.713
585.801
584.872
583.935
582.997
582.062
581.101
580.037
578.807
577.486
576.391
576.012
576.574
577.65
578.237
577.405
574.897
571.812
571.079
572.914
569.672
564.196
563.165
561.771
561.807
565.709
562.15
557.972
559.596
560.326
559.267
556.36
552.843
550.14
548.822
548.516
548.546
548.453
548.149
547.741
547.354
547.046
546.8
546.552
546.214
545.72
545.049
544.223
543.311
542.401
541.577
540.898
540.398
540.082
539.935
539.921
539.996
540.114
540.237
540.34
540.415
540.465
540.496
540.491
540.5
540.518
540.518
540.462
540.329
540.188
540.705
542.987
534.165
561.271
581.518
582.905
583.321
583.829
584.161
584.27
584.188
583.947
583.574
583.132
582.564
581.907
581.183
580.407
579.59
578.74
577.862
576.963
576.045
575.113
574.18
573.266
572.372
571.445
570.388
569.163
567.943
567.19
567.316
568.211
569.055
568.798
566.823
563.861
562.778
564.273
560.961
555.741
554.666
553.126
552.837
556.597
553.548
549.647
551.235
551.49
549.814
546.692
543.59
541.656
540.952
540.815
540.625
540.186
539.618
539.098
538.7
538.38
538.032
537.562
536.906
536.071
535.121
534.138
533.218
532.436
531.835
531.423
531.187
531.092
531.097
531.158
531.234
531.296
531.332
531.338
531.317
531.263
531.169
531.022
530.852
530.68
530.518
530.354
530.136
529.917
530.509
533.291
525.147
552.862
572.703
574.08
574.484
574.979
575.301
575.403
575.318
575.074
574.698
574.222
573.65
573.003
572.298
571.546
570.754
569.929
569.074
568.196
567.294
566.371
565.437
564.526
563.675
562.886
562.082
561.145
560.07
559.163
558.882
559.396
560.179
560.216
558.638
555.847
554.558
555.796
552.426
546.393
545.222
543.559
543.041
547.764
545.379
541.863
543.583
543.782
542.205
539.702
537.655
536.723
536.565
536.536
536.343
536.093
535.991
536.101
536.325
536.494
536.474
536.221
535.762
535.187
534.611
534.114
533.755
533.554
533.5
533.563
533.702
533.877
534.052
534.198
534.3
534.355
534.368
534.342
534.269
534.14
533.95
533.713
533.469
533.262
533.115
532.983
532.751
532.462
532.986
535.466
525.482
544.554
563.992
565.358
565.752
566.235
566.548
566.644
566.555
566.31
565.935
565.449
564.878
564.239
563.547
562.812
562.041
561.239
560.408
559.551
558.67
557.759
556.824
555.895
555.04
554.33
553.761
553.219
552.55
551.828
551.385
551.542
552.084
552.146
550.696
547.892
546.37
547.493
544.308
542.875
541.753
540.009
539.27
539.783
538.263
535.591
538.186
539.265
538.753
537.608
536.923
536.85
536.962
536.937
536.876
537.022
537.441
537.973
538.382
538.504
538.306
537.877
537.341
536.825
536.427
536.176
536.073
536.09
536.188
536.329
536.477
536.606
536.698
536.746
536.754
536.725
536.661
536.555
536.395
536.182
535.937
535.706
535.538
535.462
535.455
535.413
535.192
534.882
535.373
537.462
525.669
536.475
555.518
556.874
557.257
557.728
558.034
558.126
558.035
557.791
557.418
556.934
556.367
555.735
555.051
554.329
553.574
552.792
551.985
551.154
550.299
549.414
548.491
547.546
546.647
545.914
545.449
545.225
545.051
544.793
544.537
544.569
544.927
544.965
543.536
540.526
538.568
539.6
536.592
520.534
519.098
516.908
515.883
531.355
530.833
528.925
532.454
534.283
534.433
533.887
533.488
533.246
532.924
532.625
532.637
533.059
533.692
534.218
534.429
534.3
533.942
533.528
533.181
532.975
532.936
533.025
533.203
533.428
533.664
533.885
534.071
534.215
534.316
534.376
534.398
534.383
534.321
534.205
534.041
533.86
533.715
533.655
533.703
533.827
533.935
533.887
533.601
533.271
533.754
535.534
522.705
528.856
547.525
548.87
549.24
549.698
549.993
550.08
549.986
549.742
549.371
548.893
548.331
547.706
547.031
546.319
545.578
544.815
544.031
543.227
542.403
541.553
540.661
539.721
538.772
537.933
537.381
537.223
537.356
537.579
537.73
537.912
538.298
538.517
537.397
534.381
531.826
532.684
531.344
564.812
561.449
556.375
552.663
519.228
519.026
518.299
523.143
525.67
526.277
526.086
525.844
525.599
525.395
525.476
525.988
526.76
527.45
527.814
527.833
527.647
527.43
527.327
527.38
527.574
527.882
528.243
528.619
528.98
529.308
529.593
529.831
530.023
530.173
530.281
530.345
530.357
530.316
530.232
530.138
530.088
530.133
530.295
530.54
530.777
530.878
530.738
530.381
530.082
530.586
532.09
518.612
522.028
540.36
541.697
542.053
542.497
542.78
542.857
542.755
542.505
542.128
541.648
541.085
540.46
539.789
539.084
538.356
537.611
536.853
536.08
535.294
534.49
533.653
532.757
531.8
530.852
530.087
529.711
529.768
530.162
530.629
531.045
531.58
532.179
531.907
529.765
527.273
528.558
525.543
478.841
471.349
467.189
467.342
507.548
511.428
512.037
517.571
519.878
520.346
520.288
520.293
520.359
520.561
521.028
521.681
522.264
522.565
522.576
522.456
522.381
522.45
522.699
523.078
523.525
524.002
524.463
524.89
525.27
525.6
525.877
526.104
526.283
526.416
526.5
526.531
526.511
526.459
526.408
526.408
526.502
526.706
526.993
527.285
527.471
527.45
527.196
526.829
526.642
527.234
528.544
514.574
516.361
534.418
535.752
536.105
536.545
536.826
536.901
536.797
536.542
536.158
535.668
535.092
534.451
533.763
533.043
532.305
531.557
530.807
530.055
529.3
528.541
527.766
526.947
526.046
525.068
524.123
523.422
523.105
523.267
523.726
524.228
524.842
525.741
526.514
526.057
524.612
526.186
516.224
251.477
246.015
247.842
256.77
503.939
513.155
512.722
516.291
516.527
516.139
516.143
516.555
517.063
517.575
518.079
518.484
518.694
518.73
518.725
518.826
519.102
519.522
520.044
520.593
521.115
521.599
522.025
522.391
522.698
522.946
523.14
523.284
523.383
523.435
523.443
523.413
523.366
523.335
523.36
523.472
523.678
523.95
524.228
524.43
524.48
524.339
524.049
523.755
523.701
524.361
525.539
511.21
512.157
530.012
531.355
531.721
532.182
532.492
532.602
532.538
532.321
531.97
531.503
530.937
530.29
529.581
528.825
528.039
527.239
526.438
525.645
524.863
524.093
523.329
522.548
521.706
520.762
519.756
518.841
518.158
517.94
518.172
518.624
519.27
520.325
521.906
523.222
523.331
526.069
511.191
68.3368
65.3526
72.766
89.1119
506.127
518.275
514.832
515.22
513.229
512.337
512.539
513.076
513.48
513.745
513.976
514.221
514.515
514.914
515.467
516.175
516.981
517.777
518.519
519.162
519.688
520.114
520.445
520.694
520.873
520.993
521.067
521.105
521.112
521.095
521.061
521.031
521.032
521.093
521.231
521.44
521.691
521.932
522.11
522.18
522.117
521.937
521.709
521.543
521.613
522.34
523.454
508.881
509.535
527.258
528.609
528.992
529.485
529.848
530.032
530.06
529.951
529.718
529.369
528.912
528.355
527.707
526.977
526.18
525.332
524.454
523.566
522.682
521.807
520.943
520.078
519.177
518.193
517.13
516.111
515.216
514.731
514.757
515.154
515.916
517.199
519.366
522.036
523.257
527.135
510.822
-3.00051
-4.59661
6.15223
26.3326
512.912
524.404
517.307
515.062
511.621
510.317
510.019
509.743
509.326
509.085
509.266
509.907
510.911
512.139
513.456
514.766
515.971
516.976
517.772
518.369
518.786
519.062
519.229
519.314
519.343
519.337
519.316
519.29
519.268
519.259
519.277
519.341
519.467
519.659
519.902
520.161
520.394
520.563
520.644
520.634
520.547
520.421
520.312
520.285
520.474
521.308
522.49
507.765
508.363
526.009
527.349
527.723
528.217
528.599
528.826
528.926
528.922
528.826
528.644
528.376
528.019
527.566
527.014
526.361
525.616
524.793
523.915
523.004
522.073
521.126
520.155
519.133
518.018
516.801
515.554
514.436
513.697
513.491
513.808
514.659
517.047
519.982
524.12
526.175
530.978
512.268
-24.0916
-31.0744
-19.7535
4.67539
526.928
537.332
526.072
521.086
515.301
511.998
509.677
507.776
506.491
506.155
506.786
508.118
509.793
511.512
513.1
514.495
515.043
515.918
516.531
516.932
517.166
517.29
517.342
517.354
517.349
517.344
517.352
517.381
517.441
517.539
517.687
517.89
518.143
518.425
518.704
518.947
519.129
519.241
519.287
519.283
519.252
519.226
519.24
519.328
519.625
520.619
522.035
507.482
508.266
525.885
527.197
527.531
527.976
528.301
528.472
528.524
528.491
528.394
528.248
528.058
527.823
527.534
527.18
526.748
526.231
525.631
524.965
524.252
523.509
522.743
521.939
521.06
520.046
518.845
517.715
516.364
515.247
514.558
514.138
514.548
516.809
520.236
526.173
530.145
538.898
521.656
-12.4337
-24.3003
-17.7937
5.38418
540.665
553.16
537.943
530.616
521.942
516.158
511.996
509.178
507.702
507.456
508.094
509.186
510.374
511.452
512.355
513.118
513.114
513.558
513.846
514.032
514.15
514.242
514.327
514.41
514.493
514.582
514.682
514.802
514.953
515.144
515.376
515.639
515.907
516.151
516.348
516.495
516.601
516.682
516.754
516.826
516.899
516.978
517.076
517.241
517.675
519.019
521.154
507.371
508.736
526.371
527.667
527.968
528.361
528.61
528.678
528.603
528.422
528.166
527.859
527.521
527.163
526.79
526.397
525.978
525.523
525.028
524.503
523.969
523.454
522.982
522.554
522.127
521.606
520.837
519.086
517.853
516.614
515.579
515.515
515.069
516.164
518.331
524.283
531.562
555.553
540.36
-18.6784
-36.308
-31.5945
-4.47592
563.859
579.745
549.325
536.641
524.815
517.547
512.983
510.353
509.048
508.561
508.506
508.624
508.782
508.932
509.098
509.353
509.029
509.326
509.588
509.848
510.097
510.336
510.541
510.694
510.791
510.845
510.874
510.893
510.908
510.923
510.936
510.939
510.918
510.861
510.76
510.623
510.474
510.346
510.269
510.258
510.315
510.412
510.524
510.669
511.078
512.548
515.323
503.18
509.297
526.965
528.267
528.573
528.963
529.196
529.229
529.095
528.826
528.451
527.995
527.481
526.927
526.346
525.746
525.128
524.488
523.822
523.133
522.44
521.787
521.232
520.829
520.577
520.393
520.105
522.967
522.076
520.948
519.858
515.543
514.775
514.864
514.503
516.506
523.642
588.184
574.378
57.1996
35.8634
39.1164
68.0402
605.75
624.214
551.991
533.475
519.183
510.496
505.458
502.894
501.838
501.539
501.595
501.819
502.148
502.565
503.056
503.627
503.585
504.075
504.423
504.68
504.882
505.106
505.368
505.68
506.046
506.474
506.958
507.48
508.015
508.529
508.978
509.317
509.523
509.6
509.58
509.501
509.387
509.242
509.066
508.878
508.708
508.585
508.51
508.519
508.857
510.409
513.734
503.077
509.652
527.337
528.647
528.967
529.379
529.639
529.704
529.602
529.362
529.008
528.56
528.038
527.456
526.827
526.158
525.451
524.703
523.903
523.044
522.129
521.19
520.301
519.573
519.084
518.783
518.253
505.872
504.481
502.898
501.549
511.955
510.829
509.871
507.39
502.197
474.181
493.712
517.084
512.35
507.538
503.702
499.602
497.313
496.483
496.596
497.089
497.759
498.828
500.262
502.082
503.6
506.003
508.59
511.151
513.471
515.46
517.078
518.379
519.438
520.315
521.05
521.664
522.153
522.51
522.729
522.813
522.779
522.659
522.488
522.299
522.112
521.94
521.79
521.672
521.586
521.522
521.473
521.503
521.875
523.328
525.895
512.53
509.717
527.394
528.698
529.013
529.425
529.692
529.769
529.686
529.472
529.151
528.742
528.264
527.729
527.149
526.529
525.869
525.167
524.409
523.579
522.661
521.656
520.608
519.628
518.831
518.284
519.067
556.235
554.214
550.786
547.28
508.654
507.122
507.131
506.735
505.155
475.395
500.486
532.429
528.349
522.954
518.816
515.919
514.218
513.637
514.278
515.896
518.16
520.638
522.457
523.991
524.604
525.641
526.404
526.92
527.218
527.403
527.492
527.534
527.576
527.639
527.712
527.763
527.763
527.694
527.556
527.358
527.125
526.883
526.66
526.471
526.326
526.227
526.176
526.165
526.173
526.169
526.146
526.167
526.445
527.527
529.143
514.208
509.555
527.214
528.508
528.81
529.207
529.457
529.517
529.417
529.186
528.85
528.428
527.939
527.399
526.816
526.198
525.544
524.851
524.108
523.297
522.391
521.367
520.234
519.078
518.004
517.097
515.995
475.533
468.7
465.292
465.744
500.872
502.801
504.508
506.179
507.063
477.245
504.062
539.324
537.075
533.013
530.091
528.167
527.01
526.593
526.816
527.423
528.256
529.111
529.697
530.133
529.746
529.823
529.76
529.601
529.361
529.154
528.951
528.782
528.669
528.602
528.545
528.459
528.323
528.137
527.916
527.682
527.457
527.266
527.125
527.04
527.011
527.03
527.085
527.152
527.192
527.177
527.115
527.069
527.189
527.901
528.906
513.517
509.287
526.933
528.224
528.521
528.908
529.146
529.191
529.075
528.829
528.477
528.042
527.544
526.998
526.415
525.799
525.152
524.467
523.733
522.929
522.026
520.995
519.832
518.61
517.358
515.353
506.622
247.171
239.847
241.452
250.902
496.26
503.829
506.386
508.686
510.269
479.601
506.28
542.72
541.037
537.122
534.027
531.868
530.44
529.629
529.354
529.435
529.745
530.066
530.287
530.435
529.857
529.724
529.475
529.166
528.799
528.522
528.268
528.063
527.915
527.798
527.672
527.511
527.314
527.098
526.888
526.706
526.574
526.503
526.497
526.551
526.652
526.781
526.912
527.01
527.044
527.008
526.933
526.863
526.876
527.334
528.01
512.518
509.024
526.666
527.962
528.262
528.649
528.884
528.923
528.797
528.537
528.17
527.719
527.206
526.649
526.06
525.445
524.802
524.122
523.39
522.583
521.675
520.643
519.491
518.278
516.958
514.054
498.875
57.4639
50.4503
56.4011
73.1727
493.967
506.385
509.337
511.385
512.483
481.211
507.14
545.356
543.712
539.224
535.692
533.264
531.683
530.664
530.112
529.834
529.726
529.683
529.636
529.597
528.909
528.667
528.341
527.972
527.536
527.214
526.908
526.643
526.42
526.213
525.993
525.755
525.517
525.302
525.135
525.031
524.999
525.038
525.138
525.281
525.443
525.599
525.719
525.778
525.771
525.721
525.661
525.587
525.519
525.841
526.468
511.209
508.839
526.482
527.786
528.096
528.495
528.74
528.787
528.665
528.406
528.033
527.572
527.044
526.47
525.864
525.233
524.576
523.885
523.143
522.328
521.417
520.389
519.242
518.009
516.581
513.071
494.708
-22.8915
-30.3359
-22.6399
-2.33432
493.164
507.685
510.066
510.913
510.669
479.832