/*--------------------------------*- C++ -*----------------------------------*\
| =========                 |                                                 |
| \\      /  F ield         | OpenFOAM: The Open Source CFD Toolbox           |
|  \\    /   O peration     | Version:  v2012                                 |
|   \\  /    A nd           | Website:  www.openfoam.com                      |
|    \\/     M anipulation  |                                                 |
\*---------------------------------------------------------------------------*/
FoamFile
{
    version     2.0;
    format      ascii;
    class       volScalarField;
    location    "550/air";
    object      ILambda_7_0;
}
// * * * * * * * * * * * * * * * * * * * * * * * * * * * * * * * * * * * * * //

dimensions      [1 0 -3 0 0 0 0];


internalField   nonuniform List<scalar> 
287104
(
216.891
218.819
220.481
221.905
223.138
224.214
225.163
226.007
226.762
227.442
228.059
228.621
229.137
229.611
230.05
230.457
230.837
231.192
231.525
231.839
232.136
232.417
232.684
232.938
233.181
233.413
233.636
233.85
234.056
234.255
234.447
234.633
234.813
234.988
235.158
235.323
235.485
235.643
235.798
235.948
236.096
236.24
236.382
236.523
236.66
236.795
236.929
237.06
237.189
237.317
237.443
237.567
237.69
237.811
237.931
238.049
238.166
238.282
238.396
238.508
238.619
238.728
238.836
238.943
239.048
239.152
239.255
239.356
239.456
239.556
239.654
239.751
239.848
239.944
240.039
240.134
240.23
240.326
240.423
240.519
240.614
240.709
240.805
240.905
241.013
241.13
241.259
241.437
242.212
241.994
218.388
220.306
221.956
223.367
224.582
225.639
226.567
227.389
228.121
228.779
229.373
229.912
230.404
230.855
231.271
231.654
232.011
232.343
232.653
232.944
233.218
233.477
233.721
233.953
234.174
234.384
234.585
234.777
234.962
235.139
235.31
235.474
235.633
235.787
235.935
236.079
236.219
236.358
236.493
236.623
236.75
236.873
236.994
237.116
237.235
237.35
237.464
237.576
237.687
237.795
237.903
238.008
238.113
238.216
238.318
238.419
238.518
238.616
238.713
238.808
238.902
238.995
239.087
239.177
239.266
239.354
239.441
239.527
239.612
239.696
239.779
239.861
239.943
240.024
240.105
240.185
240.266
240.348
240.43
240.512
240.593
240.673
240.756
240.843
240.939
241.043
241.159
241.331
242.167
242.153
217.043
218.914
220.524
221.899
223.083
224.113
225.018
225.818
226.532
227.172
227.75
228.274
228.752
229.191
229.594
229.966
230.312
230.634
230.934
231.216
231.481
231.731
231.967
232.191
232.404
232.607
232.8
232.985
233.162
233.333
233.496
233.654
233.807
233.954
234.095
234.231
234.365
234.498
234.627
234.751
234.871
234.987
235.102
235.218
235.331
235.44
235.548
235.654
235.758
235.861
235.962
236.062
236.16
236.257
236.353
236.448
236.541
236.633
236.724
236.813
236.901
236.988
237.074
237.159
237.242
237.324
237.405
237.485
237.564
237.642
237.72
237.796
237.872
237.947
238.022
238.096
238.171
238.247
238.323
238.399
238.474
238.549
238.625
238.708
238.799
238.899
239.011
239.185
240.019
240.043
216.239
218.079
219.664
221.017
222.182
223.196
224.086
224.874
225.576
226.206
226.775
227.29
227.76
228.191
228.587
228.954
229.293
229.609
229.904
230.181
230.441
230.686
230.917
231.137
231.346
231.544
231.734
231.915
232.088
232.255
232.415
232.569
232.717
232.861
232.999
233.13
233.26
233.39
233.516
233.636
233.752
233.864
233.975
234.088
234.199
234.304
234.408
234.511
234.612
234.711
234.809
234.906
235.001
235.095
235.188
235.279
235.369
235.458
235.546
235.633
235.718
235.803
235.886
235.967
236.048
236.128
236.206
236.284
236.36
236.436
236.511
236.585
236.658
236.731
236.804
236.877
236.95
237.023
237.098
237.172
237.246
237.321
237.398
237.481
237.573
237.675
237.788
237.965
238.796
238.826
215.463
217.274
218.834
220.166
221.314
222.312
223.188
223.963
224.655
225.275
225.834
226.342
226.804
227.228
227.618
227.978
228.312
228.623
228.913
229.185
229.441
229.682
229.909
230.125
230.33
230.525
230.711
230.889
231.059
231.222
231.379
231.53
231.675
231.815
231.95
232.078
232.204
232.33
232.453
232.57
232.684
232.792
232.899
233.009
233.116
233.219
233.32
233.419
233.516
233.613
233.708
233.801
233.893
233.983
234.073
234.161
234.248
234.334
234.419
234.502
234.585
234.666
234.746
234.824
234.902
234.978
235.054
235.128
235.201
235.274
235.346
235.417
235.487
235.557
235.627
235.697
235.766
235.837
235.908
235.979
236.051
236.124
236.199
236.28
236.369
236.468
236.579
236.75
237.558
237.571
214.698
216.48
218.016
219.327
220.457
221.44
222.303
223.067
223.747
224.358
224.909
225.408
225.863
226.28
226.664
227.019
227.347
227.653
227.939
228.207
228.458
228.696
228.92
229.132
229.334
229.525
229.708
229.883
230.05
230.21
230.364
230.511
230.654
230.791
230.922
231.048
231.17
231.292
231.411
231.524
231.634
231.74
231.843
231.948
232.051
232.149
232.246
232.341
232.434
232.526
232.616
232.705
232.792
232.878
232.962
233.046
233.128
233.208
233.288
233.366
233.442
233.518
233.592
233.665
233.736
233.806
233.875
233.942
234.009
234.074
234.138
234.201
234.263
234.325
234.386
234.446
234.506
234.566
234.626
234.686
234.746
234.806
234.869
234.936
235.01
235.094
235.189
235.333
236.082
235.997
213.945
215.698
217.211
218.503
219.616
220.584
221.434
222.186
222.856
223.457
223.998
224.49
224.937
225.348
225.726
226.075
226.399
226.701
226.983
227.247
227.495
227.729
227.949
228.158
228.357
228.545
228.725
228.897
229.061
229.218
229.368
229.512
229.65
229.783
229.912
230.036
230.154
230.268
230.379
230.487
230.592
230.695
230.793
230.888
230.982
231.072
231.161
231.247
231.331
231.413
231.493
231.571
231.648
231.723
231.796
231.868
231.939
232.008
232.075
232.141
232.205
232.268
232.329
232.388
232.446
232.502
232.556
232.609
232.66
232.709
232.756
232.802
232.846
232.889
232.93
232.969
233.007
233.045
233.081
233.117
233.152
233.186
233.221
233.261
233.309
233.367
233.436
233.546
234.211
233.915
213.205
214.929
216.419
217.691
218.787
219.741
220.579
221.319
221.979
222.568
223.095
223.574
224.012
224.416
224.788
225.133
225.454
225.753
226.032
226.294
226.54
226.773
226.992
227.199
227.395
227.58
227.757
227.926
228.087
228.241
228.387
228.527
228.659
228.785
228.907
229.027
229.138
229.237
229.332
229.429
229.523
229.616
229.704
229.78
229.856
229.933
230.007
230.078
230.147
230.213
230.277
230.338
230.397
230.454
230.509
230.562
230.612
230.66
230.705
230.749
230.79
230.828
230.865
230.899
230.931
230.961
230.988
231.014
231.037
231.058
231.077
231.094
231.11
231.123
231.135
231.145
231.155
231.163
231.171
231.179
231.188
231.196
231.207
231.224
231.252
231.294
231.35
231.436
232.017
231.388
212.477
214.172
215.64
216.893
217.972
218.912
219.737
220.467
221.113
221.68
222.163
222.608
223.026
223.418
223.786
224.131
224.455
224.76
225.047
225.318
225.573
225.814
226.041
226.254
226.454
226.641
226.816
226.981
227.137
227.283
227.421
227.55
227.67
227.784
227.895
228.006
228.105
228.181
228.253
228.333
228.412
228.496
228.572
228.622
228.674
228.734
228.789
228.841
228.89
228.935
228.977
229.018
229.057
229.095
229.13
229.163
229.193
229.221
229.247
229.271
229.293
229.313
229.332
229.348
229.363
229.375
229.386
229.396
229.404
229.41
229.416
229.42
229.423
229.425
229.426
229.426
229.426
229.426
229.427
229.433
229.449
229.465
229.481
229.5
229.533
229.584
229.653
229.75
230.301
229.461
211.76
213.427
214.873
216.107
217.17
218.096
218.908
219.625
220.25
220.744
220.794
220.932
221.178
221.499
221.869
222.263
222.666
223.066
223.455
223.826
224.178
224.508
224.815
225.098
225.358
225.594
225.808
226.005
226.187
226.355
226.512
226.66
226.794
226.916
227.035
227.159
227.267
227.337
227.404
227.488
227.572
227.669
227.757
227.799
227.846
227.909
227.964
228.015
228.06
228.102
228.142
228.179
228.214
228.246
228.274
228.299
228.32
228.338
228.352
228.364
228.373
228.379
228.382
228.383
228.38
228.376
228.368
228.359
228.347
228.334
228.319
228.302
228.284
228.265
228.245
228.223
228.202
228.18
228.163
228.166
228.271
228.37
228.443
228.498
228.552
228.621
228.714
228.845
229.425
228.604
211.056
212.694
214.118
215.333
216.381
217.293
218.094
218.798
219.414
219.474
211.04
209.797
210.159
211.032
212.055
213.086
214.065
214.968
215.785
216.512
217.149
217.7
218.169
218.562
218.885
219.147
219.357
219.524
219.658
219.768
219.862
219.945
220.018
220.083
220.152
220.235
220.307
220.334
220.362
220.421
220.486
220.574
220.659
220.687
220.723
220.789
220.847
220.902
220.952
220.998
221.04
221.078
221.11
221.135
221.152
221.161
221.163
221.156
221.142
221.12
221.089
221.05
221.002
220.946
220.881
220.809
220.729
220.641
220.546
220.444
220.335
220.221
220.102
219.978
219.85
219.718
219.582
219.44
219.282
219.227
222.203
224.347
225.822
226.819
227.492
227.964
228.327
228.665
229.441
228.93
210.362
211.973
213.376
214.572
215.604
216.503
217.291
217.983
218.579
218.571
209.826
208.507
208.862
209.755
210.808
211.874
212.89
213.829
214.68
215.439
216.105
216.68
217.169
217.576
217.908
218.174
218.382
218.542
218.664
218.758
218.835
218.9
218.96
219.017
219.089
219.192
219.291
219.332
219.379
219.478
219.591
219.744
219.904
219.986
220.084
220.23
220.372
220.516
220.663
220.813
220.967
221.123
221.28
221.435
221.589
221.74
221.889
222.034
222.176
222.312
222.441
222.562
222.674
222.776
222.865
222.941
223.002
223.046
223.073
223.081
223.07
223.04
222.99
222.92
222.832
222.725
222.6
222.458
222.294
222.253
224.62
226.318
227.484
228.272
228.804
229.176
229.477
229.821
230.729
230.583
209.68
211.263
212.645
213.823
214.84
215.725
216.502
217.182
217.767
217.75
209.171
207.866
208.209
209.083
210.117
211.165
212.166
213.092
213.932
214.681
215.338
215.905
216.383
216.78
217.101
217.354
217.548
217.691
217.792
217.863
217.914
217.954
217.988
218.022
218.073
218.163
218.249
218.256
218.265
218.34
218.429
218.566
218.715
218.758
218.815
218.935
219.048
219.165
219.285
219.409
219.537
219.665
219.793
219.919
220.045
220.171
220.298
220.425
220.552
220.681
220.811
220.941
221.074
221.207
221.342
221.478
221.616
221.755
221.895
222.036
222.177
222.317
222.456
222.594
222.728
222.858
222.981
223.098
223.203
223.427
225.686
227.252
228.305
229.023
229.532
229.92
230.266
230.703
231.803
232.106
209.009
210.565
211.926
213.087
214.088
214.96
215.725
216.395
216.97
216.951
208.508
207.221
207.557
208.416
209.433
210.465
211.452
212.365
213.193
213.932
214.579
215.137
215.608
215.997
216.312
216.56
216.751
216.891
216.987
217.049
217.089
217.117
217.14
217.164
217.209
217.301
217.391
217.379
217.364
217.43
217.509
217.646
217.802
217.822
217.854
217.964
218.065
218.17
218.278
218.388
218.497
218.602
218.698
218.788
218.873
218.955
219.033
219.108
219.18
219.247
219.311
219.371
219.428
219.48
219.529
219.574
219.616
219.653
219.688
219.719
219.748
219.773
219.797
219.818
219.838
219.855
219.87
219.88
219.871
219.926
222.172
223.683
224.683
225.371
225.879
226.295
226.696
227.195
228.286
228.393
208.349
209.878
211.219
212.361
213.347
214.206
214.96
215.621
216.187
216.168
207.86
206.593
206.923
207.768
208.769
209.785
210.756
211.655
212.471
213.199
213.837
214.387
214.85
215.232
215.541
215.786
215.977
216.118
216.216
216.276
216.309
216.327
216.341
216.359
216.402
216.501
216.6
216.578
216.546
216.61
216.688
216.833
217.006
217.017
217.036
217.149
217.255
217.369
217.487
217.605
217.718
217.823
217.922
218.02
218.117
218.213
218.306
218.395
218.481
218.561
218.636
218.706
218.773
218.837
218.898
218.956
219.011
219.063
219.11
219.154
219.194
219.229
219.26
219.286
219.306
219.32
219.327
219.322
219.294
219.318
221.458
222.876
223.792
224.398
224.822
225.156
225.48
225.904
226.921
227.042
207.699
209.201
210.522
211.647
212.618
213.464
214.207
214.858
215.416
215.398
207.222
205.975
206.3
207.132
208.118
209.119
210.075
210.961
211.765
212.481
213.11
213.65
214.105
214.48
214.783
215.024
215.215
215.362
215.466
215.529
215.559
215.57
215.574
215.584
215.625
215.731
215.843
215.815
215.771
215.835
215.915
216.069
216.263
216.272
216.284
216.408
216.529
216.661
216.798
216.928
217.047
217.156
217.261
217.368
217.479
217.59
217.7
217.806
217.91
218.012
218.113
218.213
218.312
218.411
218.509
218.608
218.708
218.808
218.91
219.013
219.117
219.224
219.332
219.443
219.557
219.673
219.791
219.913
220.036
220.28
222.44
223.899
224.857
225.5
225.961
226.337
226.711
227.19
228.306
228.763
207.06
208.535
209.836
210.944
211.9
212.734
213.465
214.106
214.656
214.639
206.593
205.367
205.688
206.508
207.48
208.466
209.408
210.28
211.072
211.778
212.396
212.928
213.374
213.741
214.036
214.272
214.462
214.613
214.727
214.8
214.834
214.839
214.834
214.834
214.87
214.981
215.104
215.075
215.021
215.087
215.169
215.331
215.545
215.556
215.566
215.705
215.848
216.006
216.162
216.303
216.425
216.534
216.645
216.762
216.886
217.011
217.134
217.254
217.373
217.491
217.608
217.725
217.843
217.962
218.081
218.201
218.323
218.446
218.57
218.696
218.822
218.949
219.076
219.203
219.327
219.449
219.567
219.68
219.784
220.003
222.107
223.533
224.46
225.061
225.467
225.77
226.047
226.408
227.389
227.628
206.432
207.88
209.162
210.253
211.194
212.015
212.735
213.367
213.91
213.896
205.981
204.778
205.096
205.905
206.862
207.832
208.759
209.617
210.394
211.087
211.693
212.212
212.647
213.002
213.285
213.51
213.692
213.842
213.963
214.047
214.088
214.09
214.071
214.054
214.074
214.178
214.304
214.268
214.197
214.256
214.334
214.495
214.721
214.734
214.745
214.902
215.07
215.25
215.418
215.556
215.665
215.762
215.864
215.976
216.093
216.209
216.32
216.426
216.527
216.626
216.722
216.815
216.906
216.994
217.08
217.163
217.243
217.32
217.393
217.461
217.523
217.58
217.629
217.67
217.702
217.723
217.731
217.725
217.697
217.764
219.842
221.243
222.145
222.727
223.115
223.394
223.628
223.906
224.717
224.64
205.814
207.236
208.499
209.574
210.501
211.309
212.018
212.641
213.178
213.173
205.396
204.223
204.542
205.342
206.284
207.238
208.145
208.982
209.734
210.398
210.972
211.456
211.852
212.166
212.407
212.588
212.73
212.848
212.948
213.022
213.053
213.039
212.991
212.936
212.917
212.987
213.093
213.036
212.94
212.982
213.049
213.206
213.444
213.472
213.504
213.699
213.911
214.128
214.315
214.453
214.554
214.642
214.736
214.837
214.936
215.025
215.1
215.163
215.215
215.259
215.295
215.325
215.35
215.369
215.384
215.394
215.399
215.399
215.394
215.383
215.367
215.344
215.314
215.276
215.231
215.177
215.111
215.025
214.895
214.805
216.948
218.444
219.457
220.149
220.635
220.993
221.275
221.555
222.272
222.002
205.208
206.604
207.848
208.906
209.819
210.615
211.314
211.929
212.468
212.511
204.996
203.891
204.214
204.989
205.889
206.781
207.608
208.342
208.975
209.504
209.933
210.271
210.527
210.71
210.835
210.915
210.973
211.026
211.084
211.136
211.161
211.142
211.081
211.002
210.952
210.994
211.083
211.016
210.906
210.936
210.994
211.144
211.393
211.449
211.52
211.774
212.053
212.33
212.563
212.739
212.878
213.007
213.137
213.263
213.37
213.449
213.489
213.498
213.483
213.452
213.41
213.361
213.308
213.253
213.195
213.137
213.077
213.015
212.952
212.887
212.82
212.75
212.677
212.602
212.522
212.439
212.348
212.248
212.12
212.057
214.581
216.383
217.626
218.482
219.077
219.499
219.809
220.073
220.698
220.269
204.611
205.982
207.208
208.249
209.148
209.931
210.62
211.227
211.758
212.171
212.111
212.328
212.654
213.006
213.356
213.693
214.013
214.311
214.589
214.845
215.08
215.296
215.494
215.671
215.829
215.972
216.111
216.263
216.438
216.626
216.794
216.91
216.961
216.967
216.987
217.108
217.292
217.278
217.189
217.246
217.303
217.429
217.649
217.604
217.554
217.712
217.878
218.013
218.078
218.084
218.074
218.089
218.138
218.206
218.275
218.334
218.382
218.421
218.453
218.48
218.502
218.52
218.534
218.545
218.553
218.558
218.561
218.562
218.561
218.558
218.554
218.548
218.541
218.533
218.524
218.513
218.502
218.49
218.48
218.489
218.658
218.805
218.918
219.006
219.077
219.139
219.2
219.28
219.75
219.188
204.021
205.367
206.575
207.6
208.485
209.257
209.935
210.536
211.068
211.538
211.974
212.354
212.708
213.039
213.347
213.634
213.902
214.152
214.386
214.605
214.811
215.006
215.189
215.359
215.515
215.656
215.792
215.938
216.112
216.311
216.508
216.663
216.75
216.775
216.793
216.906
217.091
217.085
217
217.058
217.109
217.218
217.434
217.389
217.338
217.5
217.654
217.754
217.774
217.745
217.72
217.736
217.791
217.864
217.934
217.995
218.048
218.097
218.142
218.183
218.221
218.255
218.286
218.313
218.337
218.358
218.377
218.393
218.406
218.417
218.426
218.434
218.439
218.443
218.446
218.447
218.447
218.447
218.447
218.451
218.454
218.464
218.478
218.497
218.519
218.548
218.582
218.639
219.097
218.608
203.437
204.757
205.947
206.956
207.828
208.587
209.255
209.847
210.375
210.848
211.274
211.661
212.017
212.345
212.648
212.93
213.192
213.436
213.665
213.88
214.083
214.274
214.456
214.628
214.787
214.932
215.065
215.202
215.361
215.552
215.757
215.937
216.054
216.1
216.118
216.214
216.388
216.38
216.29
216.342
216.38
216.47
216.687
216.656
216.619
216.792
216.94
217.02
217.024
216.999
217.001
217.051
217.137
217.232
217.32
217.398
217.47
217.537
217.602
217.662
217.717
217.768
217.816
217.859
217.899
217.935
217.968
217.997
218.024
218.048
218.069
218.088
218.105
218.12
218.133
218.145
218.156
218.166
218.176
218.187
218.2
218.215
218.235
218.26
218.291
218.326
218.366
218.432
218.92
218.647
202.856
204.15
205.322
206.316
207.174
207.922
208.579
209.163
209.684
210.152
210.575
210.96
211.313
211.637
211.936
212.214
212.472
212.714
212.94
213.152
213.352
213.541
213.721
213.894
214.058
214.21
214.348
214.48
214.625
214.799
214.998
215.188
215.328
215.395
215.418
215.5
215.658
215.645
215.566
215.602
215.613
215.668
215.846
215.816
215.778
215.939
216.059
216.103
216.086
216.065
216.084
216.15
216.239
216.328
216.409
216.483
216.554
216.621
216.684
216.742
216.794
216.841
216.882
216.919
216.95
216.978
217.002
217.022
217.039
217.054
217.067
217.078
217.089
217.099
217.109
217.119
217.131
217.144
217.158
217.175
217.195
217.22
217.252
217.291
217.337
217.389
217.446
217.535
218.056
217.843
202.278
203.547
204.702
205.68
206.524
207.26
207.908
208.482
208.996
209.458
209.876
210.256
210.604
210.924
211.22
211.494
211.75
211.989
212.213
212.423
212.621
212.807
212.986
213.159
213.327
213.49
213.642
213.782
213.923
214.083
214.268
214.457
214.609
214.69
214.717
214.79
214.933
214.909
214.747
214.74
214.686
214.66
214.833
214.76
214.679
214.788
214.85
214.84
214.789
214.754
214.76
214.798
214.843
214.879
214.907
214.933
214.958
214.979
214.996
215.008
215.015
215.02
215.023
215.026
215.029
215.033
215.04
215.048
215.059
215.073
215.09
215.111
215.134
215.161
215.191
215.224
215.26
215.298
215.34
215.385
215.435
215.489
215.549
215.617
215.691
215.77
215.856
215.981
216.527
216.247
201.708
202.951
204.089
205.052
205.883
206.607
207.245
207.811
208.316
208.772
209.184
209.559
209.903
210.219
210.511
210.783
211.036
211.273
211.495
211.704
211.9
212.085
212.261
212.431
212.602
212.775
212.945
213.106
213.259
213.418
213.593
213.775
213.929
214.015
214.04
214.101
214.232
214.205
214.297
214.147
213.874
213.589
213.224
212.974
212.744
212.715
212.651
212.531
212.395
212.29
212.227
212.181
212.14
212.105
212.085
212.084
212.099
212.124
212.156
212.193
212.236
212.283
212.336
212.393
212.453
212.517
212.584
212.653
212.724
212.797
212.872
212.948
213.025
213.102
213.181
213.26
213.34
213.42
213.501
213.584
213.668
213.755
213.846
213.94
214.038
214.141
214.251
214.403
214.953
214.581
201.153
202.372
203.493
204.44
205.259
205.972
206.6
207.157
207.656
208.104
208.511
208.881
209.22
209.533
209.822
210.09
210.341
210.576
210.797
211.005
211.201
211.385
211.558
211.726
211.895
212.071
212.255
212.44
212.619
212.793
212.97
213.152
213.311
213.402
213.422
213.469
213.598
213.484
212.149
211.435
210.48
209.638
209.943
209.432
209.039
208.927
208.834
208.737
208.665
208.642
208.661
208.704
208.765
208.852
208.969
209.109
209.26
209.413
209.564
209.713
209.858
210.001
210.141
210.279
210.414
210.546
210.676
210.802
210.927
211.049
211.169
211.286
211.401
211.514
211.625
211.734
211.842
211.948
212.052
212.157
212.262
212.368
212.475
212.584
212.696
212.811
212.938
213.103
213.644
213.208
200.63
201.825
202.93
203.863
204.669
205.372
205.991
206.54
207.032
207.474
207.875
208.241
208.576
208.885
209.171
209.437
209.686
209.92
210.139
210.347
210.543
210.728
210.902
211.066
211.23
211.401
211.587
211.787
211.99
212.188
212.38
212.573
212.749
212.863
212.896
212.935
213.054
212.908
214.123
211.788
209.605
208.096
205.096
204.743
204.649
204.884
205.136
205.378
205.625
205.881
206.132
206.373
206.611
206.858
207.114
207.37
207.615
207.844
208.058
208.259
208.45
208.632
208.806
208.973
209.133
209.287
209.437
209.582
209.723
209.86
209.993
210.123
210.25
210.373
210.494
210.611
210.727
210.84
210.952
211.064
211.175
211.287
211.399
211.511
211.626
211.747
211.883
212.058
212.59
212.115
200.16
201.334
202.425
203.346
204.14
204.834
205.444
205.986
206.471
206.907
207.304
207.665
207.996
208.302
208.586
208.85
209.098
209.33
209.55
209.758
209.955
210.142
210.318
210.483
210.642
210.804
210.979
211.174
211.385
211.6
211.811
212.02
212.225
212.39
212.48
212.548
212.678
211.9
205.393
201.792
199.744
198.998
200.988
201.409
201.89
202.612
203.251
203.816
204.32
204.763
205.142
205.472
205.778
206.074
206.359
206.626
206.869
207.088
207.291
207.481
207.663
207.838
208.007
208.172
208.331
208.486
208.637
208.783
208.925
209.062
209.196
209.325
209.451
209.574
209.694
209.811
209.925
210.038
210.148
210.259
210.368
210.478
210.588
210.698
210.811
210.932
211.07
211.244
211.765
211.268
199.769
200.925
202.005
202.915
203.701
204.387
204.99
205.526
206.006
206.437
206.829
207.187
207.515
207.818
208.099
208.362
208.608
208.84
209.06
209.269
209.468
209.658
209.839
210.008
210.167
210.322
210.483
210.66
210.859
211.074
211.292
211.513
211.744
211.969
212.147
212.269
212.442
210.816
189.24
186.487
185.118
185.209
199.668
200.461
200.998
201.753
202.419
203.038
203.604
204.101
204.531
204.913
205.266
205.59
205.884
206.149
206.388
206.606
206.809
207.001
207.185
207.361
207.531
207.695
207.854
208.007
208.155
208.298
208.435
208.569
208.698
208.823
208.945
209.063
209.179
209.291
209.401
209.508
209.614
209.72
209.824
209.929
210.034
210.14
210.25
210.372
210.511
210.685
211.194
210.681
199.478
200.621
201.692
202.595
203.375
204.056
204.655
205.188
205.665
206.094
206.484
206.839
207.165
207.466
207.746
208.007
208.251
208.482
208.702
208.911
209.112
209.305
209.489
209.664
209.828
209.982
210.137
210.3
210.483
210.688
210.905
211.132
211.379
211.651
211.91
212.083
212.313
210.06
176.49
174.612
173.829
174.541
199.18
200.217
200.694
201.365
201.943
202.515
203.054
203.544
203.988
204.4
204.784
205.143
205.472
205.771
206.042
206.292
206.524
206.741
206.944
207.135
207.316
207.486
207.648
207.801
207.948
208.087
208.222
208.351
208.477
208.599
208.717
208.832
208.944
209.052
209.157
209.26
209.361
209.461
209.561
209.661
209.761
209.864
209.975
210.099
210.243
210.421
210.929
210.406
199.294
200.429
201.495
202.393
203.17
203.849
204.448
204.981
205.458
205.889
206.281
206.638
206.966
207.268
207.549
207.81
208.054
208.285
208.503
208.712
208.913
209.106
209.293
209.471
209.638
209.796
209.953
210.113
210.293
210.496
210.715
210.946
211.191
211.483
211.775
211.919
212.152
209.724
171.522
170.031
169.532
170.553
199.577
200.685
201.038
201.546
201.946
202.377
202.81
203.226
203.632
204.032
204.428
204.815
205.183
205.527
205.846
206.145
206.432
206.687
206.92
207.135
207.332
207.515
207.685
207.845
207.996
208.139
208.277
208.409
208.538
208.661
208.781
208.896
209.006
209.113
209.216
209.316
209.414
209.511
209.607
209.704
209.802
209.905
210.018
210.148
210.301
210.492
211.014
210.499
199.21
200.34
201.403
202.299
203.074
203.752
204.351
204.885
205.365
205.799
206.195
206.557
206.891
207.2
207.486
207.753
208.003
208.238
208.459
208.671
208.874
209.07
209.26
209.441
209.611
209.771
209.924
210.084
210.264
210.47
210.693
210.916
211.305
211.568
211.818
211.799
211.971
209.824
171.021
169.714
169.414
170.863
205.197
205.586
204.945
204.545
204.165
204.004
203.996
204.091
204.269
204.516
204.817
205.147
205.485
205.818
206.14
206.454
206.626
206.903
207.148
207.372
207.58
207.774
207.956
208.128
208.293
208.451
208.603
208.75
208.892
209.028
209.158
209.282
209.4
209.512
209.619
209.722
209.823
209.923
210.02
210.118
210.218
210.325
210.447
210.588
210.757
210.97
211.525
211.017
199.199
200.328
201.391
202.285
203.059
203.736
204.333
204.866
205.345
205.779
206.177
206.542
206.88
207.195
207.489
207.764
208.023
208.268
208.5
208.722
208.936
209.143
209.345
209.538
209.72
209.887
210.056
210.207
210.368
210.548
210.721
210.886
211.178
211.288
211.33
211.043
211.31
209.301
171.4
170.136
169.947
171.773
209.086
210.065
209.343
208.753
208.051
207.528
207.115
206.795
206.574
206.46
206.442
206.5
206.609
206.755
206.929
207.132
207.224
207.445
207.652
207.856
208.058
208.254
208.447
208.635
208.821
209.003
209.18
209.353
209.519
209.68
209.834
209.981
210.119
210.249
210.373
210.492
210.609
210.724
210.838
210.951
211.062
211.176
211.298
211.439
211.614
211.851
212.452
212.01
199.229
200.36
201.422
202.317
203.091
203.766
204.361
204.891
205.366
205.797
206.191
206.553
206.889
207.202
207.497
207.775
208.039
208.291
208.532
208.766
208.993
209.217
209.437
209.652
209.858
210.044
210.15
210.282
210.394
210.494
210.619
210.615
210.648
210.369
209.945
209.545
210.641
208.848
170.128
168.72
168.569
170.703
210.036
211.3
209.953
209.421
208.918
208.628
208.397
208.184
207.994
207.84
207.728
207.66
207.639
207.661
207.726
207.836
207.849
208.014
208.184
208.371
208.574
208.79
209.017
209.249
209.484
209.721
209.956
210.187
210.41
210.623
210.826
211.019
211.205
211.382
211.55
211.708
211.854
211.992
212.126
212.263
212.405
212.552
212.707
212.876
213.074
213.34
214.003
213.696
199.268
200.401
201.465
202.361
203.135
203.811
204.406
204.935
205.409
205.837
206.228
206.586
206.917
207.226
207.516
207.79
208.051
208.302
208.545
208.781
209.013
209.245
209.477
209.708
209.932
210.143
210.541
210.613
210.591
210.48
210.054
209.757
209.436
208.69
207.74
207.514
209.71
208.193
174.246
172.75
172.606
174.908
212.098
214.41
212.315
211.611
210.605
209.777
209.159
208.728
208.441
208.244
208.113
208.034
208.008
208.039
208.127
208.276
208.345
208.574
208.818
209.106
209.44
209.807
210.191
210.579
210.958
211.317
211.65
211.951
212.221
212.461
212.675
212.863
213.029
213.179
213.319
213.456
213.591
213.722
213.848
213.971
214.1
214.242
214.405
214.589
214.801
215.076
215.779
215.573
199.295
200.429
201.494
202.391
203.167
203.844
204.441
204.971
205.447
205.877
206.268
206.627
206.958
207.266
207.555
207.829
208.089
208.339
208.582
208.819
209.053
209.288
209.527
209.767
210.002
210.158
209.277
209.044
208.6
208.09
208.412
207.854
207.382
206.623
205.869
203.418
212.54
212.719
211.213
210.138
209.308
208.646
208.343
208.245
208.276
208.382
208.56
208.823
209.166
209.589
209.927
210.41
210.851
211.196
211.439
211.617
211.757
211.876
211.985
212.086
212.181
212.272
212.359
212.443
212.525
212.605
212.685
212.765
212.847
212.931
213.017
213.104
213.193
213.286
213.384
213.489
213.604
213.734
213.892
214.105
214.702
214.27
199.302
200.436
201.501
202.398
203.174
203.852
204.45
204.981
205.458
205.89
206.282
206.643
206.976
207.287
207.578
207.854
208.118
208.371
208.618
208.861
209.102
209.346
209.596
209.847
210.077
210.264
212.434
211.236
209.846
208.693
205.536
205.151
205.15
205.195
205.65
203.685
211.523
212.792
211.694
210.756
210.044
209.574
209.318
209.274
209.407
209.619
209.838
210.117
210.391
210.629
210.669
210.819
210.914
210.974
211.013
211.045
211.076
211.11
211.149
211.195
211.245
211.3
211.357
211.417
211.479
211.544
211.61
211.679
211.749
211.82
211.893
211.968
212.044
212.123
212.206
212.294
212.391
212.505
212.644
212.824
213.35
212.804
199.292
200.425
201.49
202.387
203.162
203.839
204.437
204.968
205.445
205.876
206.269
206.629
206.963
207.274
207.566
207.843
208.108
208.364
208.614
208.861
209.11
209.363
209.624
209.886
210.092
209.711
204.98
202.324
200.722
200.236
202.322
202.838
203.638
204.51
205.828
204.437
211.34
212.772
211.85
210.992
210.314
209.836
209.531
209.393
209.382
209.441
209.54
209.68
209.803
209.906
209.844
209.904
209.934
209.958
209.981
210.008
210.041
210.081
210.127
210.18
210.237
210.297
210.36
210.424
210.491
210.56
210.629
210.7
210.772
210.845
210.919
210.994
211.07
211.148
211.229
211.314
211.41
211.522
211.654
211.813
212.3
211.712
199.274
200.407
201.471
202.367
203.142
203.818
204.415
204.945
205.422
205.852
206.245
206.605
206.939
207.25
207.542
207.819
208.085
208.342
208.594
208.844
209.095
209.35
209.612
209.865
210.033
208.758
188.535
186.27
185.174
185.541
201.1
202.128
203.174
204.32
205.993
204.965
211.322
212.734
211.796
210.81
210.006
209.411
209.007
208.779
208.679
208.67
208.727
208.813
208.898
208.986
208.93
208.997
209.04
209.079
209.116
209.157
209.202
209.25
209.304
209.361
209.422
209.485
209.549
209.615
209.683
209.751
209.821
209.892
209.963
210.036
210.109
210.183
210.259
210.335
210.415
210.5
210.597
210.708
210.836
210.985
211.458
210.862
199.257
200.389
201.452
202.348
203.123
203.799
204.395
204.925
205.4
205.83
206.222
206.582
206.915
207.226
207.518
207.795
208.06
208.317
208.569
208.819
209.07
209.324
209.581
209.817
209.937
207.898
174.999
173.26
172.639
173.658
200.352
201.745
202.856
204.012
205.687
204.744
211.472
212.948
211.926
210.969
210.095
209.399
208.899
208.598
208.44
208.393
208.403
208.442
208.498
208.572
208.518
208.585
208.631
208.67
208.704
208.741
208.778
208.817
208.86
208.907
208.956
209.008
209.062
209.118
209.177
209.237
209.3
209.364
209.43
209.497
209.565
209.634
209.705
209.778
209.855
209.939
210.034
210.142
210.261
210.398
210.857
210.257
199.245
200.377
201.44
202.336
203.111
203.787
204.383
204.913
205.388
205.818
206.209
206.568
206.901
207.21
207.501
207.777
208.04
208.295
208.544
208.791
209.038
209.288
209.537
209.754
209.834
207.447
169.288
167.773
167.389
168.747
200.33
201.839
202.834
203.756
205.096
203.9
211.97
213.765
212.664
211.698
210.705
209.882
209.266
208.903