/*--------------------------------*- C++ -*----------------------------------*\
| =========                 |                                                 |
| \\      /  F ield         | OpenFOAM: The Open Source CFD Toolbox           |
|  \\    /   O peration     | Version:  v2012                                 |
|   \\  /    A nd           | Website:  www.openfoam.com                      |
|    \\/     M anipulation  |                                                 |
\*---------------------------------------------------------------------------*/
FoamFile
{
    version     2.0;
    format      ascii;
    class       volScalarField;
    location    "550/air";
    object      ILambda_27_0;
}
// * * * * * * * * * * * * * * * * * * * * * * * * * * * * * * * * * * * * * //

dimensions      [1 0 -3 0 0 0 0];


internalField   nonuniform List<scalar> 
287104
(
191.091
212.221
218.478
219.906
220.497
221.216
222.074
222.943
223.748
224.469
225.114
225.695
226.224
226.711
227.161
227.579
227.968
228.332
228.674
228.996
229.3
229.588
229.862
230.122
230.371
230.609
230.838
231.058
231.269
231.473
231.67
231.861
232.047
232.226
232.401
232.571
232.737
232.899
233.058
233.213
233.365
233.513
233.659
233.803
233.945
234.084
234.221
234.356
234.489
234.62
234.749
234.877
235.003
235.128
235.251
235.372
235.492
235.611
235.728
235.843
235.957
236.07
236.181
236.291
236.399
236.505
236.611
236.715
236.818
236.92
237.021
237.12
237.219
237.318
237.415
237.512
237.609
237.706
237.803
237.899
237.996
238.092
238.189
238.29
238.396
238.509
238.631
238.779
238.984
240.124
192.163
215.808
223.35
224.954
225.287
225.752
226.488
227.338
228.167
228.914
229.571
230.15
230.668
231.138
231.57
231.97
232.342
232.687
233.01
233.313
233.597
233.864
234.117
234.356
234.583
234.8
235.006
235.204
235.393
235.574
235.749
235.917
236.08
236.237
236.388
236.535
236.677
236.817
236.954
237.087
237.216
237.342
237.464
237.586
237.707
237.824
237.939
238.053
238.164
238.274
238.382
238.489
238.595
238.699
238.802
238.903
239.003
239.102
239.2
239.296
239.391
239.485
239.578
239.669
239.759
239.848
239.936
240.023
240.108
240.193
240.277
240.36
240.442
240.524
240.605
240.686
240.767
240.847
240.929
241.01
241.09
241.171
241.254
241.34
241.433
241.534
241.643
241.782
241.996
243.366
191.454
214.194
221.381
222.901
223.211
223.644
224.342
225.161
225.967
226.698
227.339
227.902
228.403
228.856
229.272
229.656
230.013
230.347
230.658
230.949
231.223
231.48
231.724
231.954
232.172
232.38
232.578
232.768
232.949
233.123
233.29
233.451
233.606
233.757
233.901
234.04
234.175
234.309
234.44
234.567
234.689
234.808
234.923
235.039
235.154
235.265
235.374
235.481
235.586
235.69
235.792
235.893
235.993
236.091
236.187
236.283
236.377
236.47
236.562
236.652
236.741
236.829
236.916
237.001
237.086
237.169
237.251
237.332
237.411
237.49
237.568
237.645
237.722
237.797
237.873
237.948
238.022
238.097
238.172
238.247
238.322
238.397
238.474
238.555
238.642
238.738
238.843
238.98
239.202
240.564
191.045
213.358
220.386
221.876
222.198
222.642
223.338
224.146
224.938
225.656
226.286
226.84
227.332
227.778
228.186
228.563
228.914
229.241
229.547
229.834
230.102
230.355
230.593
230.819
231.034
231.237
231.432
231.617
231.795
231.965
232.128
232.286
232.437
232.584
232.725
232.86
232.991
233.121
233.249
233.372
233.492
233.606
233.717
233.83
233.942
234.05
234.156
234.26
234.362
234.462
234.561
234.659
234.755
234.85
234.944
235.036
235.127
235.217
235.306
235.394
235.48
235.566
235.649
235.732
235.814
235.894
235.974
236.052
236.129
236.206
236.281
236.356
236.43
236.504
236.577
236.65
236.723
236.796
236.869
236.942
237.016
237.091
237.168
237.248
237.336
237.433
237.54
237.679
237.906
239.254
190.664
212.629
219.549
221.018
221.338
221.779
222.467
223.262
224.042
224.747
225.367
225.912
226.396
226.834
227.236
227.608
227.953
228.275
228.576
228.858
229.122
229.37
229.605
229.827
230.037
230.237
230.428
230.611
230.785
230.952
231.112
231.266
231.414
231.557
231.695
231.827
231.954
232.081
232.206
232.326
232.442
232.553
232.661
232.77
232.879
232.984
233.086
233.187
233.286
233.383
233.479
233.573
233.667
233.758
233.849
233.938
234.026
234.113
234.198
234.283
234.366
234.448
234.529
234.609
234.687
234.765
234.841
234.916
234.991
235.064
235.137
235.208
235.28
235.35
235.42
235.49
235.56
235.63
235.7
235.771
235.842
235.915
235.989
236.068
236.154
236.249
236.353
236.488
236.707
238.018
190.289
211.909
218.722
220.168
220.483
220.917
221.594
222.377
223.145
223.839
224.449
224.985
225.462
225.893
226.289
226.654
226.994
227.311
227.607
227.885
228.145
228.389
228.62
228.838
229.045
229.242
229.43
229.609
229.78
229.944
230.101
230.252
230.397
230.537
230.672
230.801
230.925
231.048
231.169
231.285
231.397
231.506
231.61
231.715
231.819
231.92
232.018
232.115
232.209
232.302
232.394
232.484
232.572
232.659
232.744
232.829
232.912
232.994
233.074
233.153
233.231
233.308
233.383
233.457
233.53
233.601
233.671
233.739
233.807
233.873
233.939
234.003
234.066
234.128
234.19
234.251
234.312
234.372
234.432
234.492
234.551
234.612
234.675
234.741
234.813
234.892
234.981
235.096
235.28
236.484
189.919
211.2
217.905
219.33
219.64
220.068
220.735
221.507
222.262
222.946
223.546
224.073
224.542
224.966
225.356
225.716
226.051
226.364
226.656
226.929
227.185
227.426
227.654
227.869
228.073
228.266
228.451
228.627
228.795
228.956
229.11
229.257
229.399
229.535
229.666
229.792
229.914
230.03
230.144
230.254
230.361
230.465
230.566
230.663
230.758
230.851
230.941
231.029
231.115
231.198
231.28
231.36
231.438
231.514
231.589
231.662
231.734
231.805
231.873
231.941
232.007
232.071
232.133
232.194
232.254
232.311
232.367
232.421
232.474
232.525
232.574
232.621
232.667
232.711
232.754
232.795
232.834
232.872
232.91
232.946
232.981
233.016
233.052
233.092
233.137
233.19
233.254
233.339
233.476
234.484
189.555
210.502
217.102
218.505
218.811
219.233
219.891
220.65
221.394
222.066
222.653
223.167
223.625
224.041
224.425
224.78
225.111
225.421
225.71
225.981
226.235
226.475
226.7
226.913
227.115
227.306
227.487
227.66
227.825
227.983
228.134
228.277
228.413
228.543
228.668
228.789
228.905
229.01
229.109
229.206
229.301
229.395
229.487
229.569
229.646
229.723
229.799
229.872
229.943
230.011
230.077
230.14
230.201
230.26
230.317
230.371
230.423
230.473
230.52
230.566
230.609
230.649
230.688
230.724
230.758
230.789
230.819
230.846
230.871
230.894
230.915
230.933
230.95
230.966
230.979
230.991
231.001
231.01
231.018
231.026
231.034
231.043
231.053
231.068
231.091
231.126
231.174
231.241
231.338
232.08
189.197
209.815
216.312
217.693
217.995
218.411
219.059
219.808
220.539
221.194
221.747
222.226
222.659
223.061
223.436
223.79
224.122
224.436
224.731
225.009
225.271
225.518
225.751
225.971
226.177
226.37
226.551
226.721
226.881
227.032
227.174
227.308
227.433
227.55
227.663
227.774
227.88
227.967
228.043
228.12
228.198
228.28
228.361
228.424
228.477
228.534
228.59
228.645
228.695
228.743
228.787
228.829
228.87
228.908
228.945
228.979
229.011
229.041
229.069
229.094
229.117
229.139
229.158
229.176
229.192
229.206
229.218
229.228
229.237
229.245
229.251
229.256
229.259
229.262
229.264
229.264
229.264
229.264
229.264
229.266
229.276
229.29
229.306
229.323
229.348
229.389
229.447
229.526
229.623
230.202
188.845
209.139
215.534
216.894
217.193
217.602
218.241
218.978
219.692
220.315
220.611
220.8
221.011
221.283
221.611
221.979
222.369
222.765
223.155
223.531
223.889
224.226
224.541
224.834
225.103
225.348
225.573
225.777
225.966
226.14
226.303
226.455
226.596
226.724
226.844
226.966
227.083
227.171
227.242
227.318
227.398
227.489
227.584
227.647
227.694
227.75
227.806
227.859
227.907
227.951
227.992
228.03
228.066
228.099
228.13
228.156
228.179
228.199
228.216
228.229
228.24
228.248
228.253
228.255
228.255
228.252
228.247
228.239
228.229
228.218
228.204
228.189
228.173
228.155
228.137
228.117
228.096
228.076
228.056
228.046
228.099
228.175
228.242
228.294
228.341
228.398
228.475
228.582
228.715
229.299
188.499
208.474
214.769
216.108
216.403
216.807
217.436
218.164
218.819
219.785
214.722
211.15
210.1
210.533
211.528
212.627
213.667
214.612
215.461
216.219
216.889
217.475
217.979
218.407
218.763
219.054
219.29
219.478
219.629
219.752
219.856
219.946
220.026
220.096
220.164
220.242
220.322
220.371
220.401
220.447
220.504
220.581
220.67
220.724
220.76
220.811
220.869
220.925
220.978
221.026
221.069
221.108
221.143
221.17
221.191
221.204
221.209
221.206
221.196
221.178
221.151
221.116
221.073
221.022
220.962
220.895
220.82
220.737
220.647
220.55
220.447
220.337
220.223
220.104
219.981
219.854
219.723
219.587
219.46
219.16
220.841
223.064
224.916
226.205
227.04
227.586
227.973
228.296
228.616
229.475
188.158
207.82
214.016
215.335
215.625
216.024
216.644
217.361
217.995
218.963
213.584
209.642
208.393
208.809
209.881
211.079
212.204
213.213
214.112
214.911
215.617
216.236
216.767
217.215
217.586
217.885
218.122
218.305
218.445
218.552
218.637
218.708
218.769
218.827
218.89
218.978
219.079
219.146
219.192
219.266
219.363
219.496
219.654
219.769
219.863
219.985
220.12
220.262
220.406
220.552
220.702
220.853
221.006
221.159
221.31
221.458
221.604
221.747
221.886
222.021
222.148
222.269
222.381
222.483
222.574
222.651
222.715
222.762
222.793
222.806
222.8
222.776
222.732
222.668
222.586
222.485
222.366
222.23
222.088
221.818
223.174
225.02
226.582
227.671
228.367
228.809
229.122
229.418
229.799
230.959
187.823
207.176
213.275
214.574
214.86
215.253
215.865
216.571
217.194
218.135
212.864
209.006
207.785
208.192
209.246
210.424
211.532
212.525
213.409
214.194
214.89
215.497
216.019
216.457
216.817
217.105
217.328
217.496
217.618
217.704
217.764
217.809
217.846
217.879
217.92
217.992
218.083
218.127
218.141
218.187
218.26
218.374
218.524
218.615
218.674
218.767
218.877
218.994
219.115
219.239
219.367
219.496
219.626
219.755
219.884
220.012
220.14
220.268
220.397
220.527
220.658
220.79
220.923
221.056
221.191
221.327
221.464
221.601
221.74
221.878
222.016
222.154
222.29
222.424
222.555
222.681
222.802
222.916
223.03
223.051
224.452
226.18
227.584
228.55
229.181
229.61
229.946
230.307
230.813
232.375
187.493
206.542
212.546
213.825
214.107
214.495
215.097
215.793
216.407
217.331
212.145
208.353
207.154
207.553
208.587
209.744
210.834
211.811
212.682
213.457
214.142
214.74
215.253
215.684
216.036
216.318
216.538
216.702
216.819
216.898
216.948
216.981
217.006
217.028
217.06
217.13
217.223
217.259
217.25
217.28
217.34
217.449
217.603
217.683
217.719
217.794
217.889
217.993
218.101
218.211
218.321
218.429
218.53
218.625
218.713
218.797
218.878
218.956
219.03
219.102
219.169
219.233
219.294
219.351
219.404
219.454
219.5
219.543
219.583
219.62
219.654
219.685
219.715
219.742
219.767
219.791
219.812
219.83
219.851
219.73
221.067
222.745
224.094
225.016
225.628
226.071
226.452
226.878
227.435
228.851
187.169
205.919
211.829
213.087
213.366
213.748
214.342
215.027
215.632
216.542
211.439
207.708
206.526
206.919
207.936
209.074
210.146
211.109
211.967
212.73
213.405
213.995
214.5
214.923
215.269
215.547
215.765
215.93
216.049
216.127
216.172
216.197
216.213
216.227
216.254
216.326
216.429
216.463
216.441
216.463
216.519
216.63
216.799
216.881
216.907
216.978
217.074
217.184
217.301
217.42
217.536
217.644
217.747
217.845
217.941
218.037
218.13
218.22
218.307
218.389
218.466
218.537
218.605
218.669
218.73
218.789
218.844
218.896
218.944
218.988
219.028
219.064
219.096
219.122
219.144
219.16
219.169
219.168
219.165
219.015
220.274
221.858
223.118
223.956
224.486
224.848
225.152
225.503
225.989
227.356
186.85
205.305
211.123
212.362
212.636
213.013
213.598
214.273
214.869
215.765
210.744
207.072
205.91
206.296
207.298
208.419
209.474
210.423
211.267
212.019
212.685
213.265
213.762
214.177
214.516
214.789
215.005
215.172
215.297
215.38
215.426
215.446
215.452
215.458
215.48
215.553
215.667
215.704
215.674
215.691
215.746
215.862
216.048
216.137
216.16
216.233
216.34
216.467
216.603
216.737
216.863
216.977
217.084
217.189
217.297
217.407
217.517
217.625
217.73
217.832
217.933
218.032
218.13
218.228
218.325
218.423
218.521
218.619
218.718
218.818
218.92
219.023
219.128
219.235
219.345
219.456
219.57
219.686
219.814
219.863
221.218
222.849
224.145
225.015
225.578
225.976
226.322
226.722
227.269
228.906
186.536
204.702
210.428
211.647
211.918
212.29
212.866
213.531
214.118
215
210.059
206.446
205.303
205.685
206.671
207.776
208.816
209.75
210.582
211.323
211.978
212.549
213.037
213.444
213.776
214.041
214.253
214.423
214.555
214.648
214.701
214.72
214.719
214.715
214.729
214.802
214.925
214.967
214.931
214.945
215.001
215.122
215.323
215.422
215.445
215.526
215.65
215.8
215.959
216.11
216.242
216.359
216.468
216.581
216.7
216.824
216.948
217.07
217.189
217.307
217.425
217.542
217.659
217.777
217.896
218.015
218.136
218.258
218.382
218.507
218.633
218.76
218.888
219.015
219.142
219.267
219.388
219.505
219.625
219.664
220.983
222.579
223.842
224.677
225.195
225.534
225.801
226.098
226.533
227.967
186.227
204.108
209.744
210.945
211.212
211.578
212.145
212.8
213.379
214.249
209.39
205.837
204.716
205.093
206.065
207.153
208.176
209.095
209.913
210.64
211.282
211.841
212.318
212.714
213.034
213.288
213.491
213.656
213.791
213.894
213.956
213.978
213.969
213.95
213.948
214.009
214.13
214.17
214.123
214.128
214.177
214.294
214.503
214.608
214.632
214.723
214.867
215.041
215.218
215.374
215.499
215.603
215.702
215.808
215.922
216.039
216.153
216.263
216.368
216.469
216.567
216.663
216.756
216.847
216.936
217.022
217.106
217.187
217.264
217.337
217.405
217.467
217.523
217.572
217.612
217.642
217.661
217.667
217.665
217.555
218.796
220.352
221.59
222.403
222.901
223.216
223.447
223.681
224.005
225.112
185.923
203.524
209.072
210.254
210.517
210.878
211.437
212.082
212.654
213.516
208.743
205.258
204.163
204.539
205.498
206.568
207.573
208.471
209.267
209.969
210.582
211.109
211.551
211.908
212.188
212.401
212.563
212.693
212.802
212.889
212.943
212.953
212.923
212.871
212.831
212.856
212.951
212.969
212.9
212.884
212.919
213.028
213.241
213.359
213.401
213.522
213.706
213.92
214.124
214.29
214.412
214.507
214.596
214.691
214.79
214.885
214.969
215.04
215.099
215.149
215.191
215.227
215.257
215.281
215.301
215.316
215.326
215.331
215.331
215.326
215.315
215.297
215.273
215.242
215.203
215.155
215.098
215.024
214.934
214.675
215.883
217.495
218.83
219.752
220.354
220.757
221.051
221.31
221.598
222.506
185.626
202.951
208.412
209.576
209.835
210.19
210.741
211.378
211.945
212.823
208.209
204.824
203.757
204.126
205.059
206.085
207.026
207.839
208.529
209.108
209.585
209.969
210.269
210.492
210.649
210.753
210.823
210.877
210.932
210.986
211.025
211.029
210.99
210.919
210.851
210.844
210.915
210.919
210.836
210.808
210.833
210.933
211.148
211.285
211.359
211.531
211.779
212.057
212.317
212.527
212.688
212.821
212.948
213.073
213.189
213.283
213.345
213.371
213.37
213.348
213.312
213.267
213.217
213.164
213.109
213.052
212.993
212.934
212.872
212.809
212.743
212.675
212.604
212.53
212.453
212.371
212.284
212.188
212.092
211.817
213.253
215.186
216.815
217.959
218.709
219.202
219.544
219.812
220.054
220.793
185.332
202.387
207.762
208.909
209.164
209.514
210.056
210.681
211.283
211.844
211.925
211.898
212.029
212.332
212.721
213.121
213.492
213.825
214.123
214.393
214.64
214.867
215.075
215.262
215.429
215.577
215.714
215.855
216.014
216.191
216.366
216.507
216.589
216.615
216.621
216.686
216.843
216.915
216.869
216.868
216.903
216.99
217.184
217.254
217.223
217.292
217.437
217.594
217.706
217.753
217.758
217.763
217.794
217.852
217.922
217.989
218.044
218.087
218.121
218.148
218.169
218.186
218.199
218.209
218.215
218.219
218.22
218.22
218.217
218.213
218.207
218.2
218.191
218.181
218.17
218.157
218.143
218.128
218.115
218.092
218.208
218.413
218.617
218.774
218.882
218.956
219.017
219.084
219.17
219.733
185.043
201.829
207.121
208.249
208.501
208.845
209.38
209.996
210.599
211.133
211.62
212.052
212.43
212.771
213.086
213.381
213.656
213.914
214.154
214.378
214.589
214.788
214.976
215.153
215.316
215.465
215.604
215.745
215.904
216.09
216.29
216.469
216.594
216.652
216.67
216.732
216.888
216.969
216.929
216.932
216.966
217.04
217.225
217.29
217.253
217.32
217.456
217.586
217.654
217.655
217.628
217.619
217.648
217.709
217.78
217.848
217.907
217.958
218.004
218.047
218.086
218.121
218.153
218.182
218.207
218.23
218.249
218.266
218.281
218.293
218.303
218.311
218.317
218.322
218.325
218.326
218.327
218.327
218.326
218.329
218.33
218.33
218.335
218.346
218.363
218.385
218.413
218.454
218.522
219.108
184.756
201.277
206.485
207.595
207.843
208.182
208.709
209.316
209.911
210.448
210.922
211.343
211.718
212.056
212.366
212.653
212.922
213.174
213.411
213.633
213.842
214.039
214.226
214.403
214.569
214.721
214.86
214.994
215.141
215.315
215.514
215.708
215.861
215.944
215.973
216.027
216.17
216.242
216.198
216.197
216.222
216.279
216.455
216.527
216.504
216.586
216.726
216.843
216.893
216.887
216.874
216.894
216.957
217.046
217.139
217.224
217.301
217.37
217.435
217.497
217.554
217.607
217.656
217.701
217.743
217.78
217.815
217.846
217.874
217.899
217.921
217.941
217.959
217.975
217.989
218.001
218.012
218.023
218.032
218.042
218.052
218.063
218.078
218.099
218.125
218.158
218.195
218.245
218.331
219.051
184.471
200.727
205.852
206.945
207.189
207.523
208.042
208.64
209.226
209.758
210.225
210.637
211.006
211.34
211.648
211.933
212.2
212.45
212.684
212.903
213.11
213.304
213.489
213.666
213.834
213.992
214.137
214.271
214.409
214.567
214.754
214.95
215.119
215.225
215.268
215.318
215.446
215.506
215.466
215.46
215.467
215.494
215.632
215.688
215.663
215.74
215.862
215.95
215.972
215.956
215.952
215.989
216.064
216.155
216.244
216.324
216.398
216.468
216.533
216.594
216.65
216.7
216.744
216.784
216.819
216.849
216.876
216.898
216.917
216.934
216.948
216.96
216.972
216.982
216.992
217.002
217.013
217.025
217.038
217.053
217.071
217.093
217.12
217.155
217.197
217.246
217.299
217.368
217.484
218.254
184.187
200.181
205.223
206.299
206.539
206.868
207.379
207.968
208.545
209.069
209.531
209.938
210.301
210.632
210.936
211.219
211.482
211.729
211.961
212.178
212.383
212.575
212.757
212.933
213.104
213.269
213.426
213.571
213.711
213.861
214.033
214.221
214.394
214.514
214.568
214.616
214.731
214.784
214.688
214.629
214.579
214.53
214.637
214.662
214.601
214.634
214.702
214.734
214.712
214.672
214.655
214.675
214.716
214.76
214.797
214.827
214.854
214.878
214.899
214.914
214.925
214.932
214.936
214.94
214.944
214.948
214.953
214.96
214.97
214.982
214.997
215.015
215.036
215.06
215.088
215.118
215.151
215.187
215.226
215.268
215.314
215.364
215.42
215.483
215.553
215.629
215.71
215.81
215.963
216.697
183.907
199.641
204.601
205.66
205.897
206.221
206.724
207.304
207.873
208.389
208.844
209.245
209.604
209.931
210.231
210.511
210.772
211.016
211.246
211.462
211.665
211.855
212.036
212.209
212.379
212.551
212.721
212.886
213.043
213.198
213.364
213.544
213.714
213.837
213.892
213.934
214.041
214.065
214.136
214.092
213.9
213.645
213.314
213.028
212.769
212.659
212.603
212.521
212.404
212.286
212.199
212.143
212.101
212.066
212.04
212.029
212.035
212.053
212.08
212.113
212.151
212.193
212.241
212.293
212.349
212.409
212.472
212.538
212.606
212.676
212.747
212.821
212.895
212.97
213.047
213.124
213.202
213.28
213.359
213.439
213.521
213.606
213.694
213.785
213.881
213.98
214.085
214.211
214.387
215.055
183.634
199.116
203.997
205.038
205.272
205.592
206.087
206.658
207.218
207.727
208.175
208.571
208.926
209.248
209.545
209.821
210.08
210.322
210.55
210.765
210.967
211.157
211.336
211.507
211.674
211.846
212.026
212.21
212.391
212.567
212.742
212.922
213.094
213.222
213.277
213.309
213.402
213.472
212.652
211.808
210.911
209.965
209.835
209.584
209.218
208.987
208.856
208.755
208.671
208.62
208.612
208.636
208.684
208.754
208.851
208.973
209.112
209.26
209.409
209.556
209.699
209.84
209.979
210.115
210.249
210.38
210.509
210.636
210.76
210.882
211.002
211.119
211.234
211.347
211.458
211.567
211.675
211.78
211.885
211.988
212.092
212.196
212.302
212.41
212.52
212.632
212.752
212.894
213.078
213.689
183.377
198.62
203.425
204.451
204.681
204.997
205.485
206.047
206.599
207.101
207.543
207.934
208.284
208.603
208.897
209.17
209.427
209.668
209.894
210.108
210.31
210.501
210.68
210.849
211.013
211.179
211.357
211.55
211.751
211.951
212.146
212.339
212.525
212.672
212.744
212.776
212.888
212.728
213.604
212.683
210.725
209.026
206.403
205.032
204.57
204.651
204.912
205.187
205.441
205.687
205.929
206.165
206.397
206.634
206.881
207.133
207.381
207.617
207.839
208.045
208.241
208.426
208.603
208.773
208.935
209.092
209.243
209.39
209.533
209.671
209.806
209.937
210.065
210.189
210.311
210.43
210.546
210.659
210.771
210.882
210.993
211.104
211.215
211.327
211.44
211.557
211.684
211.836
212.025
212.598
183.146
198.174
202.911
203.922
204.15
204.461
204.943
205.498
206.043
206.537
206.974
207.36
207.706
208.021
208.313
208.584
208.839
209.078
209.305
209.518
209.721
209.913
210.095
210.265
210.427
210.586
210.754
210.939
211.142
211.355
211.567
211.778
211.986
212.173
212.299
212.371
212.484
212.468
208.433
204.18
201.158
199.467
200.215
200.99
201.565
202.208
202.857
203.452
203.978
204.44
204.84
205.188
205.501
205.798
206.087
206.363
206.619
206.852
207.064
207.26
207.446
207.624
207.796
207.962
208.124
208.281
208.434
208.582
208.725
208.864
209
209.131
209.258
209.383
209.503
209.621
209.737
209.849
209.96
210.07
210.179
210.289
210.398
210.508
210.618
210.735
210.863
211.016
211.202
211.748
182.954
197.802
202.481
203.481
203.707
204.015
204.491
205.041
205.579
206.068
206.5
206.882
207.224
207.537
207.825
208.095
208.348
208.587
208.813
209.027
209.232
209.426
209.611
209.786
209.95
210.106
210.264
210.432
210.62
210.827
211.043
211.263
211.49
211.719
211.92
212.065
212.148
212.769
198.891
189.84
186.026
184.16
193.327
198.843
200.907
201.702
202.2
202.698
203.222
203.73
204.19
204.597
204.965
205.302
205.61
205.89
206.142
206.37
206.579
206.775
206.961
207.14
207.312
207.479
207.64
207.795
207.945
208.09
208.23
208.365
208.496
208.623
208.746
208.866
208.982
209.096
209.206
209.315
209.421
209.526
209.63
209.734
209.839
209.944
210.051
210.167
210.296
210.449
210.632
211.157
182.811
197.523
202.16
203.151
203.376
203.683
204.157
204.702
205.238
205.724
206.153
206.533
206.873
207.183
207.47
207.738
207.989
208.226
208.452
208.666
208.871
209.068
209.257
209.436
209.605
209.764
209.918
210.076
210.248
210.442
210.653
210.875
211.111
211.371
211.639
211.852
211.92
213.126
191.315
178.396
173.992
171.955
188.101
197.649
200.945
201.751
201.965
202.24
202.658
203.138
203.614
204.058
204.466
204.841
205.185
205.497
205.779
206.037
206.275
206.497
206.705
206.901
207.086
207.26
207.426
207.583
207.732
207.874
208.011
208.142
208.269
208.392
208.512
208.628
208.741
208.85
208.956
209.06
209.161
209.261
209.36
209.46
209.559
209.661
209.767
209.883
210.016
210.175
210.361
210.878
182.72
197.347
201.956
202.941
203.166
203.474
203.947
204.493
205.028
205.515
205.945
206.327
206.669
206.98
207.268
207.537
207.788
208.025
208.249
208.463
208.668
208.865
209.055
209.237
209.41
209.573
209.73
209.887
210.056
210.246
210.456
210.681
210.916
211.186
211.485
211.698
211.728
213.21
188.295
173.815
169.191
167.118
186.337
197.685
201.491
202.198
202.14
202.174
202.428
202.813
203.243
203.674
204.092
204.492
204.871
205.226
205.554
205.859
206.15
206.417
206.661
206.884
207.089
207.278
207.453
207.617
207.771
207.918
208.057
208.191
208.32
208.445
208.566
208.682
208.794
208.902
209.006
209.107
209.205
209.302
209.397
209.493
209.591
209.691
209.799
209.92
210.06
210.229
210.429
210.962
182.678
197.264
201.859
202.842
203.067
203.375
203.848
204.394
204.931
205.42
205.855
206.241
206.588
206.906
207.2
207.474
207.731
207.972
208.2
208.417
208.624
208.823
209.016
209.201
209.377
209.542
209.698
209.854
210.022
210.214
210.43
210.641
210.967
211.267
211.556
211.661
211.563
213.245
187.999
173.374
168.851
166.698
189.476
202.316
205.873
205.696
204.713
204.009
203.732
203.748
203.925
204.184
204.491
204.822
205.164
205.501
205.826
206.153
206.379
206.625
206.873
207.108
207.325
207.525
207.712
207.888
208.055
208.214
208.368
208.516
208.659
208.796
208.927
209.053
209.172
209.285
209.393
209.497
209.599
209.697
209.795
209.892
209.991
210.096
210.21
210.341
210.494
210.682
210.91
211.47
182.673
197.252
201.845
202.826
203.05
203.357
203.829
204.374
204.91
205.399
205.834
206.222
206.574
206.896
207.197
207.479
207.745
207.996
208.234
208.461
208.678
208.889
209.092
209.289
209.477
209.65
209.82
209.977
210.134
210.305
210.483
210.645
210.898
211.081
211.204
211.052
210.896
212.599
187.983
173.712
169.37
167.262
192.03
206.349
210.376
210.112
208.795
207.691
207
206.603
206.379
206.267
206.24
206.282
206.378
206.512
206.674
206.876
207.008
207.186
207.388
207.595
207.8
207.999
208.192
208.381
208.566
208.748
208.925
209.098
209.266
209.427
209.583
209.73
209.87
210.002
210.127
210.247
210.364
210.478
210.59
210.701
210.81
210.922
211.04
211.174
211.334
211.539
211.797
212.43
182.687
197.28
201.876
202.858
203.081
203.386
203.857
204.399
204.932
205.418
205.85
206.234
206.583
206.904
207.205
207.489
207.758
208.016
208.262
208.499
208.729
208.954
209.175
209.393
209.603
209.803
209.941
210.069
210.187
210.291
210.419
210.469
210.525
210.394
210.084
209.603
209.852
212.017
187.062
172.462
168.011
165.927
192.078
207.401
211.373
210.971
209.686
208.748
208.246
207.992
207.835
207.711
207.608
207.532
207.491
207.491
207.531
207.627
207.67
207.781
207.936
208.116
208.312
208.521
208.741
208.967
209.198
209.43
209.663
209.892
210.115
210.329
210.533
210.729
210.916
211.094
211.262
211.42
211.568
211.708
211.844
211.979
212.118
212.26
212.408
212.567
212.75
212.981
213.276
214.059
182.707
197.317
201.919
202.902
203.126
203.431
203.902
204.443
204.975
205.459
205.888
206.269
206.613
206.929
207.225
207.505
207.772
208.028
208.274
208.513
208.747
208.979
209.21
209.441
209.67
209.871
210.21
210.413
210.469
210.432
210.143
209.818
209.522
208.983
208.144
207.461
208.417
210.808
189.085
176.075
172.011
170.2
194.926
210.235
214.096
213.347
211.552
210.08
209.155
208.634
208.341
208.159
208.028
207.934
207.881
207.877
207.926
208.048
208.134
208.301
208.52
208.788
209.101
209.45
209.821
210.202
210.578
210.939
211.277
211.588
211.869
212.122
212.347
212.546
212.724
212.884
213.033
213.175
213.313
213.446
213.575
213.701
213.831
213.972
214.128
214.301
214.495
214.734
215.046
215.926
182.72
197.343
201.949
202.934
203.158
203.464
203.936
204.479
205.013
205.498
205.928
206.309
206.654
206.97
207.265
207.544
207.809
208.064
208.31
208.549
208.785
209.019
209.256
209.494
209.726
209.992
209.527
209.127
208.729
208.206
208.247
207.995
207.595
206.961
206.13
204.574
192.988
210.163
213.205
211.812
210.043
208.824
208.229
208.038
208.053
208.157
208.317
208.542
208.838
209.227
209.583
210.006
210.444
210.819
211.101
211.31
211.473
211.612
211.737
211.853
211.962
212.065
212.164
212.259
212.349
212.437
212.522
212.608
212.693
212.78
212.867
212.956
213.046
213.139
213.236
213.339
213.449
213.57
213.712
213.892
214.123
214.785
182.723
197.35
201.957
202.942
203.166
203.473
203.945
204.49
205.024
205.511
205.942
206.326
206.672
206.99
207.287
207.569
207.837
208.095
208.345
208.589
208.83
209.072
209.319
209.567
209.828
209.877
211.398
211.486
210.478
209.402
206.882
205.447
205.007
204.96
205.212
204.585
191.359
209.22
213.439
212.603
210.931
209.736
209.137
208.967
209.062
209.28
209.523
209.799
210.08
210.351
210.474
210.6
210.713
210.797
210.855
210.896
210.931
210.967
211.006
211.051
211.101
211.156
211.214
211.274
211.337
211.402
211.468
211.537
211.606
211.677
211.749
211.823
211.898
211.976
212.056
212.141
212.232
212.334
212.457
212.611
212.796
213.331
182.718
197.341
201.947
202.931
203.155
203.461
203.933
204.477
205.011
205.498
205.929
206.313
206.659
206.978
207.276
207.558
207.827
208.087
208.34
208.588
208.836
209.085
209.342
209.604
209.838
209.996
207.155
204.116
201.877
200.615
201.536
202.367
203.148
203.94
205.003
205.197
191.324
209.185
213.503
212.799
211.214
210.042
209.411
209.166
209.144
209.224
209.341
209.483
209.618
209.746
209.747
209.767
209.794
209.819
209.843
209.87
209.9
209.937
209.98
210.03
210.086
210.145
210.207
210.271
210.338
210.406
210.475
210.545
210.616
210.688
210.761
210.834
210.909
210.985
211.064
211.145
211.234
211.335
211.455
211.597
211.758
212.235
182.71
197.324
201.928
202.911
203.135
203.44
203.912
204.455
204.989
205.474
205.906
206.289
206.635
206.954
207.252
207.534
207.804
208.065
208.32
208.57
208.82
209.072
209.33
209.596
209.719
210.476
197.55
189.316
185.994
184.379
194.319
200.31
202.839
204.007
205.198
205.669
191.304
209.168
213.467
212.677
210.979
209.691
208.956
208.616
208.501
208.5
208.56
208.647
208.735
208.832
208.826
208.849
208.887
208.927
208.966
209.006
209.049
209.096
209.148
209.204
209.263
209.326
209.39
209.455
209.522
209.59
209.66
209.73
209.801
209.872
209.944
210.017
210.091
210.167
210.244
210.325
210.415
210.517
210.635
210.769
210.921
211.379
182.701
197.308
201.909
202.892
203.115
203.421
203.892
204.435
204.967
205.453
205.883
206.266
206.612
206.93
207.228
207.51
207.78
208.04
208.294
208.545
208.795
209.047
209.302
209.564
209.577
210.839
189.519
176.952
172.781
170.861
188.388
198.834
202.824
204.125
205.118
205.465
191.391
209.348
213.62
212.823
211.083
209.713
208.879
208.455
208.272
208.224
208.241
208.283
208.334
208.409
208.398
208.423
208.464
208.507
208.545
208.583
208.62
208.659
208.701
208.746
208.795
208.845
208.899
208.954
209.012
209.072
209.133
209.196
209.261
209.327
209.394
209.462
209.532
209.603
209.677
209.757
209.846
209.946
210.059
210.183
210.325
210.767
182.695
197.297
201.896
202.879
203.103
203.409
203.88
204.422
204.955
205.44
205.87
206.252
206.597
206.915
207.212
207.493
207.761
208.019
208.271
208.518
208.765
209.014
209.263
209.515
209.465
210.925
186.051
171.58
167.035
165.02
185.963
198.449
203.047
204.229
204.836
204.721
191.688
209.995
214.352
213.558
211.74
210.255
209.296