/*--------------------------------*- C++ -*----------------------------------*\
| =========                 |                                                 |
| \\      /  F ield         | OpenFOAM: The Open Source CFD Toolbox           |
|  \\    /   O peration     | Version:  v2012                                 |
|   \\  /    A nd           | Website:  www.openfoam.com                      |
|    \\/     M anipulation  |                                                 |
\*---------------------------------------------------------------------------*/
FoamFile
{
    version     2.0;
    format      ascii;
    class       volScalarField;
    location    "550/air";
    object      ILambda_60_0;
}
// * * * * * * * * * * * * * * * * * * * * * * * * * * * * * * * * * * * * * //

dimensions      [1 0 -3 0 0 0 0];


internalField   nonuniform List<scalar> 
287104
(
166.701
166.71
166.717
166.725
166.732
166.74
166.747
166.755
166.762
166.769
166.777
166.784
166.791
166.799
166.806
166.814
166.821
166.828
166.835
166.843
166.85
166.857
166.865
166.872
166.879
166.886
166.894
166.901
166.908
166.916
166.923
166.93
166.937
166.945
166.952
166.959
166.966
166.974
166.981
166.988
166.995
167.002
167.009
167.017
167.024
167.031
167.038
167.045
167.052
167.06
167.067
167.074
167.081
167.088
167.095
167.102
167.11
167.117
167.124
167.131
167.138
167.145
167.152
167.159
167.167
167.174
167.181
167.188
167.195
167.202
167.209
167.216
167.223
167.23
167.237
167.244
167.251
167.258
167.265
167.272
167.279
167.286
167.293
167.299
167.306
167.314
167.321
167.317
167.176
167.9
166.701
166.71
166.717
166.725
166.732
166.74
166.747
166.754
166.762
166.769
166.777
166.784
166.791
166.799
166.806
166.813
166.821
166.828
166.835
166.842
166.85
166.857
166.864
166.872
166.879
166.886
166.893
166.901
166.908
166.915
166.922
166.93
166.937
166.944
166.951
166.958
166.966
166.973
166.98
166.987
166.994
167.001
167.008
167.016
167.023
167.03
167.037
167.044
167.051
167.058
167.065
167.073
167.08
167.087
167.094
167.101
167.108
167.115
167.122
167.129
167.136
167.144
167.151
167.158
167.165
167.172
167.179
167.186
167.193
167.2
167.207
167.214
167.221
167.228
167.235
167.242
167.249
167.256
167.263
167.269
167.276
167.283
167.29
167.297
167.304
167.311
167.319
167.315
167.175
167.889
166.701
166.71
166.717
166.725
166.732
166.739
166.747
166.754
166.762
166.769
166.776
166.784
166.791
166.798
166.806
166.813
166.82
166.828
166.835
166.842
166.849
166.857
166.864
166.871
166.878
166.886
166.893
166.9
166.907
166.915
166.922
166.929
166.936
166.943
166.951
166.958
166.965
166.972
166.979
166.986
166.993
167
167.008
167.015
167.022
167.029
167.036
167.043
167.05
167.057
167.064
167.071
167.078
167.086
167.093
167.1
167.107
167.114
167.121
167.128
167.135
167.142
167.149
167.156
167.163
167.17
167.177
167.184
167.191
167.198
167.205
167.212
167.219
167.226
167.233
167.24
167.246
167.253
167.26
167.267
167.274
167.281
167.288
167.294
167.301
167.309
167.316
167.312
167.175
167.873
166.7
166.71
166.717
166.724
166.732
166.739
166.747
166.754
166.761
166.769
166.776
166.783
166.791
166.798
166.805
166.813
166.82
166.827
166.835
166.842
166.849
166.856
166.863
166.871
166.878
166.885
166.892
166.9
166.907
166.914
166.921
166.928
166.935
166.943
166.95
166.957
166.964
166.971
166.978
166.985
166.992
167
167.007
167.014
167.021
167.028
167.035
167.042
167.049
167.056
167.063
167.07
167.077
167.084
167.091
167.098
167.105
167.112
167.119
167.126
167.133
167.14
167.147
167.154
167.161
167.168
167.175
167.182
167.189
167.196
167.203
167.21
167.217
167.224
167.231
167.237
167.244
167.251
167.258
167.265
167.272
167.279
167.285
167.292
167.299
167.306
167.314
167.31
167.175
167.864
166.7
166.71
166.717
166.724
166.732
166.739
166.746
166.754
166.761
166.768
166.776
166.783
166.79
166.798
166.805
166.812
166.82
166.827
166.834
166.841
166.848
166.856
166.863
166.87
166.877
166.884
166.892
166.899
166.906
166.913
166.92
166.927
166.935
166.942
166.949
166.956
166.963
166.97
166.977
166.984
166.991
166.998
167.005
167.012
167.019
167.026
167.033
167.04
167.047
167.054
167.061
167.068
167.075
167.082
167.089
167.096
167.103
167.11
167.117
167.124
167.131
167.138
167.145
167.152
167.159
167.166
167.173
167.18
167.186
167.193
167.2
167.207
167.214
167.221
167.227
167.234
167.241
167.248
167.255
167.261
167.268
167.275
167.282
167.289
167.295
167.302
167.31
167.307
167.174
167.844
166.7
166.71
166.717
166.724
166.732
166.739
166.746
166.754
166.761
166.768
166.775
166.783
166.79
166.797
166.805
166.812
166.819
166.826
166.833
166.841
166.848
166.855
166.862
166.869
166.877
166.884
166.891
166.898
166.905
166.912
166.919
166.926
166.934
166.941
166.948
166.955
166.962
166.969
166.976
166.983
166.99
166.997
167.004
167.011
167.018
167.025
167.032
167.039
167.045
167.052
167.059
167.066
167.073
167.08
167.087
167.094
167.101
167.107
167.114
167.121
167.128
167.135
167.142
167.148
167.155
167.162
167.169
167.176
167.182
167.189
167.196
167.202
167.209
167.216
167.222
167.229
167.235
167.242
167.249
167.255
167.262
167.268
167.275
167.281
167.288
167.294
167.301
167.298
167.175
167.794
166.7
166.709
166.717
166.724
166.731
166.739
166.746
166.753
166.761
166.768
166.775
166.782
166.79
166.797
166.804
166.811
166.818
166.826
166.833
166.84
166.847
166.854
166.861
166.869
166.876
166.883
166.89
166.897
166.904
166.911
166.918
166.925
166.932
166.939
166.946
166.953
166.96
166.967
166.974
166.981
166.988
166.995
167.002
167.009
167.016
167.022
167.029
167.036
167.043
167.05
167.056
167.063
167.07
167.076
167.083
167.09
167.097
167.103
167.11
167.117
167.123
167.13
167.136
167.143
167.15
167.156
167.163
167.169
167.175
167.182
167.188
167.195
167.201
167.207
167.213
167.22
167.226
167.232
167.238
167.244
167.25
167.256
167.262
167.268
167.274
167.28
167.286
167.283
167.179
167.706
166.7
166.709
166.717
166.724
166.731
166.738
166.746
166.753
166.76
166.767
166.775
166.782
166.789
166.796
166.803
166.811
166.818
166.825
166.832
166.839
166.846
166.854
166.861
166.868
166.875
166.882
166.889
166.896
166.903
166.91
166.917
166.924
166.931
166.938
166.945
166.952
166.959
166.965
166.972
166.979
166.986
166.993
166.999
167.006
167.013
167.019
167.026
167.033
167.039
167.046
167.052
167.059
167.065
167.072
167.078
167.085
167.091
167.097
167.104
167.11
167.116
167.123
167.129
167.135
167.141
167.147
167.153
167.159
167.165
167.171
167.177
167.183
167.189
167.195
167.201
167.206
167.212
167.218
167.223
167.229
167.234
167.24
167.245
167.251
167.256
167.262
167.267
167.265
167.184
167.607
166.7
166.709
166.716
166.724
166.731
166.738
166.745
166.753
166.76
166.767
166.774
166.781
166.789
166.796
166.803
166.81
166.817
166.825
166.832
166.839
166.846
166.853
166.86
166.867
166.874
166.881
166.888
166.895
166.902
166.909
166.916
166.923
166.93
166.937
166.944
166.951
166.957
166.964
166.971
166.978
166.984
166.991
166.998
167.004
167.011
167.017
167.024
167.03
167.037
167.043
167.049
167.056
167.062
167.068
167.074
167.081
167.087
167.093
167.099
167.105
167.112
167.118
167.124
167.13
167.136
167.142
167.147
167.153
167.159
167.165
167.171
167.176
167.182
167.188
167.194
167.199
167.205
167.211
167.216
167.222
167.227
167.233
167.238
167.244
167.249
167.255
167.261
167.259
167.187
167.58
166.7
166.709
166.716
166.724
166.731
166.738
166.745
166.752
166.76
166.767
166.774
166.781
166.789
166.796
166.803
166.811
166.818
166.825
166.833
166.84
166.848
166.855
166.862
166.869
166.877
166.884
166.891
166.898
166.906
166.913
166.92
166.927
166.935
166.942
166.949
166.956
166.963
166.971
166.978
166.985
166.992
166.999
167.006
167.013
167.02
167.027
167.034
167.041
167.048
167.055
167.061
167.068
167.075
167.081
167.088
167.095
167.101
167.108
167.114
167.121
167.127
167.133
167.14
167.146
167.152
167.158
167.164
167.171
167.177
167.182
167.188
167.194
167.2
167.206
167.212
167.218
167.223
167.229
167.235
167.241
167.246
167.252
167.258
167.263
167.269
167.275
167.282
167.277
167.186
167.695
166.7
166.709
166.716
166.723
166.731
166.738
166.745
166.752
166.759
166.767
166.775
166.783
166.791
166.8
166.808
166.817
166.825
166.833
166.841
166.85
166.858
166.866
166.874
166.882
166.889
166.897
166.905
166.913
166.92
166.928
166.936
166.944
166.951
166.959
166.967
166.975
166.982
166.99
166.998
167.006
167.014
167.022
167.029
167.037
167.045
167.053
167.061
167.069
167.076
167.084
167.092
167.1
167.108
167.115
167.123
167.131
167.139
167.146
167.154
167.161
167.169
167.176
167.184
167.191
167.198
167.206
167.213
167.22
167.227
167.234
167.241
167.248
167.255
167.262
167.269
167.276
167.282
167.289
167.295
167.301
167.307
167.313
167.318
167.324
167.33
167.337
167.345
167.332
167.18
168.02
166.7
166.709
166.716
166.723
166.731
166.738
166.745
166.752
166.759
166.766
166.774
166.783
166.791
166.799
166.808
166.816
166.824
166.833
166.841
166.849
166.857
166.865
166.873
166.881
166.889
166.897
166.905
166.912
166.92
166.928
166.936
166.943
166.951
166.959
166.966
166.974
166.982
166.99
166.997
167.005
167.013
167.021
167.029
167.037
167.045
167.053
167.061
167.069
167.077
167.086
167.094
167.102
167.111
167.119
167.128
167.137
167.146
167.155
167.164
167.173
167.182
167.192
167.201
167.211
167.22
167.23
167.24
167.249
167.259
167.269
167.279
167.289
167.299
167.309
167.319
167.329
167.338
167.348
167.357
167.366
167.374
167.381
167.389
167.396
167.403
167.411
167.421
167.402
167.164
168.417
166.7
166.709
166.716
166.723
166.73
166.737
166.745
166.752
166.759
166.766
166.774
166.782
166.791
166.799
166.807
166.816
166.824
166.832
166.84
166.848
166.856
166.864
166.872
166.88
166.888
166.896
166.903
166.911
166.918
166.926
166.933
166.941
166.948
166.956
166.963
166.971
166.978
166.986
166.993
167.001
167.008
167.016
167.023
167.031
167.038
167.046
167.053
167.061
167.068
167.076
167.083
167.091
167.099
167.106
167.114
167.122
167.129
167.137
167.145
167.153
167.161
167.169
167.177
167.185
167.193
167.201
167.21
167.218
167.226
167.235
167.244
167.253
167.262
167.271
167.28
167.29
167.299
167.309
167.319
167.328
167.337
167.346
167.356
167.365
167.375
167.385
167.397
167.386
167.147
168.357
166.7
166.709
166.716
166.723
166.73
166.737
166.744
166.752
166.759
166.766
166.774
166.782
166.79
166.799
166.807
166.815
166.823
166.831
166.84
166.848
166.856
166.864
166.871
166.879
166.887
166.895
166.902
166.91
166.917
166.924
166.932
166.939
166.947
166.954
166.961
166.969
166.976
166.984
166.991
166.998
167.006
167.013
167.021
167.028
167.035
167.043
167.05
167.057
167.065
167.072
167.079
167.087
167.094
167.101
167.109
167.116
167.123
167.13
167.138
167.145
167.152
167.159
167.166
167.173
167.18
167.187
167.194
167.201
167.208
167.214
167.221
167.228
167.234
167.241
167.248
167.254
167.261
167.267
167.273
167.279
167.285
167.29
167.296
167.302
167.308
167.314
167.322
167.316
167.161
167.932
166.7
166.709
166.716
166.723
166.73
166.737
166.744
166.751
166.758
166.766
166.774
166.782
166.79
166.798
166.806
166.815
166.823
166.831
166.839
166.847
166.855
166.863
166.87
166.878
166.886
166.893
166.901
166.908
166.916
166.923
166.931
166.938
166.945
166.953
166.96
166.967
166.975
166.982
166.989
166.997
167.004
167.011
167.019
167.026
167.033
167.041
167.048
167.055
167.063
167.07
167.078
167.085
167.092
167.1
167.107
167.114
167.122
167.129
167.136
167.143
167.151
167.158
167.165
167.172
167.18
167.187
167.194
167.201
167.208
167.216
167.223
167.23
167.237
167.244
167.251
167.258
167.265
167.272
167.279
167.285
167.291
167.297
167.303
167.309
167.315
167.322
167.33
167.323
167.159
167.981
166.7
166.709
166.716
166.723
166.73
166.737
166.744
166.751
166.758
166.765
166.773
166.781
166.79
166.798
166.806
166.814
166.822
166.83
166.838
166.846
166.854
166.862
166.87
166.877
166.885
166.892
166.9
166.907
166.915
166.922
166.929
166.937
166.944
166.951
166.959
166.966
166.973
166.98
166.988
166.995
167.002
167.01
167.017
167.025
167.032
167.039
167.047
167.054
167.061
167.069
167.076
167.084
167.091
167.099
167.106
167.114
167.121
167.129
167.136
167.144
167.151
167.159
167.166
167.174
167.182
167.19
167.197
167.205
167.213
167.221
167.229
167.237
167.245
167.253
167.262
167.27
167.278
167.287
167.296
167.304
167.312
167.32
167.329
167.337
167.346
167.356
167.367
167.359
167.144
168.224
166.7
166.709
166.716
166.723
166.73
166.737
166.744
166.751
166.758
166.765
166.773
166.781
166.789
166.797
166.805
166.813
166.821
166.829
166.837
166.845
166.853
166.861
166.869
166.876
166.884
166.891
166.899
166.906
166.913
166.921
166.928
166.935
166.943
166.95
166.957
166.964
166.972
166.979
166.986
166.993
167.001
167.008
167.015
167.023
167.03
167.037
167.045
167.052
167.06
167.067
167.074
167.082
167.089
167.097
167.105
167.112
167.12
167.127
167.135
167.143
167.15
167.158
167.166
167.174
167.182
167.19
167.198
167.206
167.215
167.223
167.231
167.24
167.248
167.257
167.265
167.274
167.283
167.292
167.3
167.309
167.317
167.324
167.332
167.34
167.348
167.356
167.366
167.357
167.145
168.193
166.7
166.709
166.716
166.723
166.73
166.737
166.744
166.751
166.758
166.765
166.773
166.781
166.789
166.797
166.805
166.813
166.821
166.829
166.837
166.844
166.852
166.86
166.868
166.875
166.883
166.89
166.897
166.905
166.912
166.919
166.926
166.934
166.941
166.948
166.955
166.962
166.969
166.976
166.983
166.99
166.997
167.004
167.012
167.019
167.026
167.033
167.04
167.047
167.055
167.062
167.069
167.077
167.084
167.091
167.099
167.106
167.113
167.121
167.128
167.136
167.143
167.15
167.158
167.165
167.173
167.18
167.188
167.195
167.203
167.21
167.218
167.225
167.232
167.24
167.247
167.254
167.261
167.268
167.274
167.28
167.286
167.291
167.296
167.3
167.305
167.31
167.316
167.309
167.156
167.899
166.7
166.709
166.716
166.723
166.73
166.737
166.744
166.75
166.757
166.764
166.772
166.78
166.788
166.796
166.804
166.812
166.82
166.828
166.836
166.844
166.851
166.859
166.866
166.874
166.881
166.888
166.895
166.902
166.909
166.916
166.923
166.93
166.937
166.944
166.95
166.957
166.964
166.971
166.977
166.984
166.99
166.997
167.004
167.011
167.018
167.024
167.031
167.038
167.045
167.052
167.059
167.066
167.073
167.08
167.087
167.093
167.1
167.107
167.114
167.121
167.127
167.134
167.141
167.148
167.154
167.161
167.167
167.173
167.18
167.186
167.192
167.198
167.204
167.21
167.215
167.221
167.226
167.232
167.237
167.241
167.245
167.249
167.252
167.256
167.26
167.264
167.269
167.266
167.162
167.661
166.7
166.709
166.716
166.722
166.729
166.736
166.743
166.75
166.757
166.764
166.772
166.78
166.788
166.795
166.803
166.811
166.819
166.826
166.834
166.841
166.848
166.856
166.863
166.87
166.876
166.883
166.89
166.896
166.903
166.909
166.916
166.922
166.929
166.935
166.942
166.948
166.954
166.961
166.967
166.973
166.98
166.986
166.993
166.999
167.006
167.013
167.019
167.026
167.033
167.039
167.046
167.053
167.059
167.066
167.072
167.078
167.085
167.091
167.097
167.103
167.109
167.115
167.121
167.127
167.133
167.139
167.144
167.15
167.155
167.161
167.166
167.172
167.177
167.182
167.188
167.193
167.198
167.203
167.208
167.212
167.216
167.22
167.225
167.229
167.233
167.238
167.243
167.242
167.165
167.538
166.7
166.709
166.715
166.722
166.729
166.736
166.743
166.75
166.757
166.764
166.771
166.777
166.784
166.791
166.798
166.805
166.812
166.818
166.825
166.832
166.839
166.845
166.852
166.859
166.865
166.872
166.879
166.885
166.892
166.898
166.905
166.911
166.917
166.924
166.93
166.937
166.943
166.949
166.956
166.962
166.968
166.975
166.981
166.987
166.993
167
167.006
167.012
167.018
167.025
167.031
167.037
167.043
167.049
167.055
167.061
167.067
167.073
167.079
167.085
167.091
167.097
167.102
167.108
167.114
167.12
167.125
167.131
167.137
167.142
167.148
167.153
167.159
167.164
167.17
167.175
167.18
167.186
167.191
167.196
167.202
167.207
167.212
167.217
167.222
167.227
167.233
167.233
167.165
167.5
166.7
166.709
166.715
166.722
166.729
166.736
166.743
166.75
166.757
166.763
166.77
166.777
166.784
166.791
166.797
166.804
166.811
166.818
166.824
166.831
166.838
166.844
166.851
166.858
166.864
166.871
166.877
166.884
166.89
166.897
166.903
166.91
166.916
166.923
166.929
166.935
166.942
166.948
166.954
166.961
166.967
166.973
166.979
166.986
166.992
166.998
167.004
167.01
167.017
167.023
167.029
167.035
167.041
167.047
167.053
167.059
167.065
167.071
167.077
167.083
167.089
167.095
167.101
167.107
167.113
167.119
167.124
167.13
167.136
167.142
167.147
167.153
167.159
167.164
167.17
167.176
167.181
167.187
167.192
167.198
167.203
167.209
167.214
167.22
167.225
167.231
167.237
167.236
167.164
167.527
166.7
166.709
166.715
166.722
166.729
166.736
166.743
166.75
166.756
166.763
166.77
166.777
166.783
166.79
166.797
166.804
166.81
166.817
166.824
166.831
166.837
166.844
166.85
166.857
166.864
166.87
166.877
166.883
166.89
166.896
166.903
166.909
166.915
166.922
166.928
166.935
166.941
166.947
166.954
166.96
166.966
166.973
166.979
166.985
166.991
166.998
167.004
167.01
167.017
167.023
167.029
167.036
167.042
167.048
167.055
167.061
167.067
167.074
167.08
167.086
167.092
167.099
167.105
167.111
167.117
167.124
167.13
167.136
167.142
167.148
167.154
167.161
167.167
167.173
167.179
167.185
167.191
167.197
167.203
167.209
167.215
167.22
167.226
167.232
167.238
167.244
167.25
167.249
167.159
167.608
166.7
166.708
166.715
166.722
166.729
166.736
166.742
166.749
166.756
166.763
166.77
166.776
166.783
166.79
166.797
166.803
166.81
166.817
166.823
166.83
166.837
166.843
166.85
166.856
166.863
166.869
166.876
166.882
166.889
166.895
166.902
166.908
166.915
166.921
166.927
166.934
166.94
166.946
166.952
166.958
166.964
166.97
166.978
166.984
166.991
166.997
167.003
167.01
167.016
167.023
167.029
167.036
167.042
167.049
167.056
167.062
167.069
167.075
167.082
167.088
167.094
167.101
167.107
167.114
167.12
167.126
167.133
167.139
167.146
167.152
167.158
167.164
167.171
167.177
167.183
167.189
167.195
167.202
167.208
167.214
167.22
167.226
167.232
167.238
167.244
167.25
167.257
167.255
167.158
167.651
166.7
166.708
166.715
166.722
166.729
166.736
166.742
166.749
166.756
166.763
166.769
166.776
166.783
166.789
166.796
166.803
166.809
166.816
166.823
166.829
166.836
166.842
166.849
166.856
166.862
166.869
166.875
166.881
166.888
166.894
166.901
166.907
166.914
166.92
166.926
166.933
166.939
166.945
166.947
166.953
166.959
166.965
166.977
166.984
166.99
166.997
167.003
167.01
167.017
167.023
167.03
167.036
167.043
167.049
167.056
167.062
167.069
167.075
167.082
167.088
167.094
167.101
167.107
167.113
167.12
167.126
167.132
167.138
167.145
167.151
167.157
167.163
167.169
167.176
167.182
167.188
167.194
167.2
167.206
167.213
167.219
167.225
167.231
167.237
167.243
167.249
167.256
167.253
167.16
167.649
166.7
166.708
166.715
166.722
166.729
166.735
166.742
166.749
166.756
166.762
166.769
166.776
166.782
166.789
166.796
166.802
166.809
166.816
166.822
166.829
166.835
166.842
166.848
166.855
166.861
166.868
166.874
166.881
166.887
166.893
166.9
166.906
166.912
166.919
166.925
166.932
166.938
166.944
166.942
166.95
166.958
166.963
166.977
166.983
166.99
166.996
167.002
167.009
167.015
167.022
167.028
167.034
167.041
167.047
167.053
167.06
167.066
167.072
167.078
167.085
167.091
167.097
167.103
167.11
167.116
167.122
167.128
167.135
167.141
167.147
167.153
167.159
167.166
167.172
167.178
167.184
167.19
167.196
167.202
167.209
167.215
167.221
167.227
167.233
167.239
167.245
167.252
167.248
167.161
167.631
166.7
166.708
166.715
166.722
166.728
166.735
166.742
166.749
166.755
166.762
166.769
166.775
166.782
166.789
166.795
166.802
166.808
166.815
166.822
166.828
166.835
166.841
166.848
166.854
166.86
166.867
166.873
166.88
166.886
166.892
166.899
166.905
166.912
166.918
166.924
166.93
166.935
166.947
166.979
166.992
167.005
167.011
166.973
166.98
166.987
166.993
166.999
167.005
167.011
167.017
167.024
167.03
167.036
167.042
167.049
167.055
167.061
167.068
167.074
167.08
167.086
167.093
167.099
167.105
167.112
167.118
167.124
167.13
167.137
167.143
167.149
167.155
167.161
167.168
167.174
167.18
167.186
167.192
167.198
167.204
167.211
167.217
167.223
167.229
167.235
167.241
167.248
167.244
167.163
167.614
166.7
166.708
166.715
166.722
166.728
166.735
166.742
166.748
166.755
166.762
166.768
166.775
166.782
166.788
166.795
166.801
166.808
166.814
166.821
166.827
166.834
166.84
166.847
166.853
166.86
166.866
166.873
166.879
166.885
166.892
166.898
166.904
166.911
166.917
166.923
166.929
166.93
166.959
167.202
167.227
167.254
167.266
166.961
166.972
166.98
166.986
166.992
166.999
167.005
167.011
167.018
167.024
167.031
167.037
167.044
167.05
167.056
167.063
167.069
167.076
167.082
167.088
167.095
167.101
167.108
167.114
167.12
167.126
167.133
167.139
167.145
167.151
167.158
167.164
167.17
167.176
167.182
167.188
167.195
167.201
167.207
167.213
167.219
167.225
167.231
167.238
167.244
167.24
167.164
167.6
166.7
166.708
166.715
166.721
166.728
166.735
166.742
166.748
166.755
166.762
166.768
166.775
166.781
166.788
166.794
166.801
166.808
166.814
166.82
166.827
166.833
166.84
166.846
166.853
166.859
166.866
166.872
166.878
166.885
166.891
166.897
166.904
166.91
166.916
166.923
166.929
166.932
166.975
167.605
167.625
167.644
167.653
166.953
166.965
166.969
166.976
166.983
166.99
166.997
167.004
167.011
167.018
167.025
167.032
167.038
167.045
167.052
167.058
167.065
167.071
167.078
167.084
167.091
167.097
167.104
167.11
167.116
167.123
167.129
167.135
167.142
167.148
167.154
167.16
167.167
167.173
167.179
167.185
167.192
167.198
167.204
167.21
167.216
167.222
167.229
167.235
167.242
167.237
167.165
167.593
166.7
166.708
166.715
166.721
166.728
166.735
166.741
166.748
166.755
166.761
166.768
166.775
166.781
166.788
166.794
166.801
166.807
166.814
166.82
166.827
166.833
166.839
166.846
166.852
166.859
166.865
166.871
166.878
166.884
166.89
166.897
166.903
166.91
166.916
166.922
166.935
166.975
166.988
167.39
167.288
167.205
167.185
166.993
166.988
166.955
166.965
166.974
166.982
166.99
166.997
167.005
167.012
167.019
167.026
167.033
167.04
167.047
167.054
167.061
167.067
167.074
167.081
167.087
167.094
167.101
167.107
167.114
167.12
167.126
167.133
167.139
167.146
167.152
167.158
167.165
167.171
167.177
167.184
167.19
167.196
167.203
167.209
167.216
167.222
167.228
167.235
167.242
167.237
167.167
167.6
166.7
166.708
166.715
166.721
166.728
166.735
166.741
166.748
166.755
166.761
166.768
166.774
166.781
166.787
166.794
166.8
166.807
166.813
166.82
166.826
166.833
166.839
166.846
166.852
166.858
166.865
166.871
166.878
166.884
166.89
166.897
166.903
166.91
166.916
166.922
166.935
166.991
167.001
167.354
167.207
167.085
167.048
167.006
167.001
166.95
166.961
166.969
166.978
166.986
166.993
167.001
167.009
167.016
167.023
167.031
167.038
167.045
167.052
167.059
167.066
167.073
167.079
167.086
167.093
167.1
167.106
167.113
167.12
167.126
167.133
167.139
167.146
167.152
167.159
167.166
167.172
167.179
167.185
167.192
167.198
167.205
167.212
167.218
167.225
167.232
167.239
167.246
167.239
167.17
167.626
166.7
166.708
166.715
166.721
166.728
166.735
166.741
166.748
166.755
166.761
166.768
166.774
166.781
166.787
166.794
166.8
166.807
166.813
166.82
166.826
166.833
166.839
166.845
166.852
166.858
166.865
166.871
166.878
166.884
166.89
166.897
166.903
166.91
166.918
166.931
166.876
166.569
166.59
166.945
166.848
166.767
166.727
166.525
166.598
166.97
166.964
166.972
166.98
166.988
166.995
167.003
167.01
167.018
167.025
167.032
167.04
167.047
167.054
167.061
167.068
167.075
167.082
167.089
167.096
167.103
167.11
167.117
167.123
167.13
167.137
167.144
167.15
167.157
167.164
167.17
167.177
167.184
167.191
167.198
167.205
167.212
167.219
167.226
167.233
167.24
167.248
167.256
167.247
167.174
167.681
166.7
166.708
166.715
166.721
166.728
166.735
166.741
166.748
166.754
166.761
166.768
166.774
166.781
166.787
166.794
166.8
166.807
166.813
166.82
166.826
166.832
166.839
166.845
166.852
166.858
166.865
166.871
166.877
166.884
166.89
166.897
166.903
166.91
166.922
166.954
166.755
165.417
165.437
165.522
165.515
165.5
165.448
165.228
165.432
167.018
166.976
166.984
166.991
166.998
167.005
167.012
167.019
167.026
167.033
167.04
167.047
167.055
167.062
167.069
167.076
167.083
167.09
167.097
167.105
167.112
167.119
167.126
167.133
167.14
167.147
167.154
167.161
167.168
167.175
167.182
167.189
167.196
167.203
167.21
167.218
167.225
167.233
167.24
167.248
167.256
167.264
167.273
167.26
167.178
167.772
166.7
166.708
166.715
166.721
166.728
166.735
166.741
166.748
166.754
166.761
166.768
166.774
166.781
166.787
166.794
166.8
166.807
166.813
166.82
166.826
166.832
166.839
166.845
166.852
166.858
166.865
166.87
166.876
166.882
166.889
166.897
166.904
166.911
166.915
166.928
166.956
166.137
166.186
167.056
167.082
167.101
167.053
166.114
166.005
166.99
167.001
167.008
167.014
167.02
167.026
167.032
167.038
167.045
167.051
167.057
167.064
167.071
167.078
167.085
167.092
167.099
167.106
167.114
167.121
167.128
167.136
167.143
167.15
167.158
167.165
167.172
167.179
167.187
167.194
167.201
167.209
167.216
167.224
167.232
167.239
167.247
167.255
167.263
167.272
167.28
167.289
167.299
167.281
167.182
167.902
166.7
166.708
166.715
166.721
166.728
166.735
166.741
166.748
166.754
166.761
166.768
166.774
166.781
166.787
166.794
166.8
166.807
166.813
166.82
166.826
166.833
166.839
166.845
166.852
166.858
166.864
166.867
166.873
166.88
166.886
166.898
166.905
166.913
166.885
166.752
168.001
175.014
174.977
176.006
176.252
176.482
176.772
176.3
174.931
166.755
167.052
167.053
167.057
167.06
167.063
167.067
167.07
167.074
167.079
167.084
167.09
167.096
167.103
167.11
167.117
167.124
167.132
167.139
167.147
167.154
167.162
167.17
167.177
167.185
167.192
167.2
167.208
167.215
167.223
167.231
167.238
167.246
167.254
167.262
167.27
167.278
167.287
167.295
167.304
167.312
167.322
167.331
167.31
167.184
168.06
166.7
166.708
166.715
166.721
166.728
166.735
166.741
166.748
166.754
166.761
166.768
166.774
166.781
166.787
166.794
166.8
166.807
166.813
166.82
166.826
166.833
166.839
166.846
166.852
166.858
166.865
166.87
166.879
166.887
166.892
166.899
166.906
166.915
166.876
166.596
168.743
192.587
192.065
180.831
180.834
181.052
182.125
195.459
194.181
166.647
167.132
167.123
167.118
167.115
167.112
167.11
167.11
167.111
167.114
167.118
167.122
167.128
167.134
167.141
167.147
167.154
167.162
167.169
167.176
167.183
167.191
167.198
167.205
167.212
167.219
167.227
167.234
167.241
167.248
167.256
167.263
167.271
167.278
167.286
167.293
167.301
167.309
167.317
167.325
167.333
167.341
167.349
167.326
167.187
168.118
166.7
166.708
166.715
166.721
166.728
166.735
166.741
166.748
166.754
166.761
166.768
166.774
166.781
166.787
166.794
166.8
166.807
166.813
166.82
166.826
166.833
166.839
166.846
166.852
166.858
166.871
166.909
166.925
166.942
166.948
166.898
166.906
166.913
166.926
166.908
166.963
167.24
167.173
167.158
167.147
167.139
167.134
167.133
167.132
167.134
167.136
167.139
167.144
167.149
167.154
167.159
167.164
167.168
167.173
167.177
167.181
167.186
167.191
167.196
167.201
167.207
167.212
167.218
167.224
167.23
167.237
167.243
167.25
167.257
167.263
167.27
167.276
167.283
167.289
167.296
167.302
167.308
167.314
167.32
167.3
167.19
167.946
166.7
166.708
166.715
166.721
166.728
166.735
166.741
166.748
166.754
166.761
166.768
166.774
166.781
166.787
166.794
166.8
166.807
166.813
166.82
166.826
166.833
166.839
166.846
166.852
166.856
166.88
167.062
167.095
167.128
167.151
166.892
166.901
166.909
166.92
166.898
167.077
167.152
167.139
167.13
167.126
167.123
167.122
167.122
167.123
167.124
167.126
167.127
167.13
167.132
167.135
167.139
167.142
167.146
167.149
167.154
167.158
167.163
167.168
167.173
167.178
167.184
167.189
167.195
167.201
167.207
167.213
167.219
167.225
167.232
167.238
167.244
167.25
167.256
167.262
167.267
167.273
167.278
167.284
167.29
167.274
167.186
167.798
166.7
166.708
166.715
166.721
166.728
166.735
166.741
166.748
166.754
166.761
166.768
166.774
166.781
166.787
166.794
166.8
166.807
166.813
166.82
166.826
166.833
166.839
166.846
166.852
166.855
166.879
167.274
167.295
167.32
167.359
166.88
166.888
166.898
166.918
166.909
167.006
167.134
167.118
167.109
167.104
167.101
167.099
167.098
167.099
167.1
167.101
167.103
167.106
167.109
167.112
167.115
167.119
167.123
167.127
167.132
167.136
167.141
167.146
167.152
167.157
167.163
167.168
167.174
167.18
167.186
167.192
167.198
167.204
167.21
167.216
167.222
167.227
167.233
167.239
167.244
167.25
167.255
167.261
167.267
167.255
167.181
167.69
166.7
166.708
166.715
166.721
166.728
166.735
166.741
166.748
166.755
166.761
166.768
166.774
166.781
166.787
166.794
166.8
166.807
166.813
166.82
166.826
166.833
166.84
166.846
166.853
166.861
166.85
166.977
166.829
166.704
166.691
166.875
166.868
166.883
166.909
166.912
166.951
167.121
167.105
167.096
167.09
167.085
167.082
167.08
167.08
167.081
167.082
167.084
167.087
167.09
167.093
167.097
167.1
167.105
167.109
167.114
167.118
167.124
167.129
167.134
167.14
167.145
167.151
167.157
167.162
167.168
167.174
167.18
167.186
167.192
167.198
167.204
167.209
167.215
167.221
167.226
167.232
167.238
167.243
167.249
167.241
167.175
167.608
166.7
166.708
166.715
166.721
166.728
166.735
166.741
166.748
166.755
166.761
166.768
166.774
166.781
166.787
166.794
166.8
166.807
166.813
166.82
166.826
166.833
166.84
166.846
166.853
166.862
166.847
166.888
166.674
166.489
166.445
166.868
166.86
166.875
166.901
166.91
166.904
167.118
167.099
167.088
167.08
167.074
167.069
167.067
167.066
167.066
167.067
167.069
167.072
167.075
167.078
167.082
167.086
167.09
167.094
167.099
167.104
167.109
167.115
167.12
167.126
167.131
167.137
167.143
167.149
167.155
167.16
167.166
167.172
167.178
167.184
167.19
167.196
167.201
167.207
167.213
167.219
167.224
167.23
167.236
167.231
167.17
167.549
166.7
166.708
166.715
166.721
166.728
166.735
166.741
166.748
166.755
166.761
166.768
166.774
166.781
166.787
166.794
166.8
166.807
166.813
166.82
166.826
166.833
166.84
166.846
166.853
166.86
166.858
166.915
166.782
166.668
166.637
166.865
166.865
166.876
166.898
166.904
166.888
167.12
167.097
167.083
167.071
167.062
167.057
167.053
167.052
167.052
167.054
167.056
167.059
167.062
167.066
167.07
167.074