/*--------------------------------*- C++ -*----------------------------------*\
| =========                 |                                                 |
| \\      /  F ield         | OpenFOAM: The Open Source CFD Toolbox           |
|  \\    /   O peration     | Version:  v2012                                 |
|   \\  /    A nd           | Website:  www.openfoam.com                      |
|    \\/     M anipulation  |                                                 |
\*---------------------------------------------------------------------------*/
FoamFile
{
    version     2.0;
    format      ascii;
    class       volScalarField;
    location    "550/air";
    object      k;
}
// * * * * * * * * * * * * * * * * * * * * * * * * * * * * * * * * * * * * * //

dimensions      [0 2 -2 0 0 0 0];


internalField   nonuniform List<scalar> 
287104
(
0.0834013
0.0717041
0.0633095
0.0569922
0.052082
0.0481712
0.0449947
0.042372
0.0401765
0.0383166
0.0367246
0.0353496
0.0341525
0.0331028
0.0321766
0.0313544
0.0306208
0.029963
0.0293706
0.0288348
0.0283485
0.0279055
0.0275005
0.0271292
0.0267877
0.0264729
0.0261817
0.0259119
0.0256611
0.0254275
0.0252094
0.0250054
0.0248139
0.0246339
0.0244643
0.024304
0.0241522
0.024008
0.0238708
0.0237397
0.0236143
0.023494
0.0233781
0.0232664
0.0231583
0.0230535
0.0229517
0.0228526
0.022756
0.0226616
0.0225692
0.0224788
0.0223902
0.0223034
0.0222182
0.0221345
0.0220524
0.0219719
0.0218928
0.0218152
0.0217391
0.0216645
0.0215912
0.0215195
0.0214491
0.0213801
0.0213125
0.0212462
0.0211811
0.0211173
0.0210546
0.0209929
0.0209322
0.0208723
0.0208131
0.0207544
0.020696
0.0206378
0.0205794
0.0205206
0.0204609
0.0203997
0.0203365
0.0202702
0.0201993
0.0201212
0.0200327
0.0199224
0.0197935
0.0194959
0.0833979
0.0716976
0.0633006
0.0569813
0.0520697
0.0481578
0.0449803
0.0423569
0.0401608
0.0383004
0.0367081
0.0353329
0.0341358
0.0330862
0.0321601
0.0313381
0.0306048
0.0299474
0.0293553
0.02882
0.028334
0.0278914
0.0274868
0.027116
0.026775
0.0264606
0.02617
0.0259007
0.0256506
0.0254178
0.0252005
0.0249973
0.0248068
0.0246279
0.0244594
0.0243003
0.0241498
0.0240071
0.0238713
0.0237417
0.0236178
0.023499
0.0233848
0.0232746
0.023168
0.0230647
0.0229643
0.0228666
0.0227712
0.0226779
0.0225867
0.0224972
0.0224095
0.0223233
0.0222387
0.0221556
0.0220739
0.0219936
0.0219148
0.0218373
0.0217612
0.0216864
0.0216131
0.0215411
0.0214704
0.0214011
0.0213331
0.0212664
0.0212008
0.0211365
0.0210733
0.021011
0.0209497
0.0208892
0.0208293
0.02077
0.0207109
0.0206519
0.0205927
0.0205329
0.0204722
0.02041
0.0203457
0.0202782
0.0202062
0.0201271
0.0200379
0.0199272
0.0197982
0.0195042
0.0833965
0.0716948
0.0632967
0.0569766
0.0520641
0.0481515
0.0449733
0.0423494
0.0401527
0.038292
0.0366994
0.035324
0.0341268
0.0330773
0.0321513
0.0313295
0.0305963
0.0299391
0.0293473
0.0288122
0.0283265
0.0278842
0.0274799
0.0271094
0.0267687
0.0264547
0.0261646
0.0258958
0.0256463
0.025414
0.0251974
0.024995
0.0248054
0.0246274
0.02446
0.024302
0.0241527
0.0240112
0.0238767
0.0237486
0.0236261
0.0235088
0.023396
0.0232873
0.0231823
0.0230805
0.0229816
0.0228853
0.0227914
0.0226996
0.0226097
0.0225217
0.0224353
0.0223505
0.0222673
0.0221854
0.0221051
0.0220261
0.0219485
0.0218724
0.0217976
0.0217242
0.0216522
0.0215816
0.0215123
0.0214444
0.0213779
0.0213126
0.0212486
0.0211857
0.021124
0.0210633
0.0210036
0.0209446
0.0208864
0.0208286
0.020771
0.0207135
0.0206558
0.0205975
0.0205381
0.0204772
0.0204141
0.0203478
0.020277
0.0201992
0.0201115
0.0200029
0.0198764
0.0195896
0.0833952
0.0716918
0.0632922
0.0569707
0.0520569
0.0481431
0.0449638
0.0423387
0.0401412
0.0382796
0.0366865
0.0353108
0.0341134
0.0330638
0.0321378
0.0313161
0.0305831
0.029926
0.0293343
0.0287993
0.0283137
0.0278714
0.0274672
0.0270968
0.0267563
0.0264425
0.0261526
0.0258841
0.0256349
0.0254032
0.0251872
0.0249854
0.0247966
0.0246196
0.0244531
0.0242963
0.0241482
0.024008
0.0238749
0.0237483
0.0236273
0.0235115
0.0234002
0.023293
0.0231895
0.0230891
0.0229916
0.0228966
0.0228039
0.0227132
0.0226244
0.0225372
0.0224517
0.0223676
0.022285
0.0222037
0.0221237
0.0220451
0.0219679
0.0218919
0.0218173
0.021744
0.021672
0.0216014
0.0215321
0.0214641
0.0213973
0.0213318
0.0212675
0.0212043
0.0211422
0.021081
0.0210207
0.020961
0.0209019
0.0208432
0.0207845
0.0207257
0.0206664
0.0206063
0.0205448
0.0204814
0.0204155
0.0203463
0.0202723
0.0201913
0.0201004
0.0199889
0.0198598
0.0195721
0.0833939
0.0716892
0.0632884
0.0569657
0.0520508
0.0481359
0.0449555
0.0423294
0.0401308
0.0382684
0.0366746
0.0352985
0.0341009
0.0330513
0.0321254
0.0313039
0.0305711
0.0299142
0.0293227
0.0287879
0.0283025
0.0278603
0.0274563
0.0270861
0.0267457
0.0264322
0.0261426
0.0258745
0.0256258
0.0253946
0.0251793
0.0249784
0.0247906
0.0246146
0.0244494
0.024294
0.0241474
0.0240088
0.0238774
0.0237525
0.0236334
0.0235194
0.02341
0.0233047
0.023203
0.0231044
0.0230087
0.0229154
0.0228243
0.0227352
0.0226478
0.0225621
0.0224779
0.0223951
0.0223136
0.0222335
0.0221547
0.0220771
0.0220009
0.0219259
0.0218523
0.0217799
0.0217089
0.0216392
0.0215708
0.0215037
0.0214378
0.0213732
0.0213097
0.0212474
0.021186
0.0211256
0.021066
0.0210071
0.0209486
0.0208904
0.0208323
0.0207738
0.0207148
0.0206546
0.020593
0.0205293
0.020463
0.0203932
0.0203188
0.0202377
0.0201474
0.0200375
0.0199112
0.0196305
0.0833927
0.0716865
0.0632843
0.0569602
0.0520439
0.0481276
0.0449458
0.0423183
0.0401184
0.038255
0.0366605
0.0352843
0.0340869
0.0330376
0.0321121
0.0312909
0.0305584
0.0299016
0.0293102
0.0287754
0.02829
0.0278478
0.0274438
0.0270735
0.0267332
0.0264198
0.0261305
0.0258628
0.0256146
0.0253842
0.0251698
0.02497
0.0247835
0.024609
0.0244456
0.0242921
0.0241477
0.0240114
0.0238825
0.0237603
0.023644
0.0235329
0.0234266
0.0233243
0.0232256
0.0231301
0.0230374
0.0229472
0.0228591
0.022773
0.0226886
0.0226058
0.0225244
0.0224445
0.0223659
0.0222887
0.0222127
0.0221381
0.0220649
0.021993
0.0219225
0.0218534
0.0217857
0.0217195
0.0216547
0.0215914
0.0215295
0.021469
0.0214098
0.021352
0.0212953
0.0212398
0.0211854
0.0211318
0.021079
0.0210267
0.0209748
0.0209228
0.0208705
0.0208174
0.020763
0.0207069
0.0206487
0.0205878
0.0205234
0.0204539
0.0203771
0.0202844
0.0201784
0.0199331
0.0833915
0.0716839
0.0632803
0.0569548
0.052037
0.048119
0.0449354
0.0423059
0.0401039
0.0382384
0.0366424
0.0352654
0.0340678
0.0330187
0.0320935
0.0312728
0.0305407
0.0298844
0.0292933
0.0287587
0.0282734
0.0278314
0.0274275
0.0270574
0.0267174
0.0264044
0.0261156
0.0258487
0.0256016
0.0253725
0.0251598
0.0249619
0.0247777
0.024606
0.0244456
0.0242955
0.0241548
0.0240226
0.023898
0.0237803
0.0236688
0.0235627
0.0234614
0.023364
0.02327
0.0231791
0.0230911
0.0230055
0.0229221
0.0228407
0.0227611
0.022683
0.0226065
0.0225313
0.0224575
0.0223851
0.0223141
0.0222444
0.0221762
0.0221094
0.0220441
0.0219804
0.0219183
0.0218578
0.0217989
0.0217418
0.0216863
0.0216325
0.0215805
0.0215301
0.0214813
0.0214342
0.0213886
0.0213445
0.0213017
0.0212601
0.0212194
0.0211794
0.0211397
0.0210997
0.0210589
0.0210168
0.0209733
0.0209283
0.0208813
0.0208315
0.0207783
0.0207167
0.0206555
0.020479
0.0833903
0.0716812
0.0632762
0.0569491
0.0520296
0.0481098
0.0449241
0.0422923
0.040088
0.0382205
0.0366238
0.0352474
0.034051
0.033003
0.0320788
0.0312586
0.0305266
0.0298698
0.029278
0.0287423
0.0282557
0.0278123
0.027407
0.0270357
0.0266947
0.026381
0.026092
0.0258253
0.0255789
0.0253511
0.0251403
0.024945
0.0247634
0.0245946
0.0244375
0.0242911
0.0241544
0.0240264
0.0239063
0.023793
0.0236859
0.0235841
0.0234869
0.0233936
0.0233037
0.0232167
0.0231322
0.0230499
0.0229695
0.0228908
0.0228137
0.0227379
0.0226637
0.0225909
0.0225195
0.0224495
0.022381
0.0223141
0.0222486
0.0221848
0.0221226
0.022062
0.0220031
0.0219459
0.0218904
0.0218365
0.0217842
0.0217336
0.0216846
0.021637
0.021591
0.0215463
0.021503
0.0214608
0.0214197
0.0213795
0.0213399
0.0213005
0.021261
0.0212205
0.0211783
0.0211341
0.0210882
0.0210408
0.0209916
0.0209402
0.020887
0.0208303
0.0207852
0.0206947
0.0833891
0.0716785
0.0632719
0.0569431
0.0520216
0.0480991
0.04491
0.0422737
0.0400631
0.038188
0.0365955
0.0352358
0.0340612
0.0330336
0.0321242
0.0313115
0.0305795
0.0299165
0.0293133
0.0287628
0.0282594
0.0277984
0.0273759
0.0269884
0.026633
0.026307
0.0260077
0.025733
0.0254808
0.025249
0.0250358
0.0248396
0.0246588
0.0244922
0.0243383
0.0241959
0.0240637
0.0239405
0.0238249
0.0237157
0.0236118
0.0235125
0.0234168
0.0233243
0.0232344
0.0231467
0.023061
0.0229774
0.0228956
0.0228155
0.0227372
0.0226605
0.0225853
0.0225117
0.0224395
0.0223688
0.0222997
0.0222322
0.0221663
0.0221021
0.0220397
0.0219789
0.0219199
0.0218627
0.0218072
0.0217534
0.0217014
0.0216512
0.0216026
0.0215558
0.0215107
0.0214672
0.0214254
0.0213851
0.0213463
0.0213089
0.0212726
0.0212373
0.0212023
0.0211661
0.021127
0.0210861
0.0210447
0.0210029
0.0209605
0.0209167
0.0208715
0.0208233
0.0207846
0.0207181
0.0833879
0.0716759
0.0632677
0.0569372
0.0520136
0.0480886
0.0448962
0.0422559
0.0400394
0.0381604
0.0376086
0.0373406
0.0369286
0.0362982
0.0354908
0.0345749
0.0336122
0.0326487
0.0317156
0.0308327
0.0300113
0.0292567
0.0285704
0.0279509
0.0273952
0.0268991
0.0264573
0.0260637
0.0257115
0.0253939
0.0251039
0.0248336
0.0245971
0.0244004
0.0242338
0.0240899
0.0239629
0.0238481
0.0237425
0.0236436
0.0235495
0.0234586
0.0233701
0.0232831
0.0231999
0.023122
0.0230493
0.0229815
0.0229179
0.0228577
0.0228005
0.0227457
0.022693
0.0226421
0.0225929
0.0225453
0.0224993
0.022455
0.0224123
0.0223711
0.0223314
0.0222933
0.0222567
0.0222215
0.0221879
0.0221557
0.0221249
0.0220956
0.0220678
0.0220414
0.0220165
0.0219932
0.0219714
0.0219512
0.0219327
0.0219157
0.0219001
0.0218857
0.021872
0.021856
0.0217444
0.0216126
0.0214856
0.0213707
0.0212685
0.0211769
0.0210937
0.021014
0.0209471
0.0208522
0.0833868
0.0716732
0.0632634
0.0569308
0.0520045
0.0480756
0.0448767
0.0422246
0.0399765
0.0382128
0.118879
0.142484
0.142312
0.133947
0.123717
0.11392
0.105275
0.0979088
0.0917447
0.0866489
0.082483
0.0791201
0.0764472
0.0743637
0.0727784
0.071608
0.0707754
0.0702096
0.0698462
0.069628
0.0695065
0.0694414
0.0694135
0.0694219
0.0694614
0.0695196
0.069585
0.0696491
0.0697074
0.0697587
0.0698042
0.0698476
0.069887
0.0699221
0.0699519
0.0699799
0.070014
0.0700621
0.0701317
0.0702292
0.070359
0.0705237
0.0707257
0.0709667
0.0712475
0.0715676
0.0719272
0.0723274
0.0727694
0.0732536
0.07378
0.0743485
0.0749582
0.0756084
0.076298
0.0770256
0.0777896
0.0785883
0.0794195
0.0802812
0.0811709
0.0820853
0.0830218
0.083978
0.0849525
0.0859463
0.0869697
0.0880432
0.089294
0.0904514
0.0578861
0.0420367
0.0334924
0.0285504
0.025554
0.0236782
0.0224772
0.0216882
0.0211689
0.0207488
0.0833856
0.0716707
0.0632593
0.056925
0.0519968
0.0480654
0.0448633
0.0422073
0.0399537
0.0381847
0.118872
0.142529
0.142295
0.133789
0.123383
0.113399
0.104568
0.0970257
0.0906988
0.0854561
0.0811611
0.0776885
0.0749269
0.0727771
0.0711489
0.069959
0.0691296
0.0685877
0.068266
0.0681033
0.0680458
0.0680478
0.0680717
0.0680888
0.0680781
0.0680248
0.0679189
0.0677536
0.0675255
0.0672337
0.0668788
0.0664631
0.0659975
0.0654892
0.0649433
0.0643666
0.0637664
0.0631496
0.0625219
0.0618874
0.0612507
0.0606161
0.059988
0.0593706
0.058768
0.0581844
0.0576246
0.0570932
0.0565949
0.0561357
0.0557212
0.055357
0.0550494
0.0548051
0.0546308
0.054533
0.0545179
0.0545907
0.0547558
0.0550167
0.0553755
0.055833
0.0563895
0.0570439
0.0577957
0.0586437
0.0595925
0.0606452
0.0619007
0.0631031
0.043981
0.0339284
0.0281609
0.0246486
0.0224276
0.0209909
0.0200488
0.0194104
0.0189643
0.0185082
0.0833845
0.0716682
0.0632553
0.0569194
0.0519891
0.0480552
0.0448497
0.0421893
0.0399294
0.0381522
0.118643
0.142293
0.142113
0.133662
0.123296
0.113333
0.10451
0.0969641
0.0906296
0.0853793
0.0810808
0.0776127
0.0748668
0.0727463
0.071163
0.0700345
0.0692831
0.0688346
0.06862
0.068576
0.0686464
0.0687834
0.0689475
0.0691078
0.0692417
0.0693336
0.0693733
0.0693542
0.0692733
0.0691304
0.0689264
0.068664
0.068347
0.0679799
0.0675684
0.0671186
0.066637
0.06613
0.0656034
0.0650628
0.0645131
0.0639581
0.0634012
0.0628443
0.0622886
0.0617341
0.0611802
0.0606262
0.060071
0.0595128
0.058951
0.0583854
0.0578158
0.0572412
0.056661
0.056075
0.0554835
0.0548873
0.054288
0.0536877
0.0530892
0.0524958
0.0519119
0.0513425
0.0507946
0.0502761
0.0498013
0.0493806
0.0490952
0.0487359
0.0343496
0.0270391
0.0229526
0.020485
0.0188963
0.0178145
0.0170388
0.0164345
0.0159363
0.0153137
0.0833834
0.0716658
0.0632516
0.0569143
0.0519825
0.0480469
0.0448395
0.0421769
0.0399148
0.0381356
0.118564
0.142211
0.142042
0.133598
0.123231
0.113265
0.104433
0.0968788
0.0905359
0.0852787
0.0809755
0.0775056
0.0747612
0.0726463
0.0710729
0.069959
0.069227
0.0688027
0.0686169
0.0686058
0.0687129
0.0688898
0.0690969
0.0693031
0.0694855
0.0696282
0.0697199
0.0697534
0.0697243
0.0696312
0.0694744
0.0692557
0.0689789
0.0686488
0.0682721
0.0678576
0.0674143
0.0669514
0.0664775
0.0660007
0.0655278
0.0650646
0.0646331
0.0642354
0.0638677
0.063526
0.063207
0.0629085
0.0626291
0.062369
0.0621298
0.0619128
0.0617181
0.0615453
0.0613942
0.061265
0.0611572
0.0610701
0.0610024
0.0609529
0.0609201
0.0609023
0.0608978
0.0609055
0.060925
0.0609577
0.0610129
0.0611069
0.0613488
0.0617724
0.0437699
0.0349651
0.0301441
0.0272439
0.0253423
0.0239853
0.0229281
0.0220141
0.0211784
0.0203358
0.0833824
0.0716634
0.0632481
0.0569095
0.0519764
0.0480395
0.0448305
0.0421661
0.039902
0.0381205
0.118466
0.142088
0.141918
0.13348
0.123121
0.11316
0.104331
0.0967768
0.0904327
0.0851736
0.0808688
0.0773982
0.0746547
0.0725427
0.0709746
0.0698687
0.0691471
0.0687359
0.0685654
0.0685717
0.068698
0.0688959
0.0691257
0.0693563
0.0695645
0.0697337
0.0698521
0.0699109
0.0699041
0.0698285
0.0696822
0.0694656
0.0691815
0.0688344
0.068432
0.0679845
0.0675022
0.0669959
0.0664756
0.0659501
0.065427
0.0649123
0.064411
0.0639264
0.063461
0.0630161
0.0625923
0.0621897
0.0618082
0.0614597
0.0611419
0.0608501
0.0605802
0.0603293
0.0600954
0.0598776
0.0596764
0.0594936
0.0593309
0.0591894
0.0590699
0.0589741
0.0589044
0.0588636
0.0588553
0.0588852
0.0589664
0.0591189
0.0594492
0.0600005
0.0428546
0.0345158
0.0299946
0.0273159
0.0255957
0.0243984
0.0234896
0.0227179
0.0219588
0.0209454
0.0833813
0.0716612
0.0632448
0.0569052
0.0519712
0.0480332
0.0448233
0.0421579
0.0398928
0.0381101
0.118399
0.141992
0.141808
0.133364
0.122999
0.113034
0.104202
0.0966464
0.0903011
0.0850417
0.0807377
0.0772689
0.0745286
0.072421
0.0708587
0.0697597
0.0690459
0.0686433
0.0684818
0.0684976
0.0686337
0.0688418
0.0690825
0.069325
0.0695465
0.0697303
0.0698638
0.0699367
0.069941
0.0698706
0.0697205
0.0694886
0.0691762
0.0687876
0.0683317
0.0678206
0.0672673
0.0666848
0.0660853
0.065479
0.0648743
0.0642778
0.063694
0.0631259
0.0625753
0.0620427
0.0615277
0.0610296
0.0605469
0.0600782
0.0596219
0.0591761
0.058739
0.0583087
0.0578831
0.0574604
0.0570387
0.0566163
0.0561916
0.0557631
0.0553293
0.0548889
0.054441
0.053985
0.0535212
0.0530506
0.0525784
0.0521062
0.051696
0.0511531
0.0363713
0.029037
0.0250284
0.022634
0.0210671
0.0199368
0.0190391
0.0182446
0.0175042
0.0165465
0.0833803
0.0716591
0.0632417
0.0569013
0.0519666
0.0480282
0.0448179
0.0421523
0.0398872
0.0381045
0.118363
0.141929
0.14172
0.133253
0.12287
0.11289
0.104048
0.0964855
0.0901368
0.0848771
0.0805756
0.0771119
0.0743788
0.07228
0.0707273
0.069638
0.0689331
0.0685379
0.0683819
0.068401
0.0685387
0.0687474
0.0689891
0.0692343
0.0694616
0.0696552
0.0698024
0.0698915
0.0699112
0.0698508
0.0697002
0.0694527
0.069107
0.0686673
0.0681443
0.0675539
0.0669129
0.0662381
0.0655445
0.0648445
0.0641479
0.0634616
0.0627904
0.0621369
0.061502
0.0608855
0.0602861
0.0597021
0.0591315
0.0585721
0.0580217
0.0574782
0.0569394
0.0564035
0.0558688
0.0553341
0.0547984
0.0542612
0.0537224
0.0531827
0.0526433
0.0521062
0.0515747
0.0510529
0.0505471
0.0500649
0.0496193
0.0492197
0.0489417
0.0485801
0.034415
0.0273159
0.0234191
0.0211148
0.0196596
0.0186806
0.0179787
0.0174248
0.01696
0.0163527
0.0833793
0.071657
0.0632388
0.0568978
0.0519626
0.0480239
0.0448136
0.0421481
0.0398831
0.0381
0.118301
0.141812
0.141564
0.133077
0.122686
0.112707
0.103871
0.0963173
0.0899803
0.0847344
0.0804495
0.0770057
0.0742961
0.0722246
0.070702
0.0696443
0.068971
0.068606
0.0684782
0.0685239
0.0686885
0.0689268
0.069204
0.0694943
0.0697786
0.0700426
0.0702724
0.0704518
0.0705621
0.0705819
0.0704897
0.0702701
0.0699179
0.0694392
0.0688516
0.0681801
0.0674518
0.0666924
0.0659237
0.0651632
0.0644235
0.0637129
0.0630361
0.0623948
0.0617887
0.0612159
0.0606737
0.06016
0.0596728
0.0592101
0.0587702
0.0583515
0.0579532
0.0575745
0.0572156
0.0568771
0.0565603
0.0562673
0.0560006
0.0557634
0.0555595
0.0553932
0.0552697
0.0551948
0.0551759
0.0552218
0.0553472
0.0555711
0.0559971
0.0564519
0.0399611
0.0317
0.0271543
0.0244598
0.0227616
0.0216325
0.0208423
0.0202481
0.0197699
0.0192223
0.0833784
0.071655
0.0632361
0.0568948
0.0519597
0.0480215
0.0448126
0.0421496
0.0398889
0.0381118
0.118398
0.141866
0.14154
0.132982
0.122545
0.112546
0.10372
0.0962111
0.0899537
0.0848255
0.080697
0.0774465
0.0749623
0.0731401
0.0718812
0.0710915
0.0706824
0.0705723
0.0706886
0.0709696
0.0713649
0.0718352
0.0723515
0.072892
0.07344
0.0739792
0.0744894
0.0749416
0.0752983
0.0755137
0.0755416
0.0753494
0.074927
0.0742891
0.073473
0.0725295
0.0715124
0.0704721
0.0694513
0.0684829
0.0675897
0.066786
0.066078
0.0654665
0.0649476
0.0645148
0.0641636
0.0638886
0.0636825
0.063537
0.0634435
0.0633948
0.0633851
0.0634102
0.0634676
0.0635559
0.063675
0.0638257
0.064009
0.0642268
0.0644809
0.0647738
0.0651082
0.0654874
0.0659163
0.0664024
0.066962
0.0676557
0.0686588
0.0699847
0.0487247
0.0380212
0.0320127
0.0283576
0.0259969
0.0243996
0.0232755
0.0224475
0.0218033
0.0211891
0.0833774
0.0716531
0.0632335
0.0568918
0.0519567
0.048019
0.0448111
0.0421498
0.0398922
0.0381169
0.118227
0.141576
0.141294
0.132865
0.122682
0.113095
0.104851
0.0980873
0.092718
0.0885855
0.0855164
0.0833416
0.0819037
0.0810599
0.080684
0.0806672
0.0809186
0.0813646
0.0819482
0.0826266
0.0833694
0.0841562
0.0849738
0.0858139
0.086669
0.0875294
0.0883763
0.0891751
0.0898726
0.0903932
0.0906493
0.0905658
0.0900999
0.0892503
0.0880585
0.0865955
0.0849474
0.0832035
0.0814491
0.0797594
0.078197
0.0768103
0.0756325
0.0746829
0.0739667
0.0734795
0.0732479
0.0732541
0.0734478
0.073776
0.0741939
0.0746687
0.0751776
0.0757064
0.0762467
0.0767944
0.077348
0.0779076
0.0784743
0.0790496
0.0796349
0.0802321
0.0808432
0.0814705
0.0821182
0.0827935
0.0835146
0.0843153
0.0853481
0.0865104
0.0567257
0.0421289
0.0341713
0.0294902
0.0265825
0.0247024
0.0234482
0.0225864
0.021982
0.0215001
0.0833765
0.0716513
0.0632312
0.0568894
0.051955
0.0480192
0.0448159
0.0421644
0.0399368
0.0380449
0.0367428
0.0356285
0.0345078
0.0334829
0.0325376
0.0316661
0.0308651
0.0301317
0.0294624
0.0288535
0.0283011
0.0278012
0.0273497
0.0269428
0.0265768
0.026248
0.0259533
0.0256896
0.0254544
0.0252454
0.0250607
0.0248988
0.0247585
0.0246394
0.0245413
0.0244646
0.0244097
0.0243762
0.0243626
0.0243655
0.0243785
0.0243938
0.0244034
0.0244005
0.0243807
0.0243405
0.0242792
0.0241985
0.0241011
0.0239903
0.0238696
0.0237427
0.023613
0.0234837
0.0233574
0.0232363
0.0231221
0.023016
0.0229186
0.02283
0.0227499
0.0226777
0.0226127
0.0225539
0.0225007
0.0224522
0.0224078
0.0223667
0.0223284
0.0222926
0.0222588
0.0222268
0.0221964
0.0221675
0.02214
0.0221138
0.0220889
0.0220651
0.0220422
0.0220179
0.0219081
0.0217801
0.0216568
0.0215449
0.0214454
0.0213571
0.0212786
0.0212066
0.021149
0.0210644
0.0833756
0.0716494
0.0632286
0.0568865
0.051952
0.0480166
0.0448143
0.0421644
0.0399396
0.0380496
0.036432
0.0350373
0.0338234
0.0327579
0.0318156
0.0309766
0.0302253
0.0295491
0.0289379
0.0283834
0.0278789
0.0274187
0.0269983
0.0266137
0.0262618
0.0259397
0.0256453
0.0253766
0.025132
0.0249103
0.0247106
0.0245322
0.024375
0.0242392
0.0241258
0.0240363
0.0239726
0.0239355
0.023925
0.0239372
0.0239636
0.0239936
0.0240164
0.0240236
0.0240101
0.0239745
0.0239173
0.0238402
0.0237462
0.0236386
0.0235208
0.023396
0.0232673
0.0231372
0.0230077
0.0228805
0.022757
0.0226384
0.0225256
0.022419
0.0223191
0.0222258
0.0221393
0.0220593
0.0219855
0.0219176
0.0218553
0.0217981
0.0217456
0.0216975
0.0216533
0.0216128
0.0215757
0.0215416
0.0215103
0.0214816
0.0214552
0.0214307
0.0214078
0.021385
0.0213605
0.0213352
0.0213103
0.0212863
0.0212628
0.0212396
0.0212164
0.0211912
0.0211735
0.0211142
0.0833747
0.0716475
0.0632261
0.0568836
0.051949
0.0480141
0.044813
0.0421653
0.0399444
0.0380596
0.0364447
0.0350488
0.0338319
0.0327624
0.0318157
0.0309722
0.0302164
0.0295356
0.0289195
0.0283599
0.0278498
0.0273837
0.0269568
0.0265652
0.0262059
0.0258761
0.0255735
0.0252964
0.0250433
0.024813
0.0246047
0.0244181
0.0242533
0.024111
0.0239931
0.0239025
0.0238431
0.0238187
0.0238318
0.0238783
0.0239461
0.024019
0.0240809
0.0241195
0.0241285
0.0241064
0.0240543
0.0239754
0.0238739
0.0237542
0.0236218
0.0234809
0.0233347
0.0231856
0.023037
0.0228917
0.0227519
0.022619
0.0224942
0.0223781
0.0222712
0.0221736
0.0220852
0.0220057
0.0219348
0.0218721
0.021817
0.0217691
0.0217277
0.0216925
0.0216627
0.021638
0.0216179
0.0216018
0.0215893
0.0215799
0.0215731
0.0215684
0.0215649
0.0215617
0.0215578
0.0215525
0.021546
0.021538
0.0215281
0.021515
0.0214971
0.021469
0.021432
0.0213072
0.0833737
0.0716456
0.0632233
0.0568801
0.051945
0.0480096
0.0448082
0.0421603
0.039939
0.0380531
0.0364357
0.0350359
0.0338144
0.0327401
0.0317887
0.0309407
0.0301803
0.029495
0.0288744
0.0283101
0.0277952
0.0273242
0.0268922
0.0264955
0.0261309
0.0257958
0.0254879
0.0252054
0.0249468
0.024711
0.0244972
0.024305
0.0241347
0.0239875
0.023866
0.0237749
0.0237209
0.0237129
0.0237604
0.0238617
0.0239999
0.0241495
0.0242829
0.0243806
0.0244341
0.024442
0.0244072
0.0243351
0.0242323
0.0241059
0.0239656
0.0238158
0.0236614
0.0235064
0.0233544
0.0232081
0.02307
0.022942
0.0228253
0.022721
0.0226297
0.0225514
0.0224861
0.0224333
0.0223923
0.0223621
0.0223417
0.0223297
0.0223249
0.0223259
0.0223313
0.0223396
0.0223498
0.0223604
0.0223705
0.0223791
0.0223851
0.022388
0.0223867
0.0223806
0.0223688
0.0223506
0.0223256
0.0222934
0.0222534
0.0222046
0.0221456
0.0220701
0.0219796
0.0217897
0.0833728
0.0716436
0.0632204
0.0568764
0.0519407
0.0480047
0.0448027
0.0421543
0.0399325
0.0380458
0.0364268
0.0350245
0.0337995
0.0327211
0.031765
0.0309118
0.0301459
0.0294547
0.028828
0.0282574
0.0277361
0.0272585
0.0268199
0.0264166
0.0260455
0.025704
0.0253899
0.0251012
0.0248366
0.0245946
0.0243743
0.0241753
0.0239976
0.0238426
0.0237131
0.0236161
0.0235617
0.0235682
0.0236687
0.023882
0.0241923
0.0245483
0.0248863
0.0251659
0.0253705
0.0254986
0.0255568
0.0255565
0.0255101
0.0254295
0.0253373
0.0252443
0.025157
0.0250803
0.0250177
0.0249712
0.0249415
0.0249282
0.0249297
0.0249438
0.0249674
0.0249974
0.0250305
0.0250635
0.0250935
0.0251181
0.0251352
0.0251434
0.0251415
0.025129
0.0251055
0.0250713
0.0250266
0.024972
0.024908
0.0248354
0.0247549
0.0246671
0.0245728
0.0244723
0.0243659
0.0242538
0.0241362
0.0240131
0.0238843
0.0237487
0.0236048
0.0234461
0.0232736
0.0230068
0.0833719
0.0716416
0.0632174
0.0568725
0.0519357
0.0479987
0.0447956
0.0421458
0.0399223
0.0380334
0.0364116
0.0350057
0.0337765
0.0326933
0.0317321
0.0308734
0.0301017
0.0294045
0.0287715
0.0281944
0.0276663
0.0271816
0.026736
0.0263256
0.0259473
0.0255988
0.0252777
0.0249823
0.0247108
0.0244619
0.0242342
0.0240269
0.0238397
0.0236734
0.0235307
0.0234203
0.0233558
0.0233748
0.023621
0.0242391
0.0252225
0.0263757
0.0274814
0.0284454
0.0292357
0.0298586
0.0303373
0.0306994
0.030971
0.0311746
0.031322
0.0314584
0.0315757
0.0316659
0.031723
0.0317433
0.0317255
0.0316704
0.03158
0.0314578
0.0313072
0.0311321
0.0309363
0.0307232
0.030496
0.0302574
0.03001
0.0297558
0.0294969
0.0292348
0.0289709
0.0287066
0.0284429
0.0281806
0.0279207
0.0276636
0.0274099
0.0271599
0.0269138
0.0266718
0.0264335
0.0261988
0.0259674
0.0257385
0.0255114
0.0252842
0.0250549
0.024816
0.0245669
0.0242332
0.083371
0.0716396
0.0632144
0.0568684
0.0519305
0.0479922
0.0447878
0.0421364
0.0399111
0.03802
0.0363954
0.0349861
0.0337529
0.0326652
0.0316988
0.0308344
0.0300565
0.0293524
0.0287121
0.0281272
0.027591
0.0270979
0.0266436
0.0262245
0.0258376
0.0254805
0.0251512
0.0248478
0.0245684
0.0243113
0.0240749
0.0238577
0.0236583
0.0234763
0.0233119
0.0231743
0.0230776
0.0231043
0.024045
0.0266432
0.0306207
0.0348568
0.0385184
0.0413927
0.0434612
0.0448269
0.0456199
0.0459657
0.0459737
0.0457352
0.0453163
0.0447468
0.0440668
0.043309
0.0425038
0.0416761
0.0408453
0.0400254
0.0392258
0.0384522
0.037708
0.0369942
0.036311
0.0356574
0.0350322
0.0344339
0.033861
0.0333119
0.0327854
0.03228
0.0317948
0.0313286
0.0308805
0.0304498
0.0300356
0.0296373
0.0292541
0.0288858
0.0285323
0.028192
0.0278635
0.0275454
0.0272364
0.0269347
0.0266389
0.0263488
0.0260613
0.0257683
0.0254666
0.0250884
0.0833702
0.0716377
0.0632114
0.0568642
0.0519252
0.0479855
0.0447794
0.0421261
0.0398985
0.0380047
0.0363769
0.0349638
0.0337262
0.0326335
0.0316615
0.0307908
0.030006
0.0292945
0.0286461
0.0280526
0.0275071
0.0270044
0.0265402
0.026111
0.0257141
0.0253473
0.0250085
0.024696
0.0244078
0.0241421
0.0238968
0.0236699
0.023459
0.0232619
0.0230747
0.0229053
0.0227583
0.0228768
0.0276423
0.0387628
0.0520702
0.0626444
0.0689836
0.0717556
0.0719278
0.0704698
0.0681183
0.06537
0.0625287
0.0597604
0.0571362
0.0546793
0.0524177
0.0503611
0.0485022
0.0468253
0.0453106
0.0439379
0.0426883
0.0415448
0.0404929
0.0395208
0.0386189
0.0377807
0.0369988
0.0362634
0.0355682
0.0349087
0.0342815
0.033684
0.0331141
0.0325701
0.0320504
0.0315537
0.0310786
0.030624
0.0301889
0.0297722
0.0293727
0.0289894
0.028621
0.0282662
0.0279235
0.027591
0.027266
0.0269448
0.026622
0.0262856
0.0259322
0.0255189
0.0833694
0.0716359
0.0632086
0.0568603
0.0519199
0.0479788
0.044771
0.0421157
0.0398857
0.0379891
0.036358
0.034941
0.0336989
0.032601
0.0316231
0.0307458
0.0299535
0.0292337
0.0285761
0.0279725
0.0274163
0.0269022
0.0264261
0.0259848
0.0255759
0.0251974
0.0248476
0.0245247
0.0242267
0.0239515
0.023697
0.023461
0.02324
0.0230297
0.0228187
0.0226072
0.0223548
0.0229169
0.0428671
0.073597
0.097684
0.108822
0.109238
0.103601
0.095523
0.0871156
0.0793815
0.0726726
0.0670194
0.0623165
0.0584203
0.0551857
0.0524842
0.0502038
0.0482539
0.0465663
0.0450938
0.0438046
0.0426426
0.0415761
0.0405859
0.0396596
0.0387888
0.0379673
0.03719
0.0364531
0.0357532
0.0350876
0.0344539
0.03385
0.0332741
0.0327247
0.0322003
0.0316996
0.0312213
0.0307643
0.0303276
0.02991
0.0295104
0.0291277
0.0287606
0.0284075
0.0280669
0.0277364
0.0274133
0.0270931
0.0267701
0.0264309
0.0260522
0.0255972
0.0833688
0.0716344
0.0632061
0.0568567
0.051915
0.0479723
0.0447627
0.0421053
0.0398728
0.0379733
0.0363386
0.0349175
0.0336706
0.0325672
0.0315829
0.0306983
0.0298978
0.0291687
0.0285007
0.0278857
0.027317
0.0267895
0.0262994
0.0258438
0.0254207
0.0250286
0.0246661
0.0243316
0.0240231
0.0237385
0.0234763
0.0232358
0.0230155
0.022815
0.022624
0.0224428
0.022214
0.0228374
0.0447271
0.0782724
0.104348
0.115205
0.11507
0.108689
0.0996258
0.0901492
0.0813983
0.0737998
0.0674144
0.0621427
0.0578266
0.054306
0.0514349
0.0491183
0.0472034
0.0455738
0.0441537
0.0428912
0.0417505
0.0407062
0.0397406
0.0388409
0.0379977
0.037204
0.0364546
0.0357452
0.0350725
0.0344338
0.0338267
0.0332493
0.0326997
0.0321765
0.0316781
0.0312032
0.0307505
0.0303189
0.0299072
0.0295142
0.0291386
0.0287791
0.0284343
0.0281025
0.0277816
0.027469
0.0271617
0.0268548
0.0265422
0.0262097
0.0258333
0.0253554
0.0833683
0.0716332
0.0632041
0.0568536
0.0519107
0.0479665
0.0447551
0.0420956
0.0398605
0.0379579
0.0363196
0.0348943
0.0336425
0.0325332
0.0315422
0.0306498
0.0298403
0.0291009
0.0284212
0.027793
0.0272097
0.0266663
0.0261592
0.0256862
0.0252459
0.0248374
0.0244601
0.0241125
0.0237923
0.0234976
0.0232277
0.0229854
0.0227755
0.0226095
0.0224885
0.0224286
0.0223344
0.0229629
0.0440394
0.0773593
0.103791
0.115039
0.115135
0.108978
0.100122
0.0908396
0.0822466
0.0747484
0.0683913
0.0630647
0.0586206
0.0549432
0.0519251
0.049396
0.0472419
0.0453821
0.0437568
0.0423206
0.0410383
0.0398826
0.0388323
0.0378704
0.0369837
0.0361619
0.0353965
0.0346809
0.0340099
0.0333789
0.0327845
0.0322237
0.0316939
0.031193
0.0307189
0.03027
0.0298446
0.0294411
0.0290579
0.0286935
0.0283462
0.0280142
0.0276957
0.0273883
0.0270897
0.0267966
0.0265054
0.0262107
0.0259063
0.0255768
0.0251996
0.0247104
0.083368
0.0716324
0.0632025
0.0568512
0.0519071
0.0479614
0.0447483
0.0420866
0.0398489
0.0379433
0.0363014
0.0348717
0.0336148
0.0324995
0.0315013
0.0306005
0.0297812
0.0290304
0.0283376
0.0276943
0.027094
0.0265318
0.0260045
0.0255104
0.0250491
0.0246212
0.024227
0.0238653
0.0235328
0.0232275
0.0229503
0.0227111
0.0225284
0.0224445
0.0225002
0.0227705
0.0230158
0.0236674
0.0418439
0.0721063
0.0971529
0.108881
0.109936
0.10476
0.097081
0.0890819
0.0816938
0.0751917
0.069553
0.0646623
0.0603997
0.0567208
0.0535227
0.0507111
0.0482259
0.0460238
0.0440692
0.0423314
0.0407825
0.0393974
0.0381535
0.0370312
0.0360136
0.0350864
0.0342377
0.0334576
0.0327382
0.0320725
0.031455
0.0308809
0.0303462
0.0298475
0.0293814
0.0289454
0.0285366
0.0281528
0.0277913
0.02745
0.0271263
0.0268177
0.0265216
0.0262349
0.0259545
0.0256765
0.0253967
0.025109
0.0248069
0.0244729
0.0240865
0.0235667
0.0833678
0.0716319
0.0632014
0.0568493
0.0519041
0.0479571
0.0447422
0.0420785
0.0398383
0.0379297
0.0362841
0.0348502
0.033588
0.0324666
0.031461
0.0305515
0.0297217
0.0289585
0.0282509
0.0275905
0.0269703
0.0263855
0.0258334
0.0253132
0.024826
0.0243744
0.023961
0.023585
0.0232417
0.0229286
0.0226504
0.0224309
0.02232
0.0224356
0.0229409
0.0240616
0.0249869
0.0255162
0.0265167
0.0303399
0.0373758
0.0449002
0.051303
0.0564147
0.0599775
0.0620209
0.0627527
0.0624204
0.0612613
0.0594961
0.0573271
0.0549585
0.0525253
0.0501205
0.047811
0.0456391
0.0436277
0.0417849
0.0401081
0.0385884
0.0372131
0.0359676
0.0348373
0.0338085
0.032869
0.0320082
0.0312174
0.0304892
0.0298178
0.0291979
0.0286253
0.0280961
0.0276069
0.0271543
0.0267353
0.0263467
0.0259854