/*--------------------------------*- C++ -*----------------------------------*\
| =========                 |                                                 |
| \\      /  F ield         | OpenFOAM: The Open Source CFD Toolbox           |
|  \\    /   O peration     | Version:  v2012                                 |
|   \\  /    A nd           | Website:  www.openfoam.com                      |
|    \\/     M anipulation  |                                                 |
\*---------------------------------------------------------------------------*/
FoamFile
{
    version     2.0;
    format      ascii;
    class       volScalarField;
    location    "550/air";
    object      nut;
}
// * * * * * * * * * * * * * * * * * * * * * * * * * * * * * * * * * * * * * //

dimensions      [0 2 -1 0 0 0 0];


internalField   nonuniform List<scalar> 
287104
(
0.00648531
0.00601335
0.0056504
0.00536108
0.00512493
0.00492877
0.00476349
0.00462258
0.00450122
0.0043958
0.00430351
0.00422218
0.00415007
0.0040858
0.00402823
0.00397643
0.00392964
0.0038872
0.00384858
0.00381332
0.00378103
0.00375137
0.00372405
0.00369882
0.00367547
0.00365381
0.00363366
0.00361489
0.00359735
0.00358094
0.00356556
0.00355109
0.00353748
0.00352462
0.00351247
0.00350094
0.00348999
0.00347956
0.0034696
0.00346007
0.00345092
0.00344211
0.00343362
0.0034254
0.00341744
0.0034097
0.00340216
0.00339481
0.00338763
0.0033806
0.0033737
0.00336694
0.0033603
0.00335378
0.00334737
0.00334107
0.00333487
0.00332877
0.00332278
0.00331689
0.0033111
0.00330541
0.00329983
0.00329434
0.00328895
0.00328366
0.00327847
0.00327336
0.00326835
0.00326343
0.00325858
0.00325381
0.0032491
0.00324445
0.00323985
0.00323528
0.00323074
0.00322619
0.00322163
0.00321702
0.00321234
0.00320755
0.00320258
0.00319735
0.00319176
0.00318559
0.00317858
0.00316983
0.00315956
0.00313573
0.00648518
0.00601308
0.00565
0.00536057
0.00512433
0.00492808
0.00476273
0.00462175
0.00450034
0.00439487
0.00430255
0.00422119
0.00414906
0.00408477
0.0040272
0.0039754
0.00392862
0.00388619
0.00384758
0.00381234
0.00378006
0.00375042
0.00372312
0.00369792
0.0036746
0.00365296
0.00363285
0.00361411
0.00359662
0.00358026
0.00356492
0.00355052
0.00353697
0.00352419
0.00351212
0.00350068
0.00348982
0.00347949
0.00346964
0.00346021
0.00345118
0.00344248
0.00343411
0.00342601
0.00341816
0.00341053
0.0034031
0.00339585
0.00338876
0.00338182
0.00337501
0.00336832
0.00336175
0.00335528
0.00334892
0.00334266
0.00333649
0.00333042
0.00332444
0.00331856
0.00331278
0.00330709
0.00330149
0.00329599
0.00329058
0.00328527
0.00328005
0.00327492
0.00326987
0.00326491
0.00326003
0.00325521
0.00325046
0.00324577
0.00324112
0.0032365
0.0032319
0.00322729
0.00322266
0.00321799
0.00321323
0.00320835
0.0032033
0.00319799
0.00319231
0.00318606
0.003179
0.00317021
0.00315994
0.00313639
0.00648513
0.00601296
0.00564983
0.00536034
0.00512405
0.00492776
0.00476236
0.00462134
0.00449989
0.00439439
0.00430203
0.00422065
0.00414852
0.00408422
0.00402665
0.00397485
0.00392807
0.00388565
0.00384706
0.00381183
0.00377956
0.00374994
0.00372265
0.00369747
0.00367417
0.00365256
0.00363247
0.00361377
0.00359631
0.00357999
0.00356471
0.00355036
0.00353687
0.00352416
0.00351216
0.0035008
0.00349003
0.00347979
0.00347004
0.00346071
0.00345178
0.0034432
0.00343493
0.00342694
0.00341921
0.00341169
0.00340438
0.00339724
0.00339026
0.00338343
0.00337673
0.00337015
0.00336368
0.00335732
0.00335106
0.00334491
0.00333884
0.00333288
0.003327
0.00332123
0.00331555
0.00330996
0.00330448
0.00329909
0.00329379
0.00328859
0.00328349
0.00327847
0.00327355
0.00326871
0.00326395
0.00325926
0.00325463
0.00325007
0.00324555
0.00324105
0.00323658
0.0032321
0.0032276
0.00322304
0.00321839
0.00321362
0.00320867
0.00320346
0.00319789
0.00319175
0.00318482
0.00317621
0.00316616
0.00314324
0.00648507
0.00601284
0.00564963
0.00536007
0.0051237
0.00492733
0.00476185
0.00462076
0.00449924
0.00439368
0.00430128
0.00421986
0.0041477
0.00408339
0.0040258
0.00397401
0.00392722
0.0038848
0.00384621
0.00381097
0.00377871
0.00374908
0.0037218
0.00369661
0.00367331
0.00365171
0.00363164
0.00361295
0.00359552
0.00357923
0.00356398
0.00354968
0.00353624
0.0035236
0.00351167
0.00350039
0.00348971
0.00347956
0.00346991
0.00346069
0.00345187
0.0034434
0.00343524
0.00342737
0.00341974
0.00341233
0.00340512
0.00339808
0.00339119
0.00338445
0.00337782
0.00337131
0.00336491
0.0033586
0.0033524
0.00334628
0.00334025
0.00333432
0.00332847
0.00332271
0.00331705
0.00331147
0.00330599
0.0033006
0.0032953
0.0032901
0.00328498
0.00327995
0.00327501
0.00327014
0.00326535
0.00326062
0.00325596
0.00325134
0.00324676
0.00324219
0.00323763
0.00323305
0.00322843
0.00322373
0.00321891
0.00321395
0.00320878
0.00320334
0.00319751
0.00319112
0.00318394
0.0031751
0.00316484
0.00314184
0.00648503
0.00601273
0.00564946
0.00535983
0.0051234
0.00492696
0.00476141
0.00462025
0.00449867
0.00439304
0.00430058
0.00421913
0.00414694
0.00408262
0.00402503
0.00397323
0.00392645
0.00388404
0.00384545
0.00381022
0.00377796
0.00374833
0.00372106
0.00369588
0.00367259
0.003651
0.00363094
0.00361228
0.00359488
0.00357863
0.00356343
0.00354918
0.00353581
0.00352324
0.0035114
0.00350022
0.00348965
0.00347962
0.00347008
0.003461
0.00345231
0.00344398
0.00343596
0.00342822
0.00342073
0.00341346
0.00340638
0.00339947
0.00339271
0.00338608
0.00337957
0.00337317
0.00336687
0.00336067
0.00335455
0.00334852
0.00334259
0.00333673
0.00333097
0.00332529
0.0033197
0.00331421
0.0033088
0.00330349
0.00329826
0.00329313
0.00328809
0.00328313
0.00327826
0.00327346
0.00326873
0.00326407
0.00325947
0.00325491
0.00325038
0.00324587
0.00324135
0.0032368
0.0032322
0.00322751
0.0032227
0.00321772
0.00321252
0.00320704
0.00320119
0.00319481
0.00318768
0.00317898
0.00316895
0.00314655
0.00648498
0.00601261
0.00564927
0.00535957
0.00512306
0.00492653
0.0047609
0.00461964
0.00449797
0.00439226
0.00429976
0.00421828
0.00414608
0.00408177
0.00402419
0.00397241
0.00392563
0.00388322
0.00384463
0.00380939
0.00377713
0.00374749
0.00372021
0.00369502
0.00367173
0.00365014
0.0036301
0.00361146
0.00359409
0.00357789
0.00356275
0.00354858
0.0035353
0.00352284
0.00351112
0.00350008
0.00348967
0.00347981
0.00347046
0.00346157
0.00345308
0.00344497
0.00343717
0.00342966
0.0034224
0.00341536
0.00340851
0.00340183
0.0033953
0.00338889
0.00338261
0.00337643
0.00337036
0.00336437
0.00335848
0.00335268
0.00334696
0.00334134
0.00333581
0.00333037
0.00332503
0.00331979
0.00331465
0.00330961
0.00330468
0.00329984
0.00329511
0.00329048
0.00328595
0.00328151
0.00327716
0.00327289
0.00326869
0.00326456
0.00326049
0.00325645
0.00325243
0.0032484
0.00324434
0.00324022
0.00323599
0.00323162
0.00322708
0.00322232
0.00321729
0.00321184
0.00320582
0.00319853
0.00319017
0.00317074
0.00648493
0.0060125
0.00564909
0.00535932
0.00512272
0.00492609
0.00476035
0.00461897
0.00449716
0.00439131
0.00429869
0.00421715
0.00414492
0.0040806
0.00402303
0.00397126
0.0039245
0.0038821
0.00384352
0.00380829
0.00377602
0.00374638
0.0037191
0.00369392
0.00367064
0.00364908
0.00362907
0.00361048
0.00359318
0.00357707
0.00356204
0.00354801
0.0035349
0.00352262
0.00351112
0.00350033
0.00349018
0.00348061
0.00347158
0.00346302
0.00345489
0.00344715
0.00343973
0.00343258
0.00342567
0.00341898
0.00341248
0.00340615
0.00339997
0.00339393
0.00338801
0.0033822
0.00337648
0.00337087
0.00336535
0.00335992
0.00335459
0.00334935
0.00334421
0.00333917
0.00333424
0.00332942
0.00332472
0.00332013
0.00331566
0.00331131
0.00330709
0.00330299
0.00329901
0.00329516
0.00329143
0.00328782
0.00328433
0.00328094
0.00327766
0.00327446
0.00327133
0.00326824
0.00326518
0.0032621
0.00325894
0.00325569
0.00325232
0.00324884
0.00324519
0.00324133
0.00323719
0.00323239
0.00322763
0.00321383
0.00648488
0.00601239
0.00564891
0.00535905
0.00512236
0.00492562
0.00475975
0.00461823
0.00449626
0.00439028
0.0042976
0.00421607
0.0041439
0.00407964
0.00402211
0.00397036
0.00392359
0.00388116
0.00384251
0.0038072
0.00377484
0.0037451
0.00371772
0.00369244
0.00366909
0.00364747
0.00362743
0.00360884
0.00359159
0.00357556
0.00356066
0.0035468
0.00353387
0.00352181
0.00351054
0.00350001
0.00349015
0.00348089
0.00347218
0.00346395
0.00345614
0.00344871
0.00344159
0.00343475
0.00342815
0.00342175
0.00341551
0.00340943
0.00340349
0.00339765
0.00339192
0.00338629
0.00338075
0.00337532
0.00336998
0.00336475
0.00335961
0.00335458
0.00334966
0.00334486
0.00334017
0.00333559
0.00333114
0.00332681
0.0033226
0.00331851
0.00331454
0.00331068
0.00330695
0.00330333
0.00329981
0.0032964
0.00329309
0.00328986
0.00328671
0.00328362
0.00328058
0.00327756
0.00327452
0.0032714
0.00326815
0.00326474
0.0032612
0.00325753
0.00325372
0.00324974
0.00324562
0.00324121
0.0032377
0.00323065
0.00648484
0.00601228
0.00564872
0.00535877
0.00512196
0.00492508
0.004759
0.00461721
0.00449487
0.00438842
0.00429594
0.00421538
0.00414453
0.00408153
0.00402495
0.00397371
0.00392699
0.00388419
0.00384483
0.00380856
0.00377508
0.00374417
0.0037156
0.00368921
0.00366484
0.00364234
0.00362157
0.00360239
0.00358469
0.00356835
0.00355326
0.0035393
0.0035264
0.00351447
0.00350341
0.00349314
0.00348359
0.00347466
0.00346626
0.00345831
0.00345073
0.00344346
0.00343645
0.00342966
0.00342304
0.00341658
0.00341025
0.00340406
0.003398
0.00339205
0.00338623
0.00338051
0.0033749
0.00336939
0.00336398
0.00335868
0.00335349
0.00334841
0.00334345
0.00333861
0.00333389
0.00332929
0.00332482
0.00332048
0.00331627
0.00331218
0.00330822
0.00330439
0.00330069
0.00329711
0.00329366
0.00329033
0.00328713
0.00328404
0.00328106
0.00327818
0.0032754
0.00327267
0.00326998
0.00326719
0.00326418
0.00326102
0.00325782
0.00325459
0.0032513
0.00324791
0.0032444
0.00324066
0.00323765
0.00323248
0.00648479
0.00601217
0.00564853
0.00535849
0.00512157
0.00492454
0.00475827
0.00461624
0.00449354
0.00438683
0.004355
0.00433946
0.00431546
0.00427846
0.00423061
0.00417567
0.00411712
0.00405768
0.00399928
0.00394322
0.00389034
0.00384113
0.0037958
0.00375442
0.00371692
0.00368311
0.00365274
0.00362547
0.00360089
0.00357859
0.00355809
0.00353889
0.00352199
0.00350788
0.00349588
0.00348549
0.00347629
0.00346795
0.00346027
0.00345305
0.00344617
0.00343952
0.00343302
0.00342662
0.0034205
0.00341475
0.00340938
0.00340436
0.00339964
0.00339518
0.00339092
0.00338685
0.00338292
0.00337913
0.00337545
0.0033719
0.00336846
0.00336514
0.00336194
0.00335885
0.00335587
0.00335301
0.00335026
0.00334761
0.00334508
0.00334265
0.00334033
0.00333812
0.00333602
0.00333403
0.00333215
0.00333038
0.00332874
0.00332721
0.00332581
0.00332452
0.00332334
0.00332225
0.00332122
0.00332
0.00331152
0.00330147
0.00329177
0.00328296
0.0032751
0.00326804
0.00326162
0.00325546
0.00325028
0.00324291
0.00648475
0.00601206
0.00564834
0.00535819
0.00512112
0.00492388
0.00475724
0.00461453
0.00449
0.00438984
0.00774278
0.00847672
0.00847161
0.00821887
0.00789876
0.00757957
0.00728631
0.00702677
0.00680198
0.00661038
0.00644952
0.00631668
0.00620907
0.00612387
0.00605825
0.00600934
0.0059743
0.00595038
0.00593496
0.00592568
0.00592051
0.00591774
0.00591655
0.0059169
0.00591858
0.00592106
0.00592384
0.00592656
0.00592904
0.00593122
0.00593315
0.005935
0.00593667
0.00593815
0.00593942
0.00594061
0.00594205
0.00594409
0.00594703
0.00595116
0.00595664
0.0059636
0.00597212
0.00598228
0.00599409
0.00600753
0.00602259
0.00603931
0.00605773
0.00607784
0.00609963
0.00612307
0.00614812
0.00617472
0.0062028
0.00623231
0.00626314
0.00629521
0.00632841
0.00636265
0.00639781
0.00643376
0.00647036
0.00650753
0.00654518
0.00658337
0.00662246
0.00666321
0.00671039
0.00675374
0.00540291
0.00460423
0.00410977
0.00379447
0.00358985
0.00345558
0.00336682
0.00330721
0.00326739
0.00323481
0.0064847
0.00601195
0.00564816
0.00535792
0.00512074
0.00492335
0.00475653
0.00461358
0.00448873
0.00438823
0.00774255
0.00847805
0.00847109
0.00821401
0.00788809
0.00756221
0.0072618
0.00699501
0.0067631
0.00656473
0.00639763
0.00625927
0.00614702
0.00605819
0.00599004
0.00593974
0.00590443
0.00588125
0.00586744
0.00586044
0.00585797
0.00585806
0.00585909
0.00585983
0.00585937
0.00585708
0.00585252
0.00584539
0.00583555
0.00582293
0.00580754
0.00578947
0.00576916
0.0057469
0.0057229
0.00569744
0.00567081
0.00564332
0.0056152
0.00558664
0.00555782
0.00552896
0.00550024
0.00547186
0.00544401
0.00541691
0.00539078
0.00536586
0.00534238
0.00532065
0.00530095
0.00528358
0.00526886
0.00525712
0.00524873
0.00524399
0.00524323
0.00524669
0.00525458
0.00526704
0.00528414
0.00530589
0.00533222
0.00536303
0.00539822
0.00543765
0.00548143
0.0055296
0.00558653
0.00564049
0.00470899
0.004136
0.00376811
0.00352532
0.00336275
0.00325327
0.00317944
0.00312841
0.00309226
0.00305484
0.00648466
0.00601184
0.00564798
0.00535765
0.00512036
0.00492283
0.00475581
0.0046126
0.00448736
0.00438636
0.00773509
0.00847103
0.00846567
0.00821012
0.00788531
0.00756004
0.00725977
0.00699279
0.00676052
0.00656178
0.00639447
0.00625622
0.00614455
0.00605691
0.00599063
0.00594295
0.00591098
0.00589182
0.00588263
0.00588074
0.00588376
0.00588963
0.00589666
0.00590351
0.00590923
0.00591315
0.00591484
0.00591403
0.00591059
0.00590449
0.00589577
0.00588454
0.00587094
0.00585516
0.00583741
0.00581795
0.00579705
0.00577495
0.00575192
0.00572817
0.00570393
0.00567935
0.00565457
0.00562969
0.00560475
0.00557975
0.00555468
0.00552948
0.00550412
0.0054785
0.00545261
0.00542641
0.0053999
0.00537303
0.00534576
0.00531808
0.00529
0.00526154
0.00523278
0.00520381
0.00517476
0.0051458
0.00511714
0.00508904
0.00506184
0.00503596
0.00501214
0.00499093
0.00497648
0.00495822
0.00416257
0.00369318
0.00340272
0.00321464
0.00308749
0.00299781
0.00293179
0.0028793
0.00283525
0.00277924
0.00648462
0.00601174
0.00564781
0.00535741
0.00512004
0.0049224
0.00475527
0.00461192
0.00448654
0.0043854
0.00773251
0.00846858
0.00846355
0.00820813
0.00788326
0.00755774
0.00725711
0.00698971
0.00675703
0.00655791
0.00639031
0.0062519
0.00614022
0.00605274
0.00598684
0.00593974
0.00590859
0.00589045
0.0058825
0.00588202
0.00588661
0.00589419
0.00590304
0.00591184
0.00591962
0.0059257
0.0059296
0.00593103
0.00592979
0.00592584
0.00591916
0.00590984
0.00589802
0.00588389
0.00586773
0.00584989
0.00583075
0.0058107
0.0057901
0.0057693
0.00574859
0.00572824
0.00570922
0.00569162
0.00567531
0.00566011
0.00564589
0.00563254
0.00562002
0.00560834
0.00559758
0.0055878
0.00557902
0.00557121
0.00556438
0.00555853
0.00555365
0.00554971
0.00554665
0.00554441
0.00554294
0.00554215
0.00554198
0.00554235
0.00554327
0.0055448
0.00554735
0.00555167
0.0055627
0.00558192
0.00469863
0.00419952
0.00389929
0.00370701
0.00357536
0.00347837
0.00340092
0.00333251
0.00326853
0.00320279
0.00648458
0.00601164
0.00564766
0.00535719
0.00511974
0.00492202
0.00475479
0.00461133
0.00448582
0.00438454
0.00772934
0.00846492
0.00845985
0.00820453
0.00787973
0.00755424
0.00725356
0.00698603
0.00675317
0.00655387
0.0063861
0.00624756
0.00613584
0.00604843
0.0059827
0.00593591
0.00590518
0.00588759
0.00588029
0.00588056
0.00588597
0.00589445
0.00590427
0.00591411
0.00592299
0.00593019
0.00593522
0.00593772
0.00593743
0.00593422
0.00592801
0.00591879
0.00590667
0.00589184
0.00587459
0.00585535
0.00583455
0.00581263
0.00579001
0.00576708
0.00574416
0.00572153
0.00569939
0.00567791
0.00565721
0.00563734
0.00561836
0.00560026
0.00558305
0.00556729
0.00555287
0.0055396
0.0055273
0.00551584
0.00550513
0.00549514
0.0054859
0.00547747
0.00546996
0.00546341
0.00545787
0.00545341
0.00545015
0.00544822
0.00544778
0.0054491
0.00545279
0.00545975
0.00547491
0.00550016
0.00464838
0.00417171
0.00388889
0.00371113
0.00359232
0.00350722
0.00344118
0.00338406
0.00332686
0.00324891
0.00648454
0.00601155
0.00564751
0.00535699
0.00511948
0.0049217
0.00475441
0.00461088
0.0044853
0.00438394
0.00772712
0.00846207
0.0084566
0.00820093
0.00787583
0.00755004
0.00724909
0.00698132
0.00674826
0.00654879
0.00638092
0.00624234
0.00613065
0.00604335
0.00597781
0.00593127
0.00590085
0.00588362
0.0058767
0.00587738
0.00588322
0.00589213
0.00590242
0.00591278
0.00592222
0.00593004
0.00593572
0.00593882
0.005939
0.00593601
0.00592963
0.00591977
0.00590645
0.00588983
0.00587028
0.00584829
0.00582439
0.00579912
0.00577299
0.00574644
0.00571985
0.00569349
0.00566758
0.00564225
0.00561758
0.00559362
0.00557036
0.00554777
0.00552579
0.00550436
0.00548342
0.00546288
0.00544267
0.0054227
0.00540287
0.0053831
0.00536331
0.00534341
0.00532332
0.00530298
0.0052823
0.00526122
0.00523969
0.00521767
0.00519518
0.00517225
0.00514915
0.00512593
0.00510564
0.00507869
0.00428242
0.00382628
0.00355229
0.00337803
0.00325894
0.00317025
0.00309799
0.0030326
0.00297038
0.00288791
0.0064845
0.00601146
0.00564737
0.0053568
0.00511926
0.00492144
0.00475412
0.00461058
0.00448499
0.00438362
0.00772596
0.00846018
0.00845395
0.00819753
0.0078717
0.00754525
0.00724373
0.00697551
0.00674211
0.00654245
0.00637451
0.006236
0.00612449
0.00603747
0.00597227
0.0059261
0.00589603
0.00587911
0.00587241
0.00587323
0.00587914
0.00588809
0.00589843
0.00590891
0.0059186
0.00592685
0.00593311
0.0059369
0.00593773
0.00593517
0.00592877
0.00591824
0.00590349
0.00588468
0.00586223
0.00583678
0.00580903
0.00577966
0.00574932
0.00571854
0.00568774
0.00565724
0.00562724
0.00559788
0.00556921
0.00554123
0.00551389
0.00548713
0.00546085
0.00543497
0.00540938
0.005384
0.00535872
0.00533346
0.00530814
0.0052827
0.00525709
0.00523128
0.00520527
0.00517909
0.00515279
0.00512647
0.00510029
0.00507446
0.0050493
0.0050252
0.00500284
0.00498271
0.00496868
0.00495037
0.00416662
0.00371212
0.00343721
0.00326379
0.00314938
0.00307003
0.00301188
0.0029652
0.00292547
0.00287273
0.00648446
0.00601137
0.00564724
0.00535664
0.00511906
0.00492123
0.00475389
0.00461035
0.00448476
0.00438336
0.00772393
0.0084567
0.00844931
0.00819211
0.0078658
0.00753911
0.00723755
0.00696943
0.00673626
0.00653695
0.00636952
0.0062317
0.00612109
0.00603515
0.0059712
0.00592637
0.00589765
0.00588203
0.00587655
0.00587851
0.00588557
0.00589577
0.00590762
0.00592
0.0059321
0.00594331
0.00595305
0.00596065
0.00596532
0.00596616
0.00596226
0.00595297
0.00593804
0.00591768
0.00589259
0.00586379
0.00583239
0.00579946
0.00576594
0.00573259
0.00569996
0.00566844
0.00563825
0.0056095
0.0055822
0.00555627
0.00553162
0.00550817
0.00548584
0.00546455
0.00544424
0.00542484
0.00540633
0.00538867
0.00537189
0.00535602
0.00534113
0.00532733
0.00531474
0.00530352
0.00529386
0.00528597
0.00528012
0.00527658
0.00527571
0.00527794
0.00528395
0.00529467
0.00531496
0.00533655
0.00448993
0.00399901
0.00370122
0.0035128
0.00338869
0.00330359
0.00324271
0.00319618
0.00315823
0.00311423
0.00648442
0.00601129
0.00564712
0.0053565
0.00511891
0.0049211
0.00475384
0.00461043
0.00448508
0.00438404
0.00772711
0.00845831
0.00844858
0.00818921
0.00786125
0.00753372
0.00723231
0.00696558
0.00673526
0.00654046
0.00637931
0.00624952
0.00614847
0.00607328
0.00602079
0.00598763
0.00597038
0.00596573
0.00597065
0.00598251
0.00599915
0.00601889
0.00604048
0.006063
0.00608575
0.00610806
0.00612908
0.00614767
0.00616228
0.00617109
0.00617223
0.00616438
0.00614708
0.00612086
0.00608715
0.00604794
0.00600538
0.00596154
0.00591821
0.0058768
0.00583835
0.00580354
0.0057727
0.00574593
0.00572312
0.00570403
0.0056885
0.00567632
0.00566719
0.00566073
0.0056566
0.00565447
0.00565408
0.00565524
0.00565784
0.00566182
0.00566716
0.0056739
0.00568207
0.00569176
0.00570303
0.00571597
0.00573071
0.00574737
0.00576616
0.00578736
0.00581168
0.00584173
0.00588491
0.00594149
0.00495754
0.00437929
0.00401839
0.00378204
0.00362119
0.00350819
0.00342641
0.00336492
0.00331629
0.00326927
0.00648438
0.00601121
0.00564701
0.00535636
0.00511877
0.00492097
0.00475376
0.00461044
0.00448527
0.00438433
0.00772152
0.00844965
0.00844124
0.0081856
0.00786565
0.00755207
0.00727162
0.00703318
0.00683798
0.00668386
0.00656706
0.00648302
0.00642685
0.00639366
0.00637882
0.00637816
0.00638809
0.00640568
0.00642861
0.00645517
0.00648412
0.00651465
0.00654622
0.0065785
0.0066112
0.00664394
0.006676
0.00670611
0.00673229
0.00675176
0.00676132
0.00675821
0.00674081
0.00670896
0.00666401
0.00660843
0.00654524
0.0064777
0.00640905
0.00634222
0.0062798
0.00622387
0.00617597
0.00613708
0.0061076
0.00608747
0.0060779
0.00607819
0.00608626
0.00609988
0.00611716
0.00613674
0.00615765
0.00617929
0.00620133
0.00622358
0.00624599
0.00626855
0.00629131
0.00631433
0.00633765
0.00636135
0.00638551
0.0064102
0.0064356
0.00646197
0.00649001
0.00652101
0.00656079
0.00660528
0.00534871
0.00460947
0.00415137
0.00385655
0.00366149
0.00352962
0.00343884
0.00337505
0.00332958
0.00329288
0.00648435
0.00601113
0.0056469
0.00535624
0.00511868
0.00492098
0.00475401
0.00461124
0.00448777
0.00438019
0.00430458
0.0042388
0.0041716
0.00410919
0.00405077
0.00399615
0.00394529
0.00389813
0.00385459
0.00381456
0.00377787
0.00374435
0.00371383
0.0036861
0.00366097
0.00363825
0.00361777
0.00359935
0.00358284
0.0035681
0.00355502
0.00354351
0.00353352
0.00352501
0.00351799
0.00351249
0.00350854
0.00350614
0.00350516
0.00350537
0.00350631
0.00350741
0.0035081
0.00350789
0.00350647
0.00350357
0.00349916
0.00349335
0.00348631
0.00347828
0.00346952
0.00346028
0.00345082
0.00344136
0.00343209
0.00342318
0.00341475
0.00340691
0.00339969
0.00339312
0.00338716
0.00338178
0.00337693
0.00337254
0.00336856
0.00336493
0.0033616
0.00335852
0.00335566
0.00335297
0.00335043
0.00334803
0.00334575
0.00334358
0.00334151
0.00333953
0.00333765
0.00333585
0.00333412
0.00333229
0.00332396
0.00331424
0.00330484
0.00329628
0.00328866
0.00328188
0.00327583
0.00327028
0.00326583
0.00325928
0.00648431
0.00601106
0.00564679
0.00535611
0.00511854
0.00492085
0.00475393
0.00461124
0.00448793
0.00438046
0.00428633
0.00420349
0.00413003
0.00406446
0.00400557
0.0039524
0.00390418
0.00386026
0.00382013
0.00378335
0.00374958
0.0037185
0.00368988
0.00366351
0.00363921
0.00361683
0.00359624
0.00357735
0.00356007
0.00354434
0.0035301
0.00351734
0.00350605
0.00349627
0.00348808
0.00348161
0.00347699
0.0034743
0.00347354
0.00347443
0.00347634
0.00347852
0.00348017
0.00348069
0.00347972
0.00347714
0.00347298
0.00346739
0.00346054
0.00345269
0.00344408
0.00343493
0.00342547
0.00341587
0.00340629
0.00339686
0.00338769
0.00337885
0.00337041
0.00336243
0.00335493
0.00334791
0.00334139
0.00333535
0.00332977
0.00332463
0.00331991
0.00331556
0.00331158
0.00330792
0.00330456
0.00330148
0.00329864
0.00329604
0.00329365
0.00329146
0.00328944
0.00328757
0.00328581
0.00328406
0.00328218
0.00328023
0.00327831
0.00327645
0.00327464
0.00327284
0.00327105
0.0032691
0.00326773
0.00326314
0.00648428
0.00601098
0.00564667
0.00535597
0.00511839
0.00492072
0.00475386
0.00461129
0.00448821
0.00438103
0.00428708
0.00420418
0.00413055
0.00406474
0.00400558
0.00395213
0.00390361
0.00385938
0.00381892
0.00378179
0.00374762
0.00371613
0.00368705
0.00366017
0.00363534
0.00361239
0.00359121
0.0035717
0.00355378
0.00353741
0.00352253
0.00350915
0.00349728
0.00348701
0.00347848
0.0034719
0.00346759
0.00346581
0.00346677
0.00347015
0.00347507
0.00348036
0.00348484
0.00348763
0.00348829
0.00348669
0.00348292
0.0034772
0.00346983
0.00346113
0.00345147
0.00344115
0.00343043
0.00341944
0.00340847
0.0033977
0.0033873
0.00337739
0.00336806
0.00335936
0.00335132
0.00334397
0.0033373
0.00333129
0.00332593
0.00332117
0.003317
0.00331336
0.00331022
0.00330754
0.00330529
0.00330341
0.00330189
0.00330067
0.00329972
0.00329901
0.0032985
0.00329814
0.00329788
0.00329763
0.00329733
0.00329692
0.00329642
0.0032958
0.00329503
0.00329401
0.00329263
0.00329047
0.00328762
0.00327801
0.00648424
0.0060109
0.00564655
0.0053558
0.00511819
0.00492049
0.00475361
0.00461101
0.0044879
0.00438066
0.00428655
0.00420341
0.00412948
0.00406336
0.00400388
0.00395011
0.00390128
0.00385673
0.00381594
0.00377847
0.00374395
0.00371209
0.00368263
0.00365537
0.00363013
0.00360678
0.00358519
0.00356526
0.00354693
0.00353013
0.00351482
0.00350101
0.00348872
0.00347807
0.00346925
0.00346262
0.00345869
0.0034581
0.00346157
0.00346894
0.00347897
0.0034898
0.00349943
0.00350647
0.00351031
0.00351088
0.00350838
0.0035032
0.00349579
0.00348666
0.0034765
0.00346562
0.00345436
0.00344303
0.00343187
0.0034211
0.0034109
0.00340142
0.00339276
0.003385
0.00337819
0.00337234
0.00336746
0.00336352
0.00336045
0.0033582
0.00335668
0.0033558
0.00335546
0.00335556
0.00335598
0.00335663
0.00335741
0.00335823
0.00335901
0.00335966
0.00336013
0.00336035
0.00336026
0.0033598
0.00335891
0.00335753
0.00335564
0.0033532
0.00335018
0.00334649
0.00334201
0.00333629
0.00332943
0.00331499
0.00648421
0.00601081
0.00564642
0.00535563
0.00511798
0.00492024
0.00475332
0.00461068
0.00448753
0.00438024
0.00428603
0.00420272
0.00412857
0.00406218
0.00400239
0.00394827
0.00389905
0.00385409
0.00381287
0.00377495
0.00373996
0.00370762
0.00367768
0.00364992
0.0036242
0.00360036
0.00357829
0.00355789
0.00353908
0.0035218
0.003506
0.00349165
0.0034788
0.00346754
0.00345812
0.00345104
0.00344706
0.00344754
0.00345488
0.00347042
0.00349289
0.00351851
0.00354265
0.0035625
0.00357696
0.00358597
0.00359007
0.00359005
0.00358679
0.00358112
0.00357462
0.00356805
0.00356187
0.00355643
0.00355199
0.00354868
0.00354656
0.00354562
0.00354572
0.00354673
0.00354841
0.00355056
0.00355292
0.00355529
0.00355744
0.00355921
0.00356045
0.00356106
0.00356096
0.0035601
0.00355847
0.00355607
0.00355292
0.00354906
0.00354452
0.00353936
0.00353362
0.00352735
0.00352058
0.00351336
0.00350569
0.0034976
0.00348908
0.00348014
0.00347076
0.00346086
0.00345032
0.00343867
0.00342597
0.00340624
0.00648417
0.00601073
0.00564629
0.00535544
0.00511773
0.00491993
0.00475294
0.00461022
0.00448696
0.00437953
0.00428513
0.00420159
0.00412716
0.00406045
0.00400031
0.00394582
0.00389619
0.00385081
0.00380913
0.00377073
0.00373525
0.00370239
0.00367192
0.00364362
0.00361736
0.00359298
0.00357038
0.00354945
0.00353012
0.00351229
0.0034959
0.00348092
0.00346733
0.00345522
0.00344479
0.0034367
0.00343197
0.00343336
0.0034514
0.00349627
0.00356649
0.00364713
0.0037228
0.00378754
0.00383981
0.00388051
0.00391149
0.00393477
0.00395214
0.0039651
0.00397445
0.00398308
0.00399049
0.00399617
0.00399976
0.00400104
0.00399991
0.00399644
0.00399074
0.00398302
0.00397349
0.00396239
0.00394993
0.00393634
0.00392178
0.00390645
0.00389047
0.003874
0.00385714
0.00383999
0.00382265
0.00380519
0.00378769
0.00377019
0.00375276
0.00373544
0.00371826
0.00370125
0.00368442
0.00366778
0.00365132
0.00363503
0.00361889
0.00360286
0.00358687
0.00357081
0.00355452
0.00353748
0.00351962
0.00349558
0.00648413
0.00601065
0.00564615
0.00535525
0.00511748
0.0049196
0.00475252
0.00460971
0.00448633
0.00437875
0.00428418
0.00420042
0.00412572
0.0040587
0.00399821
0.00394332
0.00389326
0.00384739
0.0038052
0.00376624
0.00373017
0.00369669
0.00366557
0.00363662
0.0036097
0.00358467
0.00356143
0.00353988
0.00351992
0.00350146
0.0034844
0.00346864
0.00345412
0.00344081
0.00342874
0.00341861
0.00341147
0.00341344
0.00348224
0.00366557
0.00392969
0.00419272
0.00440746
0.00456895
0.00468173
0.00475472
0.00479658
0.00481472
0.00481513
0.00480261
0.00478054
0.00475039
0.00471414
0.00467342
0.00462976
0.00458445
0.00453853
0.00449275
0.00444766
0.00440361
0.0043608
0.00431936
0.00427932
0.00424067
0.00420336
0.00416735
0.00413256
0.00409895
0.00406645
0.00403501
0.00400458
0.00397513
0.0039466
0.00391898
0.00389222
0.0038663
0.0038412
0.00381689
0.0037934
0.00377064
0.00374854
0.003727
0.00370595
0.00368529
0.00366494
0.00364486
0.00362485
0.00360434
0.00358311
0.00355633
0.0064841
0.00601056
0.00564602
0.00535506
0.00511721
0.00491926
0.00475208
0.00460914
0.00448562
0.00437787
0.00428309
0.00419908
0.00412409
0.00405673
0.00399586
0.00394054
0.00388999
0.0038436
0.00380082
0.00376124
0.00372449
0.0036903
0.00365845
0.00362874
0.00360106
0.00357528
0.00355131
0.00352906
0.0035084
0.00348925
0.00347148
0.00345496
0.00343954
0.00342506
0.00341125
0.0033987
0.00338778
0.00339659
0.00373366
0.00442137
0.00512443
0.00562073
0.00589827
0.00601561
0.00602281
0.00596145
0.00586114
0.00574167
0.0056155
0.00548977
0.00536788
0.00525119
0.00514144
0.00503956
0.00494568
0.00485944
0.00478021
0.00470726
0.00463986
0.00457731
0.00451903
0.00446449
0.00441329
0.00436519
0.00431982
0.00427669
0.00423551
0.00419606
0.00415819
0.00412178
0.00408675
0.00405302
0.00402053
0.00398922
0.00395903
0.00392992
0.00390184
0.00387475
0.00384859
0.00382331
0.00379884
0.00377513
0.00375207
0.00372955
0.00370741
0.0036854
0.00366316
0.00363984
0.00361525
0.00358626
0.00648407
0.00601049
0.00564589
0.00535487
0.00511695
0.00491891
0.00475163
0.00460857
0.0044849
0.00437698
0.00428198
0.00419771
0.00412242
0.00405471
0.00399344
0.00393765
0.00388659
0.0038396
0.00379617
0.00375587
0.00371834
0.00368331
0.00365057
0.00361996
0.00359137
0.0035647
0.00353987
0.00351679
0.00349536
0.00347545
0.00345694
0.00343969
0.00342344
0.00340792
0.00339227
0.00337652
0.00335761
0.00339957
0.00464953
0.00609224
0.00701874
0.00740809
0.00742221
0.00722819
0.00694067
0.0066282
0.00632714
0.00605388
0.00581364
0.00560596
0.00542789
0.00527549
0.00514475
0.00503175
0.00493308
0.00484608
0.0047689
0.00470027
0.00463754
0.0045792
0.00452435
0.00447243
0.00442307
0.00437599
0.00433096
0.00428784
0.00424646
0.00420673
0.00416855
0.00413183
0.0040965
0.0040625
0.00402977
0.00399826
0.00396792
0.0039387
0.00391056
0.00388345
0.00385732
0.00383211
0.00380776
0.0037842
0.00376132
0.00373898
0.00371702
0.00369514
0.00367294
0.00364951
0.00362319
0.00359141
0.00648405
0.00601043
0.00564578
0.0053547
0.00511671
0.00491858
0.00475119
0.00460801
0.00448418
0.00437606
0.00428084
0.0041963
0.00412069
0.00405261
0.0039909
0.00393461
0.00388297
0.00383533
0.00379117
0.00375004
0.0037116
0.00367559
0.00364181
0.00361013
0.00358045
0.00355274
0.00352692
0.00350292
0.00348064
0.00345997
0.00344081
0.00342313
0.00340687
0.003392
0.00337777
0.00336422
0.00334702
0.00339367
0.00474932
0.00628276
0.00725417
0.00762221
0.00761776
0.00740353
0.00708813
0.0067426
0.006407
0.00610065
0.00583077
0.00559817
0.00540028
0.00523333
0.00509314
0.00497716
0.00487921
0.00479428
0.00471902
0.00465109
0.00458885
0.00453112
0.00447707
0.00442611
0.00437781
0.00433184