/*--------------------------------*- C++ -*----------------------------------*\
| =========                 |                                                 |
| \\      /  F ield         | OpenFOAM: The Open Source CFD Toolbox           |
|  \\    /   O peration     | Version:  v2012                                 |
|   \\  /    A nd           | Website:  www.openfoam.com                      |
|    \\/     M anipulation  |                                                 |
\*---------------------------------------------------------------------------*/
FoamFile
{
    version     2.0;
    format      ascii;
    class       volScalarField;
    location    "550/air";
    object      qin;
}
// * * * * * * * * * * * * * * * * * * * * * * * * * * * * * * * * * * * * * //

dimensions      [1 0 -3 0 0 0 0];


internalField   uniform 0;

boundaryField
{
    inlet
    {
        type            calculated;
        value           nonuniform List<scalar> 
3200
(
582.294
586.451
584.762
583.467
582.386
581.354
580.336
579.324
578.317
577.316
576.326
575.35
574.389
573.444
572.513
571.592
570.682
569.783
568.899
568.029
567.169
566.317
565.47
564.626
563.788
562.964
562.168
561.425
560.766
560.222
559.817
559.566
559.461
559.468
559.52
559.558
559.559
559.539
559.517
559.496
559.472
559.441
559.412
559.394
559.381
559.367
559.35
559.33
559.306
559.281
559.253
559.224
559.196
559.17
559.147
559.12
559.077
559.002
558.88
558.713
558.517
558.326
558.175
558.079
558.027
557.977
557.875
557.687
557.416
557.117
556.876
556.773
556.851
557.085
557.387
557.617
557.592
557.06
555.611
549.985
572.952
584.697
584.347
582.706
581.319
580.104
578.995
577.945
576.924
575.93
574.973
574.061
573.184
572.321
571.445
570.539
569.611
568.686
567.782
566.902
566.044
565.203
564.375
563.56
562.759
561.981
561.238
560.55
559.942
559.438
559.059
558.82
558.721
558.724
558.769
558.804
558.817
558.819
558.817
558.812
558.8
558.782
558.769
558.766
558.767
558.766
558.761
558.752
558.739
558.722
558.703
558.683
558.663
558.645
558.628
558.614
558.598
558.575
558.541
558.495
558.443
558.399
558.376
558.378
558.389
558.371
558.275
558.064
557.725
557.285
556.79
556.293
555.82
555.355
554.825
554.09
552.988
551.498
549.414
542.862
564.138
579.667
582.299
581.391
580.219
579.075
577.973
576.933
575.959
575.048
574.194
573.379
572.574
571.753
570.896
570.006
569.1
568.201
567.317
566.444
565.571
564.695
563.823
562.97
562.148
561.375
560.663
560.03
559.49
559.063
558.758
558.579
558.513
558.522
558.559
558.587
558.597
558.597
558.591
558.581
558.567
558.55
558.537
558.533
558.533
558.533
558.531
558.528
558.523
558.517
558.512
558.509
558.508
558.51
558.516
558.526
558.537
558.545
558.542
558.522
558.48
558.414
558.326
558.205
558.029
557.757
557.344
556.756
555.996
555.109
554.175
553.285
552.496
551.792
551.068
550.186
549.163
548.232
546.545
539.762
557.669
574.03
579.469
579.807
579.224
578.449
577.519
576.517
575.523
574.568
573.675
572.813
571.935
571.022
570.091
569.164
568.259
567.374
566.49
565.59
564.637
563.643
562.656
561.721
560.872
560.128
559.5
558.995
558.613
558.356
558.214
558.168
558.189
558.239
558.285
558.312
558.321
558.32
558.314
558.305
558.295
558.285
558.281
558.286
558.296
558.309
558.322
558.336
558.348
558.359
558.367
558.371
558.369
558.356
558.328
558.279
558.203
558.097
557.952
557.762
557.519
557.218
556.855
556.426
555.923
555.331
554.641
553.858
553.018
552.185
551.43
550.79
550.242
549.688
549.017
548.253
547.673
547.285
545.199
538.011
552.958
568.646
576.217
577.75
577.634
577.22
576.562
575.692
574.699
573.648
572.607
571.58
570.543
569.49
568.437
567.408
566.425
565.487
564.57
563.649
562.688
561.71
560.78
559.958
559.281
558.756
558.365
558.083
557.887
557.762
557.7
557.69
557.714
557.752
557.79
557.821
557.844
557.863
557.877
557.89
557.902
557.917
557.937
557.962
557.987
558.01
558.027
558.034
558.027
558.001
557.955
557.882
557.779
557.64
557.458
557.228
556.946
556.613
556.228
555.794
555.316
554.801
554.263
553.717
553.176
552.651
552.145
551.663
551.206
550.769
550.331
549.847
549.264
548.558
547.815
547.295
547.227
546.904
543.878
536.712
549.117
563.201
572.232
574.93
575.145
574.959
574.588
573.98
573.165
572.202
571.082
569.817
568.518
567.264
566.054
564.888
563.794
562.792
561.876
561.002
560.195
559.502
558.907
558.416
558.069
557.872
557.773
557.697
557.593
557.452
557.298
557.169
557.089
557.061
557.074
557.112
557.161
557.212
557.259
557.299
557.335
557.366
557.393
557.411
557.414
557.396
557.352
557.276
557.163
557.01
556.814
556.575
556.292
555.965
555.596
555.19
554.752
554.292
553.821
553.349
552.89
552.461
552.08
551.768
551.534
551.369
551.239
551.091
550.854
550.466
549.892
549.143
548.296
547.504
546.993
546.979
547.25
546.426
542.402
535.761
545.726
557.73
567.616
571.59
572.236
572.231
572.137
571.861
571.382
570.767
569.794
568.356
566.749
565.245
563.877
562.604
561.443
560.427
559.567
558.765
558.154
557.845
557.674
557.505
557.387
557.372
557.408
557.394
557.263
557.019
556.728
556.467
556.292
556.212
556.205
556.24
556.293
556.346
556.389
556.417
556.425
556.416
556.385
556.328
556.239
556.114
555.947
555.739
555.49
555.203
554.881
554.532
554.163
553.781
553.395
553.014
552.647
552.305
551.996
551.729
551.513
551.358
551.271
551.253
551.282
551.307
551.249
551.021
550.555
549.841
548.946
548.009
547.209
546.731
546.72
547.125
547.265
545.563
540.856
535.082
542.917
552.735
562.87
568.17
569.449
569.646
569.825
569.898
569.773
569.584
568.963
567.589
565.819
564.136
562.66
561.334
560.153
559.147
558.338
557.567
557.044
556.984
557.116
557.129
557.034
556.963
556.921
556.822
556.602
556.274
555.913
555.6
555.387
555.276
555.236
555.23
555.231
555.225
555.202
555.154
555.079
554.977
554.846
554.688
554.502
554.288
554.047
553.784
553.504
553.215
552.926
552.643
552.373
552.124
551.899
551.705
551.546
551.427
551.35
551.314
551.316
551.348
551.394
551.428
551.4
551.246
550.899
550.319
549.523
548.599
547.695
546.969
546.557
546.54
546.906
547.355
546.952
544.347
539.404
534.62
540.844
548.614
558.415
564.948
567.058
567.477
567.889
568.319
568.512
568.614
568.325
567.207
565.519
563.821
562.337
561.019
559.842
558.831
558.025
557.245
556.689
556.661
556.909
556.993
556.833
556.597
556.374
556.129
555.813
555.433
555.046
554.712
554.464
554.299
554.187
554.097
554.008
553.91
553.798
553.669
553.518
553.349
553.164
552.971
552.774
552.577
552.384
552.198
552.024
551.867
551.73
551.615
551.523
551.452
551.404
551.38
551.383
551.413
551.465
551.524
551.567
551.566
551.486
551.293
550.952
550.443
549.768
548.972
548.138
547.378
546.799
546.477
546.45
546.719
547.17
547.338
546.221
542.925
538.135
534.3
539.38
545.411
554.389
561.936
565.083
565.767
566.287
567.033
567.558
567.822
567.684
566.797
565.302
563.712
562.319
561.095
559.987
559
558.189
557.407
556.769
556.603
556.79
556.88
556.675
556.301
555.908
555.519
555.109
554.677
554.254
553.879
553.573
553.334
553.145
552.98
552.825
552.674
552.526
552.378
552.228
552.079
551.938
551.81
551.701
551.61
551.536
551.48
551.439
551.414
551.401
551.4
551.409
551.43
551.463
551.51
551.568
551.626
551.666
551.654
551.551
551.323
550.947
550.423
549.778
549.058
548.325
547.651
547.096
546.702
546.486
546.454
546.615
546.95
547.27
546.981
545.162
541.455
537.078
534.067
538.309
542.995
550.769
558.964
563.319
564.416
564.87
565.747
566.623
567.109
567.054
566.272
564.883
563.36
562.054
560.99
560.07
559.238
558.509
557.777
557.076
556.696
556.686
556.705
556.474
556.024
555.506
554.999
554.506
554.022
553.564
553.155
552.809
552.529
552.306
552.123
551.968
551.833
551.717
551.617
551.528
551.46
551.419
551.407
551.414
551.428
551.445
551.463
551.481
551.497
551.506
551.513
551.524
551.547
551.582
551.62
551.642
551.618
551.512
551.288
550.918
550.397
549.751
549.036
548.327
547.698
547.199
546.85
546.635
546.525
546.499
546.57
546.768
547.047
547.112
546.295
543.879
540.04
536.219
533.878
537.541
541.251
547.547
555.861
561.453
563.231
563.543
564.241
565.347
566.211
566.401
565.725
564.327
562.705
561.334
560.367
559.705
559.181
558.687
558.105
557.418
556.861
556.605
556.478
556.207
555.722
555.134
554.552
554.012
553.514
553.059
552.657
552.319
552.046
551.837
551.68
551.562
551.473
551.408
551.36
551.332
551.336
551.376
551.437
551.498
551.542
551.569
551.587
551.599
551.602
551.592
551.575
551.558
551.545
551.525
551.473
551.354
551.136
550.791
550.309
549.704
549.017
548.316
547.679
547.174
546.834
546.651
546.581
546.561
546.554
546.568
546.653
546.832
546.982
546.701
545.337
542.481
538.748
535.532
533.707
537.027
540.058
544.756
552.589
559.217
561.977
562.29
562.552
563.586
564.825
565.474
565.097
563.757
561.964
560.356
559.316
558.838
558.653
558.474
558.121
557.555
556.944
556.502
556.221
555.903
555.417
554.816
554.215
553.675
553.204
552.791
552.432
552.126
551.878
551.687
551.55
551.457
551.395
551.349
551.321
551.325
551.358
551.388
551.384
551.344
551.289
551.245
551.224
551.223
551.236
551.259
551.282
551.287
551.243
551.119
550.891
550.549
550.096
549.545
548.927
548.285
547.676
547.16
546.784
546.568
546.491
546.504
546.54
546.554
546.545
546.561
546.651
546.776
546.719
546.026
544.157
541.053
537.61
534.978
533.535
536.638
539.243
542.429
549.254
556.491
560.411
561.088
560.925
561.576
562.931
564.04
564.153
563.099
561.266
559.391
558.118
557.622
557.613
557.672
557.555
557.204
556.705
556.231
555.882
555.563
555.125
554.566
553.984
553.465
553.031
552.667
552.353
552.077
551.841
551.648
551.504
551.408
551.344
551.291
551.266
551.286
551.287
551.162
550.881
550.531
550.238
550.068
550.005
550.008
550.062
550.176
550.329
550.445
550.429
550.22
549.82
549.29
548.703
548.122
547.59
547.134
546.776
546.532
546.404
546.375
546.41
546.46
546.485
546.478
546.471
546.512
546.597
546.604
546.256
545.12
542.841
539.678
536.639
534.523
533.352
536.209
538.631
540.575
546.045
553.318
558.351
559.848
559.619
559.797
560.903
562.198
562.785
562.217
560.625
558.681
557.183
556.49
556.386
556.445
556.431
556.272
555.96
555.585
555.289
555.06
554.752
554.299
553.77
553.267
552.846
552.504
552.218
551.964
551.735
551.539
551.387
551.287
551.216
551.162
551.153
551.163
551.02
550.551
549.79
548.994
548.432
548.179
548.119
548.129
548.195
548.377
548.675
548.968
549.082
548.909
548.475
547.91
547.362
546.93
546.646
546.497
546.451
546.473
546.53
546.595
546.645
546.668
546.674
546.695
546.763
546.866
546.906
546.689
545.926
544.273
541.602
538.447
535.799
534.073
533.099
535.661
538.125
539.184
543.167
549.883
555.726
558.377
558.607
558.466
559.03
560.088
560.911
560.911
559.926
558.375
556.962
556.096
555.683
555.438
555.241
555.041
554.778
554.47
554.262
554.187
554.093
553.841
553.433
552.969
552.545
552.197
551.916
551.681
551.48
551.31
551.183
551.098
551.028
550.989
551.004
550.927
550.467
549.468
548.134
546.942
546.273
546.121
546.187
546.222
546.237
546.385
546.74
547.18
547.482
547.491
547.22
546.817
546.451
546.225
546.148
546.175
546.248
546.325
546.386
546.42
546.428
546.422
546.429
546.483
546.585
546.659
546.554
546.074
544.969
542.985
540.191
537.29
535.115
533.721
532.88
535.032
537.69
538.215
540.768
546.439
552.595
556.435
557.532
557.333
557.222
557.66
558.361
558.819
558.675
557.982
557.1
556.3
555.587
554.905
554.32
553.842
553.414
553.031
552.827
552.864
552.998
553.017
552.827
552.483
552.099
551.755
551.479
551.272
551.118
550.996
550.902
550.819
550.725
550.681
550.678
550.406
549.478
547.865
546.027
544.642
544.117
544.285
544.62
544.745
544.69
544.712
544.983
545.436
545.865
546.1
546.116
546.009
545.901
545.862
545.894
545.963
546.033
546.085
546.113
546.119
546.111
546.114
546.16
546.26
546.358
546.328
546.011
545.25
543.838
541.614
538.829
536.273
534.535
533.381
532.635
534.357
537.253
537.526
538.842
543.175
549.098
553.883
556.052
556.128
555.474
555.135
555.372
555.951
556.48
556.701
556.556
556.071
555.293
554.364
553.495
552.749
552.104
551.559
551.241
551.255
551.51
551.769
551.847
551.717
551.466
551.196
550.974
550.819
550.703
550.578
550.43
550.248
550.044
549.924
549.825
549.29
547.894
545.788
543.666
542.306
542.054
542.589
543.223
543.484
543.394
543.268
543.353
543.668
544.087
544.489
544.831
545.121
545.363
545.545
545.654
545.7
545.71
545.709
545.708
545.71
545.722
545.769
545.868
545.986
546.013
545.807
545.253
544.236
542.577
540.207
537.549
535.393
534.031
533.036
532.365
533.585
536.674
536.888
537.248
540.196
545.451
550.804
554.096
554.848
554.075
553.134
552.765
553.077
553.805
554.553
554.969
554.869
554.289
553.447
552.586
551.774
551.017
550.328
549.832
549.683
549.885
550.244
550.53
550.632
550.582
550.471
550.374
550.288
550.147
549.877
549.492
549.053
548.65
548.409
548.189
547.437
545.761
543.468
541.359
540.166
540.115
540.819
541.585
541.923
541.827
541.598
541.507
541.638
541.962
542.455
543.107
543.853
544.552
545.058
545.309
545.353
545.297
545.234
545.205
545.216
545.272
545.38
545.517
545.594
545.475
545.054
544.283
543.062
541.217
538.794
536.367
534.633
533.57
532.673
532.074
532.603
535.816
536.104
535.824
537.541
541.868
547.38
551.702
553.481
553.129
551.979
551.108
550.96
551.463
552.24
552.844
553.003
552.732
552.212
551.598
550.921
550.186
549.427
548.766
548.396
548.413
548.711
549.064
549.307
549.419
549.475
549.514
549.459
549.165
548.566
547.769
546.984
546.418
546.166
545.946
545.146
543.457
541.301
539.462
538.5
538.485
539.061
539.678
539.941
539.827
539.588
539.46
539.521
539.785
540.32
541.191
542.324
543.472
544.351
544.813
544.909
544.811
544.685
544.622
544.65
544.762
544.925
545.053
545.012
544.69
544.065
543.129
541.752
539.77
537.383
535.277
533.958
533.116
532.277
531.758
531.255
534.575
535.063
534.455
535.134
538.243
543.311
548.337
551.404
552.092
551.277
550.191
549.604
549.656
550.068
550.447
550.582
550.518
550.378
550.175
549.875
549.402
548.755
548.055
547.509
547.287
547.381
547.614
547.798
547.887
547.946
547.96
547.732
547.041
545.904
544.633
543.652
543.27
543.442
543.62
543.074
541.602
539.756
538.292
537.56
537.458
537.677
537.899
537.937
537.852
537.848
538.031
538.33
538.678
539.173
539.987
541.139
542.407
543.459
544.075
544.258
544.177
544.033
543.962
544.015
544.159
544.295
544.279
543.997
543.439
542.655
541.599
540.068
537.991
535.784
534.14
533.24
532.546
531.75
531.346
529.858
533.248
533.978
533.302
533.26
535.083
539.086
544.103
548.21
550.24
550.249
549.344
548.54
548.189
548.137
548.097
547.959
547.835
547.858
547.984
548.177
548.205
547.926
547.411
546.849
546.441
546.278
546.267
546.236
546.127
545.993
545.766
545.159
543.939
542.268
540.691
539.82
539.981
540.928
541.812
541.746
540.587
539.015
537.813
537.231
537.05
536.972
536.841
536.699
536.766
537.23
538.01
538.788
539.325
539.69
540.144
540.854
541.739
542.554
543.09
543.298
543.284
543.209
543.197
543.275
543.367
543.326
543.031
542.475
541.749
540.88
539.697
537.991
535.908
534.054
532.953
532.395
531.767
531.021
530.766
528.777
532.128
533.046
532.441
532.058
532.901
535.641
539.968
544.454
547.61
548.651
548.273
547.539
546.976
546.598
546.229
545.803
545.441
545.317
545.442
545.913
546.393
546.564
546.391
545.995
545.554
545.218
544.992
544.755
544.441
544.073
543.549
542.565
540.934
538.939
537.268
536.61
537.252
538.807
540.268
540.671
539.868
538.56
537.537
537.055
536.892
536.747
536.508
536.342
536.584
537.437
538.694
539.857
540.549
540.79
540.868
541.037
541.346
541.686
541.931
542.044
542.074
542.104
542.179
542.255
542.215
541.941
541.415
540.737
539.988
539.064
537.707
535.845
533.885
532.475
531.832
531.452
530.819
530.137
530.027
527.86
531.064
532.127
531.641
531.176
531.426
533.049
536.34
540.581
544.423
546.473
546.859
546.447
545.848
545.28
544.729
544.135
543.546
543.116
542.933
543.313
543.953
544.424
544.601
544.511
544.244
543.931
543.626
543.262
542.783
542.201
541.424
540.194
538.379
536.298
534.653
534.12
534.947
536.709
538.426
539.187
538.824
537.92
537.172
536.846
536.791
536.747
536.594
536.483
536.768
537.678
539.019
540.272
541.017
541.214
541.098
540.912
540.758
540.632
540.524
540.461
540.478
540.577
540.692
540.708
540.513
540.087
539.523
538.928
538.249
537.232
535.664
533.727
532.02
531.062
530.729
530.381
529.712
529.106
529.112
526.926
529.948
531.163
530.826
530.434
530.431
531.253
533.465
537.011
541.004
543.827
545.058
545.173
544.7
544.036
543.376
542.719
542.015
541.325
540.741
540.769
541.241
541.742
542.134
542.384
542.462
542.383
542.148
541.706
541.045
540.232
539.266
537.979
536.266
534.374
532.898
532.438
533.213
534.849
536.522
537.49
537.586
537.21
536.86
536.759
536.846
536.954
536.955
536.902
537.06
537.683
538.708
539.756
540.447
540.666
540.531
540.199
539.77
539.317
538.936
538.724
538.709
538.811
538.873
538.755
538.424
537.977
537.551
537.138
536.498
535.323
533.582
531.717
530.372
529.809
529.63
529.218
528.513
527.991
528.07
525.952
528.828
530.231
530.065
529.798
529.749
530.086
531.367
533.988
537.639
540.842
542.816
543.579
543.406
542.744
542
541.311
540.603
539.826
538.986
538.656
538.806
539.116
539.518
539.989
540.406
540.619
540.499
539.965
539.081
538.048
537.014
535.917
534.63
533.243
532.145
531.807
532.431
533.743
535.143
536.11
536.524
536.612
536.649
536.761
536.952
537.162
537.287
537.273
537.251
537.46
537.996
538.687
539.249
539.5
539.415
539.048
538.492
537.882
537.393
537.148
537.135
537.192
537.121
536.827
536.393
535.998
535.719
535.381
534.628
533.243
531.442
529.823
528.901
528.645
528.504
528.002
527.294
526.866
526.984
525.025
527.809
529.425
529.429
529.255
529.224
529.3
529.883
531.564
534.531
537.682
540.143
541.562
541.86
541.365
540.602
539.89
539.235
538.537
537.683
537.181
537.067
537.109
537.331
537.785
538.319
538.657
538.544
537.878
536.812
535.696
534.819
534.191
533.619
532.986
532.435
532.277
532.704
533.579
534.536
535.275
535.738
536.043
536.292
536.515
536.727
536.948
537.123
537.15
537.038
536.961
537.101
537.46
537.868
538.117
538.076
537.724
537.151
536.544
536.108
535.94
535.958
535.946
535.723
535.283
534.796
534.433
534.147
533.639
532.588
530.986
529.263
528.01
527.501
527.454
527.293
526.732
526.08
525.769
525.925
524.2
526.928
528.749
528.889
528.734
528.693
528.64
528.775
529.67
531.813
534.555
537.175
539.146
540.051
539.945
539.311
538.612
538.012
537.458
536.758
536.288
536.067
535.886
535.825
536.016
536.349
536.523
536.246
535.437
534.333
533.372
532.903
532.936
533.185
533.349
533.352
533.359
533.562
533.971
534.428
534.796
535.069
535.314
535.55
535.746
535.905
536.068
536.229
536.304
536.236
536.105
536.074
536.229
536.501
536.714
536.702
536.405
535.91
535.411
535.098
535.017
535.036
534.944
534.622
534.14
533.67
533.278
532.789
531.896
530.452
528.697
527.167
526.304
526.117
526.168
525.958
525.388
524.851
524.685
524.914
523.459
526.133
528.121
528.353
528.147
528.048
527.939
527.852
528.203
529.574
531.703
534.174
536.505
538.053
538.528
538.208
537.59
537.008
536.542
536.015
535.675
535.479
535.174
534.825
534.615
534.519
534.311
533.764
532.865
531.892
531.28
531.331
531.996
532.915
533.677
534.08
534.197
534.225
534.281
534.348
534.378
534.384
534.417
534.488
534.564
534.631
534.718
534.84
534.955
534.997
534.966
534.941
535.011
535.178
535.338
535.352
535.146
534.78
534.409
534.174
534.09
534.038
533.873
533.554
533.163
532.771
532.293
531.485
530.149
528.383
526.615
525.35
524.818
524.81
524.847
524.559
524.006
523.61
523.592
523.935
522.75
525.352
527.456
527.745
527.456
527.278
527.162
527.024
527.087
527.86
529.336
531.429
533.87
535.95
537.065
537.184
536.709
536.097
535.607
535.161
534.941
534.83
534.496
533.93
533.327
532.761
532.14
531.359
530.469
529.733
529.495
529.948
530.977
532.209
533.24
533.851
534.079
534.1
534.06
533.987
533.857
533.68
533.509
533.388
533.322
533.304
533.334
533.424
533.557
533.682
533.753
533.774
533.802
533.88
533.979
534.008
533.894
533.643
533.341
533.082
532.891
532.724
532.535
532.326
532.109
531.803
531.195
530.065
528.402
526.522
524.922
523.97
523.68
523.72
523.651
523.253
522.708
522.428
522.522
522.976
522.047
524.554
526.727
527.061
526.7
526.455
526.362
526.281
526.255
526.644
527.548
529.138
531.418
533.769
535.389
535.934
535.629
534.969
534.38
533.931
533.786
533.775
533.479
532.793
531.906
530.988
530.089
529.215
528.441
527.949
527.947
528.519
529.532
530.691
531.7
532.407
532.834
533.089
533.249
533.305
533.222
533.005
532.726
532.471
532.298
532.219
532.223
532.298
532.426
532.563
532.648
532.654
532.615
532.596
532.617
532.629
532.553
532.342
532.022
531.661
531.335
531.095
530.969
530.939
530.893
530.606
529.823
528.442
526.658
524.91
523.639
523.024
522.908
522.922
522.714
522.197
521.637
521.419
521.56
522.062
521.364
523.751
525.96
526.35
525.954
525.669
525.613
525.625
525.628
525.821
526.294
527.347
529.219
531.484
533.31
534.138
533.997
533.338
532.685
532.234
532.159
532.255
532.034
531.312
530.273
529.175
528.183
527.371
526.78
526.471
526.513
526.921
527.616
528.452
529.298
530.093
530.828
531.5
532.055
532.404
532.494
532.344
532.053
531.745
531.517
531.406
531.401
531.471
531.577
531.667
531.683
531.601
531.456
531.32
531.236
531.174
531.048
530.783
530.378
529.917
529.532
529.339
529.372
529.527
529.564
529.181
528.186
526.654
524.941
523.504
522.642
522.352
522.374
522.354
522.033
521.429
520.857
520.658
520.784
521.241
520.729
522.978
525.202
525.668
525.277
524.978
524.952
525.043
525.112
525.233
525.421
525.97
527.259
529.094
530.77
531.674
531.684
531.147
530.579
530.231
530.27
530.48
530.345
529.635
528.545
527.404
526.457
525.797
525.398
525.195
525.149
525.257
525.535
526.007
526.696
527.604
528.673
529.774
530.727
531.376
531.658
531.618
531.381
531.089
530.856
530.733
530.72
530.781
530.856
530.879
530.795
530.596
530.328
530.064
529.847
529.649
529.389
529.003
528.506
528.019
527.707
527.689
527.93
528.216
528.211
527.632
526.424
524.841
523.323
522.257
521.78
521.752
521.877
521.842
521.466
520.84
520.291
520.106
520.195
520.537
520.158
522.252
524.481
525.042
524.686
524.384
524.367
524.496
524.617
524.726
524.742
524.863
525.503
526.683
527.934
528.74
528.91
528.65
528.366
528.263
528.473
528.792
528.727
528.049
526.969
525.865
525.02
524.517
524.263
524.109
523.952
523.805
523.771
523.997
524.599
525.597
526.88
528.237
529.42
530.247
530.667
530.744
530.604
530.387
530.195
530.083
530.062
530.102
530.142
530.103
529.932
529.629
529.245
528.85
528.477
528.103
527.672
527.158
526.624
526.217
526.095
526.315
526.738
527.05
526.898
526.087
524.725
523.189
521.919
521.184
520.982
521.108
521.278
521.23
520.844
520.253
519.778
519.635
519.704
519.922
519.64
521.57
523.799
524.466
524.16
523.854
523.824
523.95
524.084
524.189
524.107
523.902
523.945
524.423
525.14
525.768
526.126
526.272
526.428
526.673
527.081
527.481
527.455
526.816
525.79
524.766
524.027
523.633
523.459
523.322
523.113
522.861
522.715
522.86
523.426
524.415
525.691
527.029
528.193
529.03
529.511
529.697
529.691
529.598
529.493
529.421
529.404
529.426
529.434
529.35
529.116
528.729
528.237
527.702
527.163
526.614
526.04
525.465
524.989
524.755
524.868
525.29
525.787
526.006
525.646
524.646
523.244
521.854
520.84
520.344
520.28
520.437
520.573
520.477
520.079
519.546
519.173
519.103
519.186
519.325
519.15
520.914
523.138
523.914
523.664
523.349
523.289
523.381
523.49
523.573
523.43
523.009
522.605
522.504
522.748
523.216
523.778
524.375
525.019
525.633
526.214
526.65
526.636
526.051
525.123
524.218
523.579
523.245
523.092
522.96
522.768
522.558
522.465
522.64
523.165
524.014
525.064
526.135
527.067
527.774
528.246
528.522
528.662
528.724
528.743
528.749
528.766
528.795
528.793
528.685
528.404
527.936
527.323
526.633
525.929
525.245
524.613
524.09
523.775
523.766
524.079
524.586
525.005
525.021
524.448
523.355
522.046
520.889
520.124
519.782
519.745
519.835
519.862
519.663
519.218
518.722
518.441
518.446
518.562
518.683
518.669
520.271
522.489
523.371
523.179
522.85
522.751
522.796
522.853
522.889
522.704
522.175
521.517
521.055
520.985
521.357
522.106
523.094
524.164
525.087
525.789
526.223
526.21
525.702
524.92
524.171
523.641
523.344
523.18
523.046
522.904
522.801
522.823
523.045
523.487
524.1
524.799
525.478
526.077
526.582
526.995
527.319
527.577
527.786
527.943
528.059
528.156
528.238
528.266
528.16
527.841
527.279
526.518
525.653
524.795
524.039
523.455
523.102
523.029
523.244
523.667
524.106
524.301
524.041
523.286
522.208
521.106
520.239
519.712
519.475
519.411
519.39
519.267
518.922
518.387
517.885
517.655
517.707
517.846
517.986
518.166
519.617
521.82
522.805
522.671
522.327
522.184
522.174
522.165
522.138
521.923
521.375
520.649
520.054
519.848
520.176
521.037
522.269
523.616
524.742
525.517
525.942
525.948
525.55
524.95
524.388
523.982
523.722
523.54
523.39
523.281
523.254
523.349
523.571
523.888
524.246
524.602
524.917
525.208
525.515
525.834
526.144
526.449
526.748
527.018
527.25
527.452
527.623
527.713
527.633
527.287
526.636
525.729
524.705
523.74
522.988
522.542
522.431
522.616
522.998
523.409
523.643
523.517
522.964
522.086
521.112
520.281
519.721
519.418
519.276
519.196
519.082
518.819
518.327
517.69
517.158
516.936
516.992
517.125
517.278
517.727
519.057
521.249
522.319
522.236
521.881
521.704
521.652
521.589
521.504
521.274
520.76
520.078
519.497
519.27
519.578
520.472
521.81
523.3
524.541
525.359
525.779
525.812
525.519
525.089
524.701
524.42
524.208
524.019
523.85
523.741
523.733
523.833
524.006
524.194
524.348
524.456
524.512
524.586
524.746
524.972
525.221
525.502
525.827
526.172
526.514
526.844
527.138
527.325
527.295
526.932
526.191
525.139
523.964
522.909
522.187
521.904
522.039
522.46
522.955
523.29
523.269
522.812
522.001
521.05
520.211
519.642
519.351
519.236
519.182
519.11
518.941
518.573
517.959
517.228
516.651
516.406
516.433
516.533
516.676
516.973
518.137
520.277
521.472
521.484
521.111
520.864
520.73
520.573
520.394
520.139
519.723
519.228
518.835
518.696
518.941
519.661
520.818
522.207
523.455
524.346
524.877
525.068
524.981
524.771
524.58
524.437
524.289
524.092
523.862
523.651
523.514
523.465
523.478
523.509
523.529
523.532
523.521
523.555
523.652
523.754
523.842
523.967
524.176
524.469
524.819
525.182
525.506
525.718
525.713
525.385
524.689
523.699
522.617
521.707
521.188
521.144
521.488
521.993
522.374
522.388
521.929
521.075
520.056
519.149
518.549
518.298
518.301
518.42
518.55
518.613
518.511
518.137
517.491
516.761
516.214
515.975
515.953
515.987
516.069
)
;
    }
    outlet
    {
        type            calculated;
        value           nonuniform List<scalar> 
3200
(
620.308
620.325
616.28
613.434
610.795
607.828
604.286
600.374
597.436
596.084
596.431
598.515
600.136
595.356
593.531
595.477
593.914
589.871
586.256
583.868
582.411
581.63
581.561
580.435
578.3
576.057
574.183
572.686
571.529
570.744
570.412
570.61
571.401
572.845
575.157
577.478
575.8
573.818
572.33
571.197
570.421
569.989
569.831
569.821
569.797
569.64
569.356
569.016
568.647
568.286
568.024
568.004
568.43
569.573
571.704
574.376
575.657
575.988
576.153
576.25
576.277
576.261
576.23
576.211
576.223
576.279
576.378
576.494
576.569
576.549
576.423
576.203
575.939
575.721
575.635
575.741
576.026
576.482
577.403
577.71
601.392
613.918
612.495
609.93
607.403
604.628
601.453
598.079
595.514
594.284
594.482
596.093
597.274
593.685
591.87
592.873
591.573
588.153
584.81
582.444
580.956
580.052
579.681
578.554
576.596
574.481
572.653
571.182
570.069
569.346
569.076
569.31
570.082
571.397
573.354
575.2
574.004
572.247
570.784
569.648
568.864
568.403
568.195
568.121
568.037
567.84
567.531
567.171
566.793
566.445
566.216
566.239
566.691
567.788
569.708
572.037
573.283
573.689
573.856
573.934
573.946
573.918
573.875
573.845
573.849
573.901
573.995
574.102
574.165
574.136
574.008
573.807
573.595
573.451
573.411
573.408
573.31
573.141
572.532
567.135
586.89
605.993
608.516
607.203
605.237
602.789
599.916
596.889
594.472
593.163
593.035
594.069
594.774
592.076
590.371
590.614
589.488
586.704
583.716
581.384
579.851
578.814
578.176
577.047
575.298
573.382
571.676
570.291
569.25
568.576
568.3
568.451
569.08
570.195
571.775
573.227
572.498
571.102
569.769
568.673
567.88
567.377
567.106
566.966
566.832
566.614
566.315
565.987
565.668
565.396
565.237
565.296
565.725
566.715
568.391
570.393
571.591
572.096
572.323
572.428
572.455
572.432
572.385
572.341
572.325
572.352
572.423
572.513
572.581
572.584
572.51
572.363
572.15
571.858
571.423
570.788
570.11
569.669
567.991
560.165
576.74
597.75
603.558
603.693
602.64
600.875
598.475
595.77
593.458
592.109
591.651
592.085
592.35
590.263
588.794
588.61
587.552
585.208
582.515
580.211
578.716
577.701
576.947
575.84
574.287
572.595
571.057
569.775
568.766
568.043
567.647
567.649
568.145
569.11
570.404
571.556
571.133
570.059
568.888
567.861
567.076
566.538
566.211
566.017
565.853
565.645
565.39
565.127
564.878
564.66
564.519
564.557
564.939
565.839
567.327
569.07
570.202
570.767
571.058
571.212
571.275
571.272
571.229
571.179
571.152
571.176
571.256
571.373
571.477
571.501
571.385
571.076
570.531
569.733
568.733
567.78
567.313
567.066
564.172
555.436
569.663
590.324
598.62
599.925
599.526
598.419
596.63
594.448
592.466
591.258
590.445
590.171
590.053
588.483
587.225
586.685
585.582
583.556
581.16
578.917
577.539
576.705
575.985
574.924
573.508
571.95
570.477
569.196
568.14
567.342
566.873
566.84
567.311
568.164
569.196
570.087
569.844
569.008
567.982
567.039
566.296
565.768
565.429
565.221
565.063
564.886
564.673
564.444
564.213
563.99
563.826
563.844
564.216
565.064
566.397
567.928
568.991
569.583
569.911
570.103
570.206
570.239
570.225
570.198
570.196
570.249
570.354
570.467
570.502
570.354
569.935
569.204
568.193
567.03
565.981
565.465
565.615
565.08
560.664
552.091
564.494
583.702
593.902
596.23
596.112
595.369
594.108
592.549
591.129
590.296
589.295
588.41
587.985
586.798
585.631
584.736
583.533
581.785
579.752
577.658
576.404
575.786
575.183
574.187
572.854
571.349
569.86
568.522
567.412
566.594
566.156
566.175
566.632
567.329
568.088
568.742
568.592
567.931
567.035
566.187
565.524
565.06
564.765
564.584
564.447
564.283
564.061
563.797
563.52
563.262
563.092
563.138
563.539
564.34
565.521
566.875
567.878
568.479
568.821
569.037
569.181
569.267
569.311
569.337