/*--------------------------------*- C++ -*----------------------------------*\
| =========                 |                                                 |
| \\      /  F ield         | OpenFOAM: The Open Source CFD Toolbox           |
|  \\    /   O peration     | Version:  v2012                                 |
|   \\  /    A nd           | Website:  www.openfoam.com                      |
|    \\/     M anipulation  |                                                 |
\*---------------------------------------------------------------------------*/
FoamFile
{
    version     2.0;
    format      ascii;
    class       volScalarField;
    location    "550/air";
    object      qr;
}
// * * * * * * * * * * * * * * * * * * * * * * * * * * * * * * * * * * * * * //

dimensions      [1 0 -3 0 0 0 0];


internalField   uniform 0;

boundaryField
{
    inlet
    {
        type            calculated;
        value           nonuniform List<scalar> 
3200
(
73.7826
77.9401
76.2507
74.9553
73.8748
72.8426
71.8247
70.813
69.8057
68.805
67.8149
66.8384
65.8774
64.9324
64.0013
63.0812
62.1706
61.2718
60.3875
59.5174
58.6582
57.8061
56.9587
56.1149
55.2769
54.4524
53.6565
52.9134
52.2543
51.7103
51.3059
51.0543
50.9498
50.9563
51.0089
51.0462
51.0473
51.0275
51.0052
50.9852
50.9609
50.9296
50.9008
50.8827
50.8701
50.8558
50.8387
50.8183
50.795
50.7692
50.7416
50.7127
50.6844
50.6587
50.6354
50.6088
50.5661
50.4906
50.3691
50.2015
50.0058
49.815
49.6633
49.5678
49.5157
49.4653
49.3638
49.1752
48.9048
48.6061
48.3643
48.2617
48.3396
48.5741
48.8759
49.1058
49.0803
48.5489
47.0997
41.4732
64.4403
76.1858
75.8355
74.1946
72.8081
71.593
70.4841
69.4337
68.4123
67.4184
66.4619
65.5492
64.6727
63.8099
62.9332
62.0273
61.1001
60.1749
59.2707
58.3911
57.533
56.6918
55.8641
55.0487
54.2481
53.4696
52.7266
52.0389
51.4309
50.9266
50.5475
50.309
50.2094
50.213
50.2578
50.2929
50.3061
50.3077
50.3056
50.3004
50.2885
50.2706
50.2573
50.2546
50.2559
50.2544
50.2495
50.2404
50.2272
50.2108
50.1921
50.1721
50.1521
50.1334
50.117
50.1024
50.0865
50.0641
50.0302
49.9838
49.9317
49.8874
49.8647
49.867
49.8777
49.8593
49.7635
49.5522
49.2141
48.7734
48.2787
47.7814
47.3087
46.8442
46.314
45.5788
44.4763
42.9865
40.903
34.3512
55.6267
71.1558
73.7875
72.8798
71.7082
70.5641
69.462
68.4217
67.4475
66.5364
65.6823
64.8675
64.0631
63.2414
62.3849
61.4944
60.5888
59.6897
58.8061
57.933
57.0597
56.1833
55.312
54.4583
53.6369
52.8633
52.152
51.5183
50.9791
50.5512
50.2467
50.0682
50.0014
50.0106
50.0472
50.0752
50.0857
50.0853
50.0796
50.0702
50.0558
50.0384
50.0257
50.0217
50.0218
50.0215
50.02
50.0165
50.0113
50.0057
50.0007
49.9973
49.9963
49.9985
50.0046
50.0144
50.0257
50.0337
50.0311
50.0108
49.9683
49.9031
49.8144
49.6938
49.5175
49.2456
48.8322
48.2449
47.4847
46.5973
45.6638
44.7736
43.9843
43.2806
42.5572
41.6743
40.6514
39.7202
38.0334
31.2503
49.1572
65.5187
70.9574
71.2959
70.7126
69.9376
69.0073
68.0052
67.0115
66.0571
65.1635
64.3021
63.4233
62.5109
61.5796
60.6531
59.7475
58.8622
57.9787
57.0782
56.126
55.1317
54.1443
53.2098
52.3602
51.6163
50.9891
50.4835
50.102
49.8443
49.7024
49.6571
49.6779
49.7277
49.7741
49.801
49.8101
49.8088
49.8026
49.7938
49.7832
49.7736
49.7702
49.7748
49.7847
49.7972
49.8111
49.8246
49.837
49.8477
49.8559
49.8602
49.8578
49.8448
49.8164
49.7672
49.692
49.5854
49.4408
49.2506
49.0075
48.7062
48.3434
47.9149
47.4116
46.82
46.1292
45.3463
44.5067
43.6741
42.9182
42.2788
41.7305
41.1764
40.5056
39.742
39.1618
38.7741
36.6873
29.4996
44.4463
60.1343
67.7059
69.2391
69.1224
68.7091
68.051
67.1807
66.1875
65.1368
64.0958
63.069
62.032
60.979
59.9254
58.8971
57.914
56.9756
56.0586
55.1379
54.1765
53.1984
52.2688
51.4469
50.7698
50.2445
49.8541
49.5718
49.3752
49.2505
49.1886
49.1783
49.2022
49.2407
49.2785
49.3093
49.3332
49.3516
49.3661
49.3784
49.3906
49.4058
49.426
49.4504
49.4759
49.4991
49.516
49.5227
49.5152
49.49
49.4434
49.371
49.268
49.1284
48.9462
48.7163
48.4351
48.1018
47.717
47.283
46.8044
46.2896
45.7515
45.2054
44.665
44.1396
43.634
43.1516
42.6943
42.2575
41.8194
41.3358
40.7526
40.0467
39.3039
38.7839
38.7155
38.3928
35.367
28.2005
40.6059
54.6894
63.7207
66.4188
66.6332
66.4475
66.0767
65.4683
64.6534
63.6908
62.5703
61.3054
60.0069
58.7525
57.5423
56.3769
55.283
54.2807
53.3649
52.4911
51.6839
50.9902
50.3958
49.9043
49.5574
49.3609
49.2614
49.1853
49.0816
48.9405
48.7869
48.6577
48.5777
48.5502
48.5631
48.6008
48.65
48.7011
48.7478
48.7881
48.8232
48.8547
48.8815
48.8993
48.9024
48.8849
48.8407
48.7644
48.6514
48.4984
48.3029
48.0637
47.7804
47.4535
47.0849
46.6784
46.2408
45.781
45.3097
44.8381
44.3791
43.9495
43.569
43.2567
43.0224
42.8573
42.7281
42.5793
42.3425
41.9549
41.3804
40.6314
39.7849
38.9923
38.4812
38.4681
38.7389
37.9147
33.8909
27.2499
37.2146
49.2182
59.1048
63.0787
63.7246
63.7196
63.6258
63.35
62.8708
62.2552
61.2822
59.8447
58.2372
56.7341
55.3653
54.0923
52.9322
51.916
51.0558
50.2539
49.6429
49.3335
49.1622
48.9938
48.8753
48.8602
48.8968
48.8827
48.7512
48.508
48.2165
47.9561
47.7806
47.7005
47.6936
47.7289
47.7814
47.8348
47.8781
47.9052
47.914
47.9043
47.8734
47.8164
47.7278
47.6022
47.4361
47.2282
46.9791
46.6915
46.3701
46.0211
45.6518
45.27
44.884
44.5026
44.1357
43.7932
43.4845
43.218
43.002
42.8465
42.7599
42.7416
42.7704
42.7953
42.7378
42.5096
42.0438
41.33
40.4351
39.4976
38.6976
38.2193
38.2086
38.6133
38.7538
37.0521
32.3442
26.571
34.4052
44.2234
54.3582
59.659
60.9376
61.1351
61.3141
61.3865
61.262
61.073
60.4522
59.0775
57.308
55.6246
54.1486
52.8223
51.6421
50.636
49.8267
49.0558
48.5323
48.4727
48.6051
48.6172
48.5227
48.4512
48.4096
48.3105
48.0903
47.7629
47.4015
47.089
46.8758
46.7647
46.7247
46.7184
46.7195
46.7135
46.6905
46.6431
46.5681
46.4653
46.3349
46.177
45.9909
45.7766
45.5358
45.2725
44.9928
44.704
44.4142
44.1312
43.862
43.6126
43.3881
43.1939
43.0351
42.916
42.8389
42.8031
42.8047
42.8363
42.8829
42.9163
42.8885
42.7346
42.3875
41.8074
41.0113
40.0881
39.1833
38.4582
38.0458
38.0283
38.3949
38.8437
38.4403
35.8358
30.8929
26.1091
32.3324
40.1031
49.9032
56.4366
58.547
58.9654
59.378
59.8079
60.0011
60.1028
59.8139
58.6952
57.0073
55.31
53.8259
52.5076
51.3308
50.3193
49.5132
48.7337
48.1773
48.1498
48.398
48.4822
48.3219
48.0854
47.8629
47.6181
47.3017
46.9222
46.535
46.2008
45.9527
45.7872
45.6758
45.586
45.4967
45.3988
45.2872
45.1573
45.007
44.8374
44.6527
44.4592
44.2622
44.0656
43.8725
43.6868
43.513
43.3557
43.2188
43.104
43.0115
42.9408
42.8926
42.8687
42.8718
42.9019
42.9534
43.0123
43.0558
43.0547
42.975
42.7813
42.4406
41.9313
41.2571
40.4606
39.6265
38.8663
38.2874
37.9653
37.9383
38.2072
38.6592
38.8265
37.71
34.4133
29.6233
25.7883
30.8684
36.8996
45.8775
53.4244
56.5715
57.2552
57.7755
58.5215
59.0471
59.3107
59.1727
58.286
56.7902
55.201
53.8072
52.5838
51.4759
50.4892
49.6779
48.8954
48.2575
48.092
48.279
48.3692
48.1632
47.7899
47.3963
47.0079
46.598
46.1655
45.7427
45.3676
45.0617
44.8231
44.6332
44.4689
44.314
44.163
44.0148
43.8668
43.717
43.5679
43.4262
43.299
43.1896
43.0985
43.025
42.9684
42.928
42.9023
42.8897
42.8885
42.8981
42.9189
42.9521
42.9986
43.0562
43.1152
43.1547
43.1426
43.0401
42.8115
42.4353
41.912
41.2665
40.5462
39.8141
39.1397
38.5847
38.1907
37.9748
37.9424
38.1032
38.4389
38.7584
38.4699
36.6507
32.944
28.5669
25.5553
29.7981
34.4836
42.2581
50.4525
54.8076
55.9043
56.3591
57.2352
58.1115
58.598
58.5424
57.7607
56.3716
54.8482
53.543
52.4786
51.559
50.7263
49.9975
49.2659
48.5644
48.185
48.175
48.1935
47.9624
47.5126
46.995
46.4877
45.9943
45.511
45.0532
44.6437
44.2978
44.0177
43.7943
43.612
43.4563
43.3214
43.2059
43.1053
43.0171
42.9482
42.9079
42.8961
42.9027
42.9169
42.9333
42.9513
42.9699
42.9854
42.995
43.0015
43.0126
43.0356
43.071
43.1091
43.1306
43.1065
43.001
42.7771
42.407
41.8856
41.2393
40.5246
39.8162
39.1868
38.6879
38.3384
38.1241
38.014
37.9877
38.0584
38.2565
38.5359
38.601
37.7832
35.3673
31.5286
27.7078
25.3663
29.0299
32.74
39.0359
47.3501
52.9413
54.7195
55.0322
55.7294
56.8352
57.6999
57.8896
57.2141
55.8161
54.1935
52.8224
51.8553
51.1936
50.6701
50.1759
49.5934
48.9068
48.3495
48.0933
47.9669
47.6959
47.2107
46.6229
46.041
45.5008
45.0024
44.5475
44.1461
43.8073
43.5349
43.3256
43.1688
43.0505
42.9618
42.8967
42.8489
42.821
42.8249
42.8645
42.926
42.9864
43.0306
43.0581
43.076
43.0878
43.0903
43.0808
43.0633
43.0464
43.0333
43.0134
42.9613
42.843
42.6244
42.2794
41.7976
41.1924
40.5057
39.8048
39.1679
38.6622
38.3225
38.1401
38.0693
38.0499
38.0426
38.0565
38.1412
38.3205
38.4706
38.19
36.8252
33.9699
30.2367
27.0203
25.1952
28.5158
31.547
36.245
44.0781
50.706
53.4652
53.7786
54.0402
55.075
56.3141
56.9623
56.5853
55.2456
53.4526
51.8443
50.8048
50.3263
50.1412
49.9628
49.6095
49.0433
48.4324
47.9907
47.7101
47.392
46.9057
46.3049
45.7032
45.1634
44.6924
44.2798
43.9203
43.6149
43.3665
43.1761
43.039
42.9456
42.8832
42.8376
42.8095
42.8138
42.847
42.877
42.8729
42.8323
42.7773
42.7335
42.7125
42.7118
42.7251
42.7476
42.7709
42.7756
42.7316
42.6073
42.3795
42.0377
41.5842
41.0339
40.4157
39.7736
39.1646
38.6487
38.273
38.0563
37.9799
37.9923
38.0288
38.0424
38.0333
38.0493
38.1392
38.2651
38.2082
37.5144
35.6456
32.5419
29.0983
26.4664
25.0232
28.1268
30.7312
33.9181
40.7428
47.9797
51.9
52.5768
52.4133
53.0651
54.4192
55.5283
55.6418
54.5874
52.7549
50.8795
49.6064
49.1105
49.1022
49.1609
49.0434
48.6928
48.1934
47.7192
47.3704
47.0514
46.614
46.0544
45.4726
44.9535
44.5197
44.1556
43.8412
43.566
43.3293
43.1367
42.9924
42.8967
42.8326
42.7795
42.7548
42.7747
42.7757
42.651
42.37
42.0198
41.7266
41.5565
41.4936
41.4962
41.551
41.665
41.8173
41.9338
41.9181
41.7083
41.3089
40.7783
40.1916
39.6111
39.0788
38.6228
38.265
38.0206
37.8922
37.8636
37.8984
37.9485
37.974
37.9665
37.96
38.001
38.0852
38.0927
37.7444
36.6084
34.3297
31.1666
28.128
26.0121
24.8403
27.6976
30.1201
32.0639
37.534
44.8068
49.8398
51.337
51.1076
51.2861
52.3919
53.6867
54.2741
53.7057
52.1135
50.1699
48.6718
47.9785
47.8746
47.9335
47.9197
47.7608
47.4489
47.0732
46.7776
46.5491
46.2404
45.7881
45.2589
44.7561
44.3346
43.9931
43.7064
43.4522
43.2239
43.0275
42.8755
42.7752
42.7047
42.6502
42.6421
42.6513
42.5082
42.0394
41.2785
40.4823
39.9206
39.6672
39.608
39.6173
39.6834
39.8655
40.1634
40.4568
40.5707
40.3974
39.9635
39.3987
38.8508
38.4184
38.1344
37.9855
37.9397
37.9617
38.0191
38.0838
38.1334
38.1568
38.1629
38.1832
38.2512
38.3549
38.3948
38.1774
37.4151
35.7621
33.0906
29.9357
27.2879
25.5619
24.588
27.15
29.6138
30.6726
34.6555
41.3714
47.2145
49.8661
50.0952
49.9546
50.5184
51.5766
52.4
52.3996
51.4144
49.8639
48.4507
47.5847
47.1715
46.9263
46.7295
46.5301
46.2667
45.9587
45.7509
45.6756
45.5813
45.3296
44.9212
44.4575
44.0334
43.6853
43.4045
43.1695
42.9683
42.7986
42.6712
42.5862
42.5165
42.4775
42.4924
42.4158
41.9558
40.9565
39.6227
38.4306
37.7616
37.6099
37.6752
37.711
37.7253
37.874
38.2286
38.6689
38.9712
38.98
38.7086
38.3052
37.9401
37.7138
37.6368
37.6632
37.7362
37.8141
37.8747
37.9091
37.9171
37.9105
37.9175
37.9718
38.0734
38.1472
38.0427
37.5628
36.4576
34.4739
31.6796
28.7788
26.6037
25.2102
24.3689
26.5208
29.1785
29.704
32.2569
37.9278
44.0839
47.9241
49.0203
48.8222
48.7112
49.1492
49.8495
50.3082
50.1638
49.4707
48.589
47.7885
47.0759
46.3941
45.809
45.3305
44.9027
44.5198
44.3155
44.3524
44.4863
44.5058
44.3154
43.9718
43.5878
43.2432
42.9681
42.7608
42.6068
42.4845
42.3903
42.308
42.2137
42.1695
42.1663
41.8943
40.9663
39.3537
37.516
36.1307
35.6058
35.7742
36.1092
36.2341
36.1784
36.2011
36.4713
36.9245
37.3535
37.5887
37.6046
37.4978
37.3899
37.3507
37.3824
37.4512
37.5217
37.5739
37.6018
37.6073
37.6
37.6031
37.649
37.7486
37.8471
37.8163
37.5002
36.7388
35.3271
33.1029
30.3175
27.762
26.024
24.8697
24.1238
25.8454
28.7421
29.015
30.3311
34.6642
40.5862
45.3716
47.5405
47.6168
46.9626
46.6238
46.8611
47.4396
47.9684
48.1893
48.0449
47.5593
46.7821
45.8523
44.9838
44.2381
43.5931
43.0481
42.7299
42.7435
42.9982
43.2578
43.3352
43.2054
42.9545
42.6844
42.4629
42.3074
42.1916
42.0666
41.9182
41.7371
41.5327
41.4125
41.3141
40.7784
39.3824
37.2769
35.1547
33.7945
33.5429
34.0781
34.7122
34.9723
34.8824
34.7568
34.8417
35.1565
35.5752
35.9774
36.3198
36.6095
36.8516
37.0332
37.1426
37.1889
37.1989
37.1979
37.1971
37.1983
37.2105
37.2574
37.3569
37.4749
37.5019
37.2954
36.7413
35.7248
34.0659
31.6954
29.0373
26.882
25.5197
24.5245
23.8537
25.0739
28.1626
28.377
28.7366
31.6845
36.9392
42.293
45.585
46.3364
45.5636
44.623
44.2538
44.5657
45.2937
46.0413
46.4577
46.3572
45.7777
44.9354
44.0745
43.2627
42.5052
41.8171
41.3209
41.1718
41.3732
41.7329
42.0186
42.121
42.0703
41.9595
41.8622
41.7771
41.6355
41.366
40.9811
40.5418
40.1384
39.8981
39.6781
38.9257
37.25
34.9565
32.8478
31.6548
31.6034
32.3079
33.0734
33.4117
33.3152
33.0862
32.996
33.1272
33.4509
33.944
34.5958
35.3415
36.0408
36.5471
36.798
36.8418
36.7856
36.7222
36.6933
36.7051
36.7609
36.8684
37.0058
37.083
36.9635
36.5431
35.7716
34.5506
32.7058
30.2824
27.856
26.1219
25.059
24.162
23.5623
24.092
27.3047
27.5925
27.3123
29.0293
33.3564
38.8685
43.1911
44.9696
44.6172
43.4682
42.5971
42.4484
42.9514
43.7286
44.3322
44.4919
44.221
43.7004
43.0868
42.4096
41.6751
40.9156
40.2551
39.8845
39.9019
40.1998
40.5529
40.7956
40.908
40.9636
41.0028
40.9475
40.6535
40.0543
39.2578
38.4729
37.9067
37.6543
37.4345
36.6343
34.9459
32.7892
30.951
29.9888
29.9738
30.5493
31.167
31.4295
31.3157
31.077
30.9489
31.0094
31.2736
31.8082
32.6793
33.8124
34.9607
35.8395
36.3016
36.3978
36.2995
36.1732
36.1109
36.1384
36.2502
36.4134
36.5419
36.5007
36.179
35.5536
34.6179
33.2409
31.259
28.8719
26.7658
25.4463
24.6045
23.766
23.2467
22.7442
26.0639
26.5515
25.9439
26.6225
29.7321
34.7992
39.8254
42.8924
43.5806
42.7659
41.6801
41.0928
41.1451
41.5564
41.9353
42.0707
42.007
41.8662
41.6637
41.3638
40.8906
40.2434
39.5434
38.9979
38.7755
38.8692
39.1023
39.2864
39.3753
39.4347
39.449
39.2206
38.5301
37.3932
36.1212
35.1404
34.7583
34.9304
35.1083
34.563
33.0904
31.245
29.7809
29.0491
28.9465
29.1661
29.3875
29.4259
29.3408
29.3369
29.5195
29.8185
30.1671
30.662
31.4753
32.6276
33.8956
34.9474
35.5638
35.747
35.6657
35.5213
35.4511
35.5036
35.648
35.7839
35.7679
35.4861
34.9274
34.1441
33.088
31.5571
29.4795
27.2727
25.6292
24.7287
24.0345
23.2387
22.8342
21.3465
24.7368
25.4669
24.7912
24.7491
26.5719
30.5751
35.5916
39.699
41.7287
41.7377
40.8324
40.0285
39.6777
39.6259
39.5862
39.4478
39.3234
39.3464
39.473
39.6662
39.6936
39.4147
38.8996
38.3373
37.9295
37.7662
37.7555
37.7251
37.6161
37.4821
37.2549
36.6477
35.4277
33.7565
32.18
31.3084
31.4696
32.4171
33.3009
33.2349
32.0755
30.5042
29.302
28.7194
28.5388
28.4611
28.3293
28.1882
28.255
28.7189
29.4986
30.2763
30.8139
31.1787
31.6324
32.3425
33.2272
34.0422
34.5782
34.7871
34.7729
34.6977
34.6853
34.764
34.8554
34.8143
34.5193
33.9635
33.2377
32.3684
31.1857
29.4801
27.3964
25.5431
24.4415
23.8838
23.2556
22.5097
22.2543
20.266
23.6169
24.5347
23.9296
23.5463
24.3892
27.13
31.4567
35.9425
39.0985
40.1395
39.7617
39.0279
38.465
38.0864
37.7181
37.2921
36.9299
36.8052
36.9306
37.4015
37.8822
38.0524
37.8794
37.4835
37.0428
36.7071
36.481
36.2437
35.9294
35.5614
35.0374
34.0534
32.4222
30.4276
28.7571
28.0983
28.7407
30.2958
31.7572
32.1592
31.3566
30.0485
29.0258
28.5439
28.3809
28.2353
27.9971
27.8304
28.0726
28.9255
30.1828
31.3453
32.0382
32.279
32.3566
32.5259
32.8351
33.1743
33.42
33.5327
33.5626
33.5928
33.6673
33.7439
33.7039
33.4298
32.904
32.2254
31.4768
30.5523
29.1953
27.3338
25.3735
23.9641
23.3203
22.9404
22.3081
21.6259
21.5152
19.349
22.5531
23.6156
23.1292
22.6645
22.9143
24.5376
27.8283
32.07
35.9112
37.962
38.3472
37.9358
37.3362
36.7686
36.2172
35.6242
35.0349
34.6043
34.4215
34.8021
35.4419
35.913
36.0901
35.9994
35.7326
35.4198
35.1149
34.7505
34.2718
33.6898
32.9129
31.6829
29.8673
27.7867
26.1415
25.6084
26.4357
28.1979
29.915
30.6759
30.3125
29.4091
28.661
28.3344
28.2795
28.2355
28.0827
27.9721
28.2569
29.1669
30.5074
31.7604
32.5059
32.7023
32.5865
32.4008
32.2463
32.1202
32.0131
31.9499
31.9669
32.0652
32.1808
32.1962
32.0014
31.5755
31.0119
30.4171
29.738
28.7209
27.1529
25.2152
23.5085
22.5509
22.2175
21.8694
21.2005
20.5948
20.6007
18.4151
21.4371
22.6517
22.3145
21.9223
21.9193
22.7415
24.9532
28.5
32.4931
35.3159
36.5463
36.6614
36.1888
35.5242
34.8643
34.2073
33.5036
32.8136
32.2298
32.258
32.7292
33.2305
33.6231
33.8723
33.9504
33.8713
33.6372
33.1951
32.5332
31.721
30.7547
29.4681
27.7543
25.8631
24.3868
23.9262
24.702
26.3379
28.011
28.9785
29.0749
28.6988
28.3491
28.2472
28.3344
28.4423
28.4436
28.3903
28.5485
29.1715
30.1968
31.2445
31.9352
32.1547
32.0197
31.688
31.2588
30.8055
30.4248
30.213
30.1978
30.2994
30.3619
30.244
29.9123
29.4661
29.0398
28.6263
27.9867
26.8115
25.0706
23.206
21.8609
21.2979
21.1183
20.7066
20.0014
19.4793
19.5587
17.4409
20.3165
21.7194
21.554
21.2868
21.238
21.5747
22.8555
25.4769
29.128
32.3311
34.3052
35.0679
34.8943
34.2322
33.4886
32.8
32.0921
31.3146
30.4746
30.1442
30.2944
30.6047
31.0063
31.4772
31.8945
32.1081
31.9877
31.4541
30.5699
29.5371
28.5024
27.4056
26.1191
24.7318
23.6338
23.2961
23.9199
25.2321
26.6314
27.5986
28.0127
28.1007
28.1375
28.25
28.441
28.6507
28.7753
28.7621
28.74
28.9489
29.4849
30.1761
30.7376
30.9886
30.9032
30.5371
29.9803
29.3706
28.8813
28.6371
28.6235
28.6809
28.6098
28.3162
27.8821
27.4864
27.2074
26.8693
26.1167
24.7312
22.9306
21.3112
20.3894
20.1333
19.9927
19.4904
18.7822
18.3544
18.4723
16.5134
19.298
20.9141
20.9177
20.744
20.7125
20.7884
21.3714
23.0531
26.0196
29.1704
31.6321
33.0507
33.3488
32.854
32.0911
31.3786
30.724
30.0257
29.1716
28.6692
28.5559
28.5972
28.8199
29.2736
29.8073
30.1457
30.033
29.3667
28.3006
27.1848
26.3076
25.6798
25.1078
24.4743
23.9233
23.7662
24.1927
25.0673
26.0249
26.7633
27.2268
27.5315
27.781
28.0034
28.2161
28.437
28.6118
28.6389
28.5265
28.4496
28.5895
28.949
29.3567
29.6059
29.5651
29.2126
28.6398
28.0328
27.5962
27.4288
27.4465
27.435
27.2115
26.7714
26.285
25.9213
25.6354
25.128
24.0765
22.4744
20.752
19.4991
18.9902
18.9426
18.7817
18.2205
17.5684
17.258
17.4138
15.6886
18.4165
20.2376
20.3778
20.2228
20.1816
20.1285
20.264
21.1586
23.3019
26.0436
28.6641
30.6352
31.54
31.4339
30.8001
30.1005
29.5009
28.9462
28.2467
27.7767
27.5561
27.3749
27.314
27.5047
27.8375
28.0116
27.7346
26.926
25.8213
24.8611
24.392
24.4243
24.6741
24.8377
24.8403
24.8477
25.0509
25.4595
25.9167
26.2842
26.5577
26.8027
27.0385
27.2349
27.3933
27.5564
27.7181
27.7926
27.7243
27.5939
27.563
27.7179
27.9894
28.2025
28.1909
27.8939
27.3984
26.9
26.5865
26.5055
26.5247
26.4322
26.1103
25.6288
25.1591
24.7667
24.2781
23.3847
21.9402
20.186
18.6552
17.7926
17.6054
17.6571
17.4466
16.8768
16.34
16.1735
16.4029
14.9476
17.6218
19.6096
19.8414
19.6352
19.5367
19.4281
19.3405
19.6919
21.0627
23.1917
25.6624
27.9935
29.5413
30.0168
29.697
29.0785
28.4966
28.031
27.5032
27.1638
26.9673
26.6625
26.314
26.1041
26.0077
25.7993
25.2532
24.3538
23.3805
22.7688
22.82
23.4844
24.4033
25.1657
25.5688
25.686
25.7135
25.7693
25.8364
25.8662
25.8726
25.9059
25.9766
26.0526
26.12
26.2067
26.329
26.4436
26.4862
26.4545
26.4298
26.4997
26.6667
26.827
26.8402
26.6344
26.2682
25.8976
25.6628
25.5786
25.5263
25.3615
25.0431
24.6513
24.2595
23.7821
22.974
21.6379
19.8713
18.1035
16.8391
16.3065
16.2992
16.3362
16.0472
15.4951
15.0988
15.0806
15.4233
14.2383
16.8411
18.945
19.2336
18.9446
18.7668
18.6503
18.5131
18.5758
19.3486
20.8242
22.9179
25.3586
27.4387
28.5541
28.6722
28.1977
27.5855
27.0956
26.65
26.4297
26.3186
25.9845
25.4185
24.8158
24.2499
23.6288
22.8477
21.9578
21.2213
20.9835
21.4371
22.4656
23.698
24.7289
25.3399
25.5675
25.5891
25.5486
25.4756
25.3455
25.1686
24.9977
24.8764
24.811
24.7922
24.8229
24.9123
25.0453
25.171
25.2416
25.2629
25.2911
25.3691
25.4677
25.497
25.3823
25.1312
24.8301
24.5712
24.3796
24.2125
24.0232
23.8143
23.5976
23.2919
22.6841
21.5533
19.8907
18.0109
16.4104
15.4588
15.1684
15.2083
15.1399
14.7414
14.1967
13.9165
14.0105
14.4643
13.5354
16.0423
18.2154
18.5496
18.1885
17.9433
17.8506
17.7693
17.7436
18.1328
19.0362
20.6271
22.9072
25.2574
26.8772
27.4225
27.1181
26.4581
25.8691
25.4194
25.2747
25.2642
24.9676
24.2817
23.3949
22.477
21.5775
20.7035
19.9294
19.4374
19.4359
20.0082
21.021
22.1798
23.1887
23.8956
24.3223
24.5779
24.7376
24.7941
24.7102
24.4938
24.2144
23.9598
23.7868
23.7079
23.712
23.7871
23.9149
24.0514
24.1364
24.1424
24.1041
24.0846
24.1055
24.1181
24.0417
23.8311
23.5103
23.1497
22.8233
22.5839
22.4581
22.4277
22.3815
22.0944
21.3116
19.9308
18.1466
16.399
15.1274
14.5123
14.3971
14.4111
14.2025
13.6852
13.1261
12.9079
13.0482
13.5505
12.8526
15.24
17.4488
17.8387
17.4424
17.158
17.1022
17.1139
17.1166
17.3093
17.7822
18.8357
20.7082
22.9731
24.7982
25.6263
25.4852
24.8263
24.1735
23.723
23.6479
23.744
23.5229
22.801
21.7618
20.6633
19.6713
18.8594
18.2689
17.96
18.0019
18.4101
19.1043
19.9402
20.7867
21.5812
22.3171
22.9891
23.5432
23.8932
23.9825
23.8331
23.5418
23.2341
23.006
22.8945
22.8892
22.9595
23.0661
23.156
23.1719
23.0894
22.9442
22.8086
22.7251
22.6631
22.5366
22.2717
21.8667
21.4057
21.0205
20.8278
20.8603
21.016
21.0526
20.6699
19.6751
18.143
16.43
14.9931
14.1312
13.8408
13.863
13.8428
13.5214
12.9178
12.3458
12.1465
12.2725
12.7299
12.2179
14.4665
16.6908
17.1569
16.766
16.467
16.4411
16.5315
16.6005
16.7218
16.9093
17.4582
18.7476
20.5826
22.2588
23.1623
23.1725
22.6353
22.0677
21.7196
21.7588
21.9689
21.8332
21.124
20.0335
18.8926
17.9459
17.2858
16.8865
16.6838
16.638
16.746
17.0239
17.4955
18.1847
19.0925
20.1613
21.2627
22.216
22.8647
23.1463
23.1071
22.8692
22.5774
22.3442
22.2218
22.209
22.2696
22.3451
22.3679
22.2841
22.0847
21.8164
21.5529
21.3358
21.1377
20.8779
20.4912
19.9948
19.5073
19.1959
19.1773
19.4189
19.7044
19.6999
19.1206
17.9131
16.3295
14.8115
13.7461
13.2688
13.241
13.3657
13.3307
12.9552
12.3286
11.7802
11.5951
11.6835
12.0258
11.6463
13.7408
15.9699
16.5307
16.1746
15.8722
15.8557
15.9847
16.1052
16.2142
16.2308
16.352
16.9917
18.1713
19.4232
20.2282
20.3982
20.1389
19.8546
19.7513
19.962
20.2811
20.2153
19.5376
18.4576
17.3539
16.509
16.0052
15.7521
15.5972
15.4411
15.2934
15.2594
15.4857
16.0881
17.0857
18.3688
19.7259
20.9085
21.7357
22.1557
22.2324
22.0931
21.8753
21.6833
21.5716
21.5503
21.5909
21.6303
21.5916
21.4207
21.1174
20.7337
20.3384
19.9654
19.5915
19.1603
18.647
18.1129
17.7055
17.584
17.8032
18.2263
18.5391
18.3866
17.5755
16.2139
14.678
13.4077
12.6723
12.4705
12.5968
12.7667
12.7188
12.3323
11.7416
11.2667
11.1239
11.1925
11.4105
11.1285
13.0591
15.2877
15.9544
15.6488
15.3425
15.3127
15.4387
15.5726
15.6778
15.5956
15.3903
15.4334
15.9116
16.6291
17.2571
17.6142
17.7608
17.9162
18.1621
18.5697
18.9694
18.9433
18.3044
17.2782
16.2548
15.5157
15.1215
14.9477
14.8107
14.6013
14.3496
14.2034
14.3488
14.915
15.904
17.1801
18.518
19.6813
20.5188
20.9998
21.1854
21.1799
21.0867
20.9816
20.9102
20.8924
20.9149
20.9228
20.8389
20.6051
20.2178
19.7252
19.1911
18.6515
18.1025
17.5283
16.954
16.4772
16.2433
16.3571
16.7788
17.2761
17.4949
17.1351
16.135
14.7323
13.3424
12.3286
11.8328
11.7686
11.9255
12.0612
11.9657
11.568
11.0348
10.6622
10.5916
10.6742
10.8135
10.639
12.4026
14.6268
15.4028
15.1531
14.8377
14.7774
14.8701
14.979
15.0613
14.9184
14.4978
14.0936
13.993
14.2363
14.7043
15.2671
15.8633
16.5078
17.1215
17.7028
18.1388
18.1248
17.5393
16.6121
15.7064
15.0679
14.7337
14.5807
14.4488
14.2564
14.0465
13.9541
14.1286
14.6539
15.5031
16.5526
17.6238
18.5558
19.263
19.7351
20.0102
20.1509
20.2128
20.2318
20.2373
20.2544
20.2836
20.2816
20.1733
19.893
19.4251
18.8113
18.1221
17.4174
16.7336
16.1012
15.5789
15.264
15.2542
15.5681
16.0742
16.4939
16.51
15.9365
14.8438
13.5347
12.3775
11.6124
11.2711
11.2337
11.3234
11.3502
11.1519
10.7067
10.2103
9.92929
9.93443
10.0504
10.1719
10.1578
11.7601
13.9774
14.86
14.6672
14.3385
14.2394
14.2842
14.3417
14.3776
14.193
13.6637
13.0055
12.5437
12.4741
12.8454
13.5948
14.5827
15.6531
16.5752
17.2778
17.7116
17.6985
17.1902
16.4083
15.6595
15.1299
14.8322
14.6688
14.5346
14.393
14.2892
14.3115
14.534
14.9757
15.5883
16.2872
16.9671
17.5656
18.071
18.4833
18.8073
19.0658
19.2742
19.4318
19.5479
19.6445
19.7269
19.7547
19.6485
19.3295
18.7682
18.0065
17.1414
16.2838
15.5277
14.9435
14.5909
14.5179
14.7331
15.156
15.5948
15.79
15.5301
14.7747
13.6969
12.5946
11.7279
11.2003
10.9634
10.8999
10.879
10.7555
10.4111
9.87575
9.37414
9.14328
9.19533
9.33513
9.47444
9.65456
11.1054
13.3086
14.2935
14.1598
13.8156
13.6724
13.6623
13.6539
13.6263
13.4116
12.8639
12.1372
11.5424
11.3371
11.665
12.5258
13.7575
15.1048
16.2303
17.0053
17.4303
17.4369
17.039
16.4391
15.8764
15.4706
15.2103
15.0284
14.8789
14.7693
14.7425
14.8376
15.0595
15.3765
15.7343
16.0909
16.4055
16.6968
17.0039
17.3231
17.6328
17.9376
18.2362
18.5064
18.7382
18.941
19.1114
19.2018
19.1215
18.7759
18.1242
17.2176
16.1941
15.2288
14.4763
14.0306
13.9192
14.1049
14.4867
14.898
15.1316
15.0054
14.4531
13.5749
12.6007
11.7697
11.2102
10.9068
10.7648
10.6848
10.5708
10.3073
9.81574
9.17913
8.64666
8.42432
8.48033
8.61358
8.76699
9.21616
10.5461
12.7381
13.8078
13.7248
13.3693
13.1927
13.141
13.0775
12.9929
12.7623
12.2491
11.5666
10.9854
10.7588
11.0671
11.961
13.2987
14.7884
16.0301
16.8472
17.2673
17.3005
17.0082
16.5772
16.1901
15.9084
15.6966
15.5076
15.3388
15.2296
15.2217
15.3221
15.4949
15.6831
15.8363
15.9443
16.0007
16.0746
16.2347
16.461
16.7099
16.9906
17.3153
17.6607
18.003
18.3328
18.6263
18.814
18.7834
18.4212
17.6793
16.6272
15.4524
14.3981
13.6756
13.3923
13.5279
13.9483
14.4438
14.7783
14.7575
14.3009
13.4894
12.5387
11.6994
11.1303
10.8394
10.7246
10.6709
10.5986
10.43
10.0621
9.44755
8.71669
8.13927
7.89497
7.9214
8.02178
8.16439
8.46159
9.62587
11.7657
12.9606
12.9722
12.5993
12.3524
12.2187
12.0615
11.8825
11.6277
11.2118
10.7167
10.3234
10.1844
10.4294
11.1501
12.3071
13.6953
14.9438
15.8346
16.3653
16.5568
16.4697
16.2598
16.069
15.9255
15.7772
15.5811
15.3502
15.1401
15.0031
14.9538
14.9664
14.9979
15.0172
15.0208
15.0098
15.0433
15.1404
15.2429
15.3309
15.4561
15.6647
15.9581
16.3074
16.6704
16.995
17.2066
17.2016
16.8738
16.1774
15.1873
14.1057
13.1958
12.677
12.6327
12.9766
13.4819
13.863
13.8768
13.4181
12.564
11.5449
10.6373
10.0382
9.78706
9.79008
9.90914
10.039
10.1019
9.99945
9.62535
8.97941
8.24942
7.70295
7.46402
7.44169
7.47544
7.55785
)
;
    }
    outlet
    {
        type            calculated;
        value           nonuniform List<scalar> 
3200
(
53.0122
54.4381
51.7245
49.636
48.1588
47.8613
49.7644
55.4683
58.9334
57.4548
51.5868
44.1805
37.3298
41.131
40.9453
34.1665
36.0471
39.2556
41.9819
43.7969
44.6426
42.6362
36.8865
35.8536
37.7036
39.6239
40.5993
41.1027
41.4076
41.6209
41.7802
41.8897
41.8557
41.5092
39.8238
38.9165
41.9748
43.0634
43.3704
43.4715
43.357
43.0867
42.6879
42.1964
41.7313
41.4773
41.49
41.6576
41.8303
41.8517
41.6179
41.1165
40.3696
39.2427
36.8743
32.8825
31.0183
30.6041
30.2477
30.0495
30.0506
30.1344
30.2103
30.2441
30.2692
30.3214
30.414
30.5133
30.5895
30.6098
30.4826
30.242
29.9671
29.7362
29.6319
29.7243
30.0682
30.6957
31.6582
31.4869
63.3866
76.4082
75.8105
73.4208
71.3116
70.322
71.4227
73.8105
73.9929
72.2245
67.6552
57.4721
48.4046
55.7848
54.5434
46.5585
47.3243
52.667
56.4243
58.6822
59.3882
58.0094
54.335
52.1137
51.4523
50.9948
50.4052
49.8782
49.5076
49.3087
49.2793
49.3991
49.5418
49.375
47.6288
45.865
49.3724
50.694
50.8412
50.6221
50.3257
50.0372
49.7479
49.4226
49.0499
48.6696
48.3574
48.1582
48.0303
47.8849
47.6747
47.4366
47.2636
47.1957
47.0849
46.9547
46.6969
46.6332
46.4542
46.3455
46.3789
46.4607
46.5163
46.5297
46.5415
46.5877
46.6751
46.7641
46.8292
46.8383
46.711
46.4888
46.2669
46.111
46.0532
46.0358
46.0101
46.048
45.5805
40.0298
61.6123
80.8543
83.8298
82.6174
80.9498
79.7131
79.4356
79.0328
77.7446
75.4793
70.7191
59.2499
52.4672
62.2074
60.5352
52.8335
51.5839
57.0526
61.5136
63.5844
63.4894
62.1963
59.8119
57.4544
55.676
54.2688
53.1239
52.2569
51.6604
51.2999
51.1354
51.1162
51.1416
50.912
49.4176
47.6203
50.6997
52.0865
52.2633
52.0355
51.7392
51.463
51.203
50.9183
50.5769
50.1958
49.8418
49.5799
49.4054
49.2629
49.1178
49.0038
49.0298
49.3417
50.1115
51.5396
52.591
52.902
52.9375
52.9491
52.9969
53.0422
53.0536
53.0348
53.0213
53.0431
53.1068
53.1847
53.2519
53.2764
53.2029
53.0411
52.8209
52.52
52.0763
51.438
50.8237
50.535
48.9931
41.1438
57.4899
78.5243
84.5596
84.7997
84.0118
83.0535
82.0179
80.5503
78.6665
76.084
70.5535
58.1397
55.4436
66.1135
64.5521
57.8773
54.8508
59.4852
63.7974
65.0969
64.5357
63.3266
61.5277
59.3902
57.4033
55.7612
54.4685
53.4864
52.7581
52.2253
51.8561
51.6398
51.5308
51.2338
49.9236
48.2923
50.7977
52.2339
52.5231
52.3729
52.1191
51.8611
51.6111
51.3415
51.027
50.6813
50.3638
50.1294
49.9745
49.848
49.7199
49.6393
49.7501
50.2441
51.3399
53.1348
54.6232
55.2545
55.4655
55.5753
55.6501
55.6826
55.6698
55.6317
55.6063
55.6262
55.7024
55.8122
55.9151
55.9495
55.8349
55.5188
54.9705
54.1693
53.1704
52.2245
51.8063
51.6597
48.8713
40.1597
53.5293
74.1806
82.588
83.989
83.8137
83.2312
82.1874
80.6561
78.7534
76.1005
69.6048
57.6114
58.2328
68.469
67.3394
61.9873
58.0793
61.4652
64.7748
65.2364
64.5393
63.5516
62.1133
60.2328
58.3053
56.6066
55.2078
54.0904
53.2048
52.5095
52.0054
51.7147
51.5753
51.2347
50.0215
48.5621
50.4778
51.8966
52.2973
52.2552
52.0875
51.8918
51.687
51.4591
51.1949
50.905
50.6304
50.4115
50.2437
50.0883
49.9395
49.8815
50.0789
50.697
51.897
53.6654
55.1723
55.9492
56.2694
56.4439
56.5539
56.605
56.6061
56.586
56.5858
56.637
56.7399
56.8497
56.8856
56.7434
56.3267
55.5947
54.5847
53.4229
52.3798
51.8753
52.0651
51.6019
47.2675
38.7323
50.2014
69.3872
79.6396
82.0444
82.1017
81.702
80.8789
79.6747
78.1262
75.6828
69.5769
58.9821
61.1682
69.6816
68.9571
64.93
61.1083
63.2251
65.1298
64.8904
64.158
63.4249
62.2916
60.642
58.8199
57.0953
55.5797
54.3119
53.2912
52.5114
51.9889
51.721
51.5662
51.1329
49.9404
48.6162
49.9773
51.3104
51.8027
51.881
51.8377
51.7583
51.6508
51.5002
51.2966
51.043
50.7639
50.4983
50.265
50.0596
49.9086
49.9133
50.2139
50.9043
52.0903
53.7238
55.1383
55.9553
56.3314
56.5454
56.6941
56.7901
56.8426
56.8727
56.9043
56.945