/*--------------------------------*- C++ -*----------------------------------*\
| =========                 |                                                 |
| \\      /  F ield         | OpenFOAM: The Open Source CFD Toolbox           |
|  \\    /   O peration     | Version:  v2012                                 |
|   \\  /    A nd           | Website:  www.openfoam.com                      |
|    \\/     M anipulation  |                                                 |
\*---------------------------------------------------------------------------*/
FoamFile
{
    version     2.0;
    format      ascii;
    class       volScalarField;
    location    "550/air";
    object      rho;
}
// * * * * * * * * * * * * * * * * * * * * * * * * * * * * * * * * * * * * * //

dimensions      [1 -3 0 0 0 0 0];


internalField   nonuniform List<scalar> 
287104
(
0.999041
0.998146
0.997345
0.996614
0.99594
0.995313
0.994727
0.994176
0.993656
0.993163
0.992693
0.992245
0.991816
0.991404
0.991007
0.990623
0.990252
0.989891
0.989541
0.9892
0.988868
0.988543
0.988225
0.987914
0.987609
0.987309
0.987015
0.986726
0.986441
0.986161
0.985885
0.985613
0.985345
0.985081
0.98482
0.984562
0.984308
0.984056
0.983808
0.983563
0.983321
0.983081
0.982844
0.98261
0.982379
0.98215
0.981924
0.981701
0.98148
0.981262
0.981046
0.980833
0.980622
0.980414
0.980208
0.980005
0.979804
0.979605
0.979409
0.979215
0.979024
0.978835
0.978648
0.978464
0.978281
0.978101
0.977923
0.977747
0.977573
0.977402
0.977232
0.977064
0.976897
0.976733
0.97657
0.976409
0.976249
0.976091
0.975934
0.975779
0.975624
0.975471
0.975319
0.975167
0.975015
0.974863
0.97471
0.974553
0.974385
0.97419
0.999053
0.998171
0.997381
0.99666
0.995996
0.995379
0.994801
0.994259
0.993747
0.993263
0.992801
0.992361
0.99194
0.991535
0.991145
0.990769
0.990405
0.990052
0.989709
0.989375
0.98905
0.988732
0.988422
0.988118
0.98782
0.987527
0.98724
0.986958
0.986681
0.986408
0.986139
0.985874
0.985613
0.985356
0.985102
0.984851
0.984604
0.98436
0.984119
0.98388
0.983645
0.983412
0.983183
0.982956
0.982731
0.982509
0.98229
0.982073
0.981859
0.981648
0.981438
0.981232
0.981027
0.980825
0.980626
0.980429
0.980234
0.980042
0.979852
0.979664
0.979478
0.979295
0.979114
0.978935
0.978759
0.978584
0.978411
0.978241
0.978072
0.977906
0.977741
0.977578
0.977417
0.977257
0.977099
0.976943
0.976788
0.976635
0.976482
0.976331
0.976181
0.976032
0.975884
0.975737
0.975589
0.975442
0.975293
0.975141
0.974977
0.974784
0.999066
0.998196
0.997416
0.996706
0.99605
0.995441
0.994872
0.994337
0.993832
0.993354
0.992899
0.992465
0.99205
0.991651
0.991267
0.990896
0.990538
0.99019
0.989853
0.989524
0.989204
0.988891
0.988586
0.988287
0.987994
0.987706
0.987424
0.987147
0.986875
0.986607
0.986344
0.986084
0.985828
0.985576
0.985327
0.985082
0.98484
0.984601
0.984365
0.984133
0.983903
0.983676
0.983452
0.98323
0.983011
0.982795
0.982582
0.982371
0.982162
0.981956
0.981753
0.981552
0.981354
0.981158
0.980964
0.980773
0.980585
0.980398
0.980215
0.980033
0.979854
0.979677
0.979502
0.97933
0.979159
0.978991
0.978825
0.978661
0.978499
0.978339
0.978181
0.978025
0.97787
0.977717
0.977566
0.977416
0.977268
0.977121
0.976975
0.976831
0.976687
0.976545
0.976403
0.976262
0.976121
0.97598
0.975837
0.97569
0.975532
0.975345
0.999079
0.99822
0.997451
0.99675
0.996104
0.995503
0.994941
0.994414
0.993916
0.993444
0.992995
0.992567
0.992157
0.991763
0.991385
0.991019
0.990665
0.990322
0.989989
0.989665
0.989349
0.989041
0.988739
0.988445
0.988156
0.987873
0.987595
0.987322
0.987053
0.986789
0.98653
0.986274
0.986022
0.985774
0.985529
0.985287
0.985049
0.984814
0.984582
0.984353
0.984127
0.983904
0.983683
0.983465
0.98325
0.983038
0.982828
0.98262
0.982415
0.982213
0.982013
0.981816
0.981621
0.981429
0.981239
0.981051
0.980866
0.980683
0.980503
0.980325
0.980149
0.979975
0.979804
0.979634
0.979467
0.979302
0.979139
0.978977
0.978818
0.978661
0.978505
0.978351
0.978198
0.978047
0.977898
0.977749
0.977602
0.977456
0.977311
0.977167
0.977024
0.976881
0.976739
0.976596
0.976454
0.97631
0.976165
0.976016
0.975856
0.975666
0.999091
0.998244
0.997486
0.996795
0.996157
0.995564
0.99501
0.994489
0.993998
0.993532
0.99309
0.992667
0.992263
0.991874
0.9915
0.99114
0.99079
0.990452
0.990123
0.989804
0.989492
0.989188
0.988891
0.9886
0.988315
0.988036
0.987762
0.987493
0.987228
0.986968
0.986713
0.986461
0.986213
0.985969
0.985728
0.985491
0.985256
0.985026
0.984798
0.984573
0.984351
0.984132
0.983916
0.983703
0.983492
0.983284
0.983079
0.982876
0.982676
0.982478
0.982283
0.982091
0.981901
0.981714
0.981529
0.981346
0.981166
0.980988
0.980813
0.98064
0.980469
0.9803
0.980134
0.97997
0.979808
0.979647
0.979489
0.979333
0.979179
0.979026
0.978876
0.978726
0.978579
0.978433
0.978288
0.978145
0.978002
0.977861
0.977721
0.977582
0.977444
0.977307
0.97717
0.977034
0.976899
0.976763
0.976626
0.976487
0.976338
0.976161
0.999104
0.998269
0.99752
0.996838
0.996209
0.995624
0.995077
0.994564
0.994079
0.99362
0.993183
0.992766
0.992367
0.991983
0.991614
0.991258
0.990914
0.99058
0.990255
0.98994
0.989632
0.989332
0.989039
0.988752
0.988471
0.988196
0.987926
0.98766
0.9874
0.987144
0.986892
0.986645
0.986401
0.986161
0.985924
0.985691
0.985462
0.985236
0.985013
0.984793
0.984577
0.984363
0.984152
0.983945
0.98374
0.983539
0.98334
0.983145
0.982952
0.982762
0.982575
0.982391
0.982209
0.982031
0.981855
0.981682
0.981511
0.981344
0.981179
0.981017
0.980857
0.9807
0.980546
0.980394
0.980245
0.980099
0.979955
0.979813
0.979674
0.979537
0.979403
0.979271
0.979142
0.979015
0.97889
0.978768
0.978648
0.978531
0.978416
0.978304
0.978195
0.978089
0.977986
0.977886
0.97779
0.977697
0.977607
0.977518
0.97742
0.977299
0.999116
0.998292
0.997554
0.996881
0.996261
0.995684
0.995144
0.994637
0.994159
0.993705
0.993274
0.992863
0.992468
0.99209
0.991726
0.991374
0.991033
0.990703
0.990383
0.990071
0.989767
0.989471
0.989181
0.988898
0.988621
0.98835
0.988084
0.987823
0.987567
0.987316
0.987069
0.986826
0.986588
0.986354
0.986124
0.985898
0.985677
0.985459
0.985245
0.985034
0.984828
0.984625
0.984426
0.984233
0.984045
0.983862
0.983684
0.98351
0.983341
0.983176
0.983015
0.982857
0.982704
0.982554
0.982408
0.982265
0.982126
0.98199
0.981858
0.981729
0.981603
0.981481
0.981362
0.981247
0.981136
0.981028
0.980924
0.980823
0.980727
0.980634
0.980546
0.980463
0.980383
0.980309
0.98024
0.980175
0.980116
0.980061
0.980013
0.979969
0.979931
0.979899
0.979873
0.979853
0.979838
0.979825
0.97981
0.979784
0.979712
0.979627
0.999128
0.998316
0.997588
0.996924
0.996312
0.995742
0.99521
0.99471
0.994238
0.99379
0.993365
0.992958
0.992569
0.992196
0.991835
0.991488
0.991151
0.990825
0.990507
0.990199
0.989898
0.989605
0.989318
0.989039
0.988765
0.988498
0.988236
0.987981
0.98773
0.987486
0.987246
0.987012
0.986786
0.986568
0.986357
0.986153
0.985956
0.985765
0.985582
0.985405
0.985235
0.985071
0.984913
0.984761
0.984615
0.984476
0.984342
0.984213
0.984091
0.983973
0.983863
0.983759
0.983662
0.983571
0.983486
0.983408
0.983336
0.98327
0.98321
0.983157
0.983109
0.983067
0.983032
0.983002
0.982978
0.98296
0.982947
0.982941
0.98294
0.982945
0.982956
0.982972
0.982994
0.983021
0.983053
0.983091
0.983134
0.983182
0.983236
0.983294
0.983356
0.983422
0.983491
0.983561
0.983632
0.983701
0.983765
0.983817
0.983827
0.983774
0.99914
0.998339
0.997621
0.996966
0.996362
0.9958
0.995275
0.994781
0.994315
0.993873
0.993453
0.993051
0.992664
0.992291
0.991929
0.991578
0.991237
0.990904
0.990581
0.990266
0.989959
0.98966
0.989368
0.989085
0.988813
0.988554
0.988306
0.988069
0.987843
0.987628
0.987422
0.987226
0.98704
0.986863
0.986695
0.986537
0.986388
0.986249
0.986118
0.985995
0.98588
0.985772
0.985673
0.985582
0.985499
0.985425
0.985359
0.985301
0.985251
0.985209
0.985173
0.985143
0.985119
0.985101
0.985088
0.98508
0.985078
0.985081
0.985089
0.985101
0.985118
0.985139
0.985165
0.985194
0.985227
0.985264
0.985305
0.985348
0.985395
0.985445
0.985497
0.985552
0.985609
0.985668
0.98573
0.985792
0.985857
0.985922
0.985989
0.986057
0.986127
0.986197
0.986265
0.986331
0.986396
0.986457
0.986512
0.986559
0.986579
0.986557
0.999152
0.998362
0.997654
0.997008
0.996412
0.995857
0.995339
0.994852
0.994392
0.993956
0.993528
0.9931
0.992668
0.992236
0.991804
0.991378
0.990959
0.99055
0.990152
0.989767
0.989396
0.989039
0.988696
0.988368
0.988059
0.98777
0.987497
0.987239
0.986996
0.986766
0.986548
0.986342
0.986143
0.985949
0.985759
0.985574
0.985394
0.985219
0.985053
0.984894
0.984745
0.984605
0.984475
0.984357
0.98425
0.984153
0.984066
0.983987
0.983917
0.983856
0.983804
0.98376
0.983724
0.983697
0.983678
0.983669
0.983667
0.983675
0.98369
0.983713
0.983744
0.983783
0.983828
0.983881
0.98394
0.984005
0.984076
0.984152
0.984234
0.98432
0.984411
0.984506
0.984604
0.984706
0.98481
0.984917
0.985025
0.985135
0.985248
0.985367
0.985507
0.985655
0.985804
0.985951
0.986091
0.98622
0.986334
0.986429
0.986488
0.986494
0.999164
0.998384
0.997686
0.997049
0.996461
0.995914
0.995402
0.994921
0.994466
0.994024
0.9932
0.992318
0.991428
0.990551
0.989697
0.988874
0.988089
0.987346
0.986651
0.986007
0.985418
0.984883
0.984404
0.98398
0.983607
0.983282
0.982998
0.982751
0.982533
0.982338
0.982159
0.981993
0.981837
0.98169
0.981549
0.98141
0.981271
0.981133
0.980995
0.980855
0.980712
0.980568
0.980421
0.980275
0.980131
0.979989
0.979848
0.979711
0.979578
0.979451
0.979329
0.979214
0.979106
0.979005
0.978914
0.978831
0.978758
0.978696
0.978645
0.978604
0.978576
0.97856
0.978556
0.978565
0.978586
0.97862
0.978666
0.978725
0.978795
0.978877
0.97897
0.979073
0.979186
0.979309
0.97944
0.979579
0.979725
0.979879
0.980043
0.980346
0.98086
0.981336
0.981777
0.982189
0.982569
0.982917
0.983227
0.98349
0.983681
0.983765
0.999175
0.998407
0.997718
0.997089
0.996509
0.99597
0.995465
0.99499
0.994541
0.994105
0.993298
0.992435
0.991562
0.990697
0.989851
0.989032
0.988248
0.987502
0.986802
0.986151
0.985552
0.985009
0.984522
0.984091
0.983714
0.983387
0.983105
0.982861
0.982651
0.982465
0.982299
0.982146
0.982002
0.981861
0.98172
0.981577
0.981428
0.981278
0.981124
0.980963
0.980797
0.980623
0.980442
0.980259
0.980073
0.979881
0.979686
0.979487
0.979285
0.979079
0.97887
0.978657
0.978441
0.978222
0.978001
0.977777
0.977552
0.977326
0.9771
0.976875
0.976654
0.976437
0.976226
0.976023
0.975831
0.975651
0.975485
0.975337
0.975209
0.975102
0.975018
0.97496
0.974928
0.974923
0.974946
0.974996
0.975072
0.975175
0.975302
0.975475
0.975807
0.976236
0.976712
0.977206
0.977698
0.978173
0.978621
0.979032
0.979387
0.979666
0.999187
0.998429
0.997749
0.997129
0.996557
0.996025
0.995527
0.995058
0.994615
0.994184
0.99339
0.992541
0.991681
0.990829
0.989996
0.989189
0.988415
0.98768
0.98699
0.986348
0.98576
0.985227
0.984752
0.984334
0.983972
0.983661
0.983398
0.983175
0.982986
0.982824
0.982683
0.982556
0.982437
0.982323
0.98221
0.982093
0.981972
0.98185
0.981726
0.981598
0.981466
0.981328
0.981184
0.981042
0.9809
0.980757
0.980613
0.980469
0.980325
0.980181
0.980037
0.979894
0.979751
0.979608
0.979464
0.979321
0.979176
0.97903
0.978883
0.978733
0.97858
0.978424
0.978264
0.978101
0.977934
0.977762
0.977586
0.977406
0.977221
0.977032
0.976839
0.976643
0.976444
0.976244
0.976042
0.975841
0.975642
0.975447
0.975257
0.975092
0.975041
0.975075
0.975163
0.975285
0.975427
0.97558
0.975735
0.975884
0.976006
0.976086
0.999198
0.99845
0.99778
0.997169
0.996604
0.996079
0.995588
0.995125
0.994688
0.994263
0.993481
0.992645
0.991799
0.99096
0.99014
0.989345
0.988583
0.987859
0.987178
0.986547
0.985967
0.985443
0.984975
0.984565
0.984209
0.983905
0.983648
0.983431
0.983248
0.983093
0.982958
0.982837
0.982725
0.982618
0.982511
0.9824
0.982285
0.982169
0.982053
0.981932
0.981807
0.981677
0.981542
0.981409
0.981278
0.981148
0.981018
0.98089
0.980764
0.98064
0.980519
0.980402
0.980293
0.980193
0.980098
0.980008
0.979923
0.979841
0.979763
0.97969
0.979621
0.979556
0.979496
0.97944
0.979388
0.979341
0.979298
0.979259
0.979224
0.979193
0.979166
0.979141
0.979119
0.979099
0.97908
0.979062
0.979046
0.979035
0.979042
0.979173
0.979451
0.97968
0.97986
0.979996
0.980088
0.980134
0.98013
0.980064
0.979925
0.979761
0.999209
0.998472
0.997811
0.997208
0.996651
0.996133
0.995649
0.995192
0.994761
0.994341
0.993572
0.992749
0.991915
0.991089
0.990281
0.989499
0.988748
0.988035
0.987364
0.986742
0.986171
0.985655
0.985195
0.984791
0.984442
0.984143
0.983891
0.983678
0.983498
0.983345
0.983213
0.983094
0.982984
0.982878
0.982772
0.982662
0.982546
0.982429
0.982312
0.982191
0.982064
0.981932
0.981793
0.981657
0.981525
0.981392
0.981259
0.981128
0.980999
0.980872
0.980748
0.980628
0.98051
0.980397
0.980286
0.980179
0.980075
0.979973
0.979874
0.979782
0.979694
0.979611
0.97953
0.979453
0.979378
0.979306
0.979237
0.979173
0.979112
0.979057
0.979006
0.97896
0.97892
0.978885
0.978858
0.978838
0.978827
0.978829
0.978858
0.979016
0.979322
0.979591
0.979827
0.980037
0.98022
0.980377
0.980502
0.980581
0.980564
0.980377
0.99922
0.998493
0.997841
0.997247
0.996697
0.996187
0.995708
0.995258
0.994832
0.994418
0.993662
0.992851
0.992031
0.991218
0.990422
0.989652
0.988912
0.98821
0.98755
0.986937
0.986375
0.985867
0.985414
0.985017
0.984674
0.98438
0.984132
0.983922
0.983744
0.983592
0.983459
0.98334
0.98323
0.983123
0.983015
0.982901
0.982781
0.982659
0.982538
0.982411
0.982279
0.982139
0.981992
0.981849
0.981709
0.981568
0.981427
0.981287
0.981149
0.981012
0.980878
0.980748
0.98062
0.980495
0.980373
0.980252
0.980132
0.980014
0.979896
0.979779
0.979662
0.979544
0.979426
0.979306
0.979185
0.979063
0.978939
0.978812
0.978683
0.978552
0.978417
0.978279
0.978137
0.977992
0.977841
0.977686
0.977526
0.977361
0.97719
0.977027
0.976939
0.976901
0.97689
0.976891
0.976893
0.976892
0.976881
0.976858
0.976804
0.9767
0.999231
0.998514
0.997871
0.997285
0.996743
0.996239
0.995768
0.995324
0.994904
0.994495
0.993751
0.992953
0.992146
0.991346
0.990562
0.989803
0.989075
0.988384
0.987735
0.987131
0.986579
0.986079
0.985634
0.985244
0.984906
0.984618
0.984373
0.984165
0.983988
0.983835
0.983699
0.983577
0.983463
0.983352
0.983239
0.983119
0.982991
0.982862
0.982733
0.982598
0.982457
0.982308
0.982151
0.981997
0.981847
0.981696
0.981544
0.981393
0.981243
0.981096
0.980951
0.980811
0.980673
0.980537
0.980403
0.98027
0.980138
0.980005
0.979872
0.979738
0.979602
0.979465
0.979326
0.979185
0.979041
0.978895
0.978746
0.978595
0.978441
0.978285
0.978127
0.977967
0.977806
0.977646
0.977486
0.977328
0.977173
0.977023
0.97688
0.976757
0.976733
0.976793
0.976912
0.977072
0.977258
0.977461
0.977671
0.977879
0.978066
0.978216
0.999242
0.998535
0.997901
0.997322
0.996788
0.996291
0.995826
0.995388
0.994974
0.994571
0.993839
0.993054
0.992259
0.991471
0.990699
0.989952
0.989236
0.988556
0.987917
0.987324
0.986782
0.986292
0.985857
0.985475
0.985146
0.984865
0.984626
0.984422
0.984247
0.984093
0.983956
0.983831
0.983713
0.983599
0.983483
0.983361
0.983229
0.983097
0.982965
0.982826
0.982681
0.982527
0.982364
0.982205
0.98205
0.981893
0.981737
0.981581
0.981429
0.981281
0.981139
0.981003
0.980872
0.980746
0.980623
0.980502
0.980383
0.980266
0.980151
0.980037
0.979923
0.979811
0.9797
0.97959
0.979481
0.979374
0.979269
0.979167
0.979069
0.978975
0.978886
0.978803
0.978728
0.978661
0.978604
0.978557
0.978521
0.978501
0.978501
0.978546
0.978723
0.978985
0.979292
0.979619
0.979952
0.980278
0.980589
0.980878
0.981127
0.981313
0.999252
0.998555
0.99793
0.99736
0.996833
0.996343
0.995884
0.995452
0.995044
0.994647
0.993926
0.993153
0.99237
0.991594
0.990835
0.9901
0.989397
0.988731
0.988109
0.987535
0.987013
0.986547
0.986137
0.985783
0.985481
0.985227
0.985012
0.984831
0.984673
0.984535
0.984409
0.984294
0.984184
0.984079
0.983972
0.983858
0.983734
0.983608
0.98348
0.983344
0.983197
0.983039
0.982868
0.982698
0.98253
0.982361
0.982191
0.982025
0.981866
0.981716
0.981578
0.981452
0.981337
0.981232
0.981134
0.981045
0.980963
0.980888
0.980821
0.980759
0.980703
0.980652
0.980605
0.980563
0.980525
0.980492
0.980463
0.980439
0.980421
0.980408
0.980402
0.980404
0.980412
0.980429
0.980454
0.980488
0.980532
0.980606
0.980731
0.981022
0.981473
0.981888
0.982273
0.982632
0.982966
0.983276
0.983557
0.983803
0.983981
0.98405
0.999262
0.998575
0.997959
0.997396
0.996877
0.996393
0.995941
0.995515
0.995112
0.99472
0.994006
0.993239
0.992464
0.991703
0.99097
0.990274
0.989626
0.989031
0.988497
0.988024
0.987613
0.987262
0.986965
0.986716
0.986509
0.986334
0.986185
0.986053
0.985933
0.985819
0.98571
0.985604
0.985499
0.985396
0.985289
0.985175
0.985049
0.984919
0.984782
0.984633
0.984468
0.984285
0.984083
0.983875
0.983663
0.983443
0.983221
0.983001
0.98279
0.982593
0.982416
0.98226
0.982126
0.982014
0.981924
0.981857
0.981828
0.981826
0.981843
0.981874
0.981912
0.981956
0.982002
0.982051
0.982101
0.982153
0.982206
0.982262
0.98232
0.982381
0.982446
0.982514
0.982586
0.982663
0.982745
0.982833
0.982928
0.983035
0.983169
0.98344
0.983846
0.9842
0.984514
0.984798
0.985056
0.985292
0.985502
0.985684
0.985815
0.985867
0.999273
0.998595
0.997987
0.997432
0.99692
0.996444
0.995998
0.995578
0.995182
0.994806
0.994447
0.994099
0.993764
0.993437
0.993119
0.99281
0.992509
0.992217
0.991934
0.991659
0.991392
0.991134
0.990885
0.990643
0.990409
0.990182
0.989963
0.98975
0.989542
0.989339
0.98914
0.988945
0.988756
0.988571
0.988391
0.988212
0.988035
0.98786
0.987689
0.987518
0.987348
0.987177
0.987004
0.986833
0.986665
0.986501
0.986344
0.986196
0.986059
0.985934
0.985823
0.985724
0.985638
0.985564
0.985502
0.985452
0.985413
0.985384
0.985364
0.985353
0.98535
0.985354
0.985364
0.98538
0.985401
0.985426
0.985456
0.98549
0.985527
0.985568
0.985612
0.985659
0.985708
0.985761
0.985815
0.985872
0.985932
0.985995
0.986061
0.986134
0.986221
0.986313
0.986407
0.986502
0.986595
0.986684
0.986766
0.986836
0.986876
0.986868
0.999283
0.998615
0.998015
0.997468
0.996963
0.996493
0.996053
0.99564
0.995249
0.994878
0.994525
0.994188
0.993864
0.993553
0.993252
0.992962
0.992682
0.99241
0.992146
0.99189
0.991641
0.991399
0.991164
0.990934
0.990711
0.990493
0.990281
0.990073
0.989869
0.989667
0.989468
0.989273
0.98908
0.988891
0.988706
0.988522
0.988339
0.98816
0.987986
0.987813
0.987644
0.987476
0.98731
0.987149
0.986995
0.986846
0.986703
0.986567
0.98644
0.986324
0.986219
0.986124
0.986038
0.985961
0.985892
0.985832
0.98578
0.985736
0.9857
0.98567
0.985647
0.98563
0.985619
0.985613
0.985612
0.985615
0.985623
0.985635
0.985651
0.985671
0.985694
0.98572
0.98575
0.985782
0.985818
0.985856
0.985897
0.985941
0.985988
0.986039
0.986092
0.986146
0.986197
0.986247
0.986293
0.986335
0.98637
0.986394
0.986386
0.986331
0.999293
0.998634
0.998043
0.997504
0.997006
0.996543
0.996109
0.995701
0.995316
0.994951
0.994603
0.994271
0.993952
0.993647
0.993352
0.993068
0.992792
0.992525
0.992266
0.992014
0.991768
0.991529
0.991295
0.991066
0.990842
0.990623
0.990408
0.990198
0.98999
0.989785
0.989582
0.989382
0.989184
0.988989
0.988798
0.988609
0.988421
0.988236
0.988055
0.987875
0.987697
0.98752
0.98734
0.987163
0.986988
0.986812
0.986637
0.986464
0.986294
0.986129
0.985969
0.985814
0.985665
0.985525
0.985395
0.985272
0.985158
0.985052
0.984953
0.98486
0.984774
0.984694
0.98462
0.984551
0.984487
0.984428
0.984374
0.984324
0.984278
0.984237
0.9842
0.984166
0.984136
0.98411
0.984088
0.984068
0.984052
0.984038
0.984027
0.984019
0.984012
0.984007
0.984004
0.984001
0.983998
0.983994
0.983984
0.983964
0.983918
0.98386
0.999303
0.998654
0.998071
0.99754
0.997049
0.996592
0.996164
0.995762
0.995383
0.995022
0.99468
0.994352
0.994038
0.993737
0.993446
0.993166
0.992895
0.992631
0.992376
0.992127
0.991885
0.991648
0.991417
0.991191
0.990969
0.990752
0.990539
0.99033
0.990124
0.989921
0.989719
0.989519
0.989321
0.989127
0.988935
0.988746
0.988558
0.988374
0.988195
0.988021
0.98785
0.987684
0.987518
0.987354
0.987193
0.987031
0.986868
0.986707
0.986548
0.986392
0.986241
0.986094
0.985952
0.985815
0.985684
0.98556
0.985442
0.985331
0.985227
0.985131
0.985043
0.984962
0.984888
0.984821
0.984761
0.984708
0.98466
0.984618
0.98458
0.984546
0.984516
0.984488
0.984463
0.984439
0.984417
0.984395
0.984374
0.984352
0.984329
0.984306
0.984282
0.984256
0.984228
0.984197
0.984164
0.984128
0.984087
0.984042
0.983987
0.983911
0.999313
0.998673
0.998099
0.997575
0.997091
0.996641
0.996219
0.995823
0.995449
0.995094
0.994756
0.994433
0.994124
0.993827
0.993541
0.993265
0.992997
0.992738
0.992486
0.992241
0.992002
0.991769
0.99154
0.991317
0.991098
0.990883
0.990672
0.990465
0.99026
0.990058
0.989857
0.989659
0.989461
0.989267
0.989076
0.988887
0.9887
0.98852
0.988352
0.988202
0.988073
0.987961
0.987856
0.987757
0.987662
0.987566
0.98747
0.987374
0.98728
0.987187
0.987101
0.987022
0.986952
0.98689
0.986838
0.986794
0.98676
0.986733
0.986714
0.9867
0.986691
0.986686
0.986683
0.986681
0.986679
0.986676
0.986672
0.986666
0.986656
0.986644
0.986629
0.98661
0.986587
0.986561
0.986531
0.986498
0.986462
0.986422
0.98638
0.986334
0.986286
0.986234
0.986179
0.98612
0.986058
0.985991
0.985919
0.985842
0.985755
0.985648
0.999323
0.998692
0.998127
0.99761
0.997133
0.996689
0.996274
0.995883
0.995514
0.995165
0.994831
0.994513
0.994208
0.993916
0.993633
0.993361
0.993097
0.992841
0.992593
0.992351
0.992115
0.991884
0.991659
0.991439
0.991222
0.99101
0.9908
0.990594
0.990391
0.990189
0.98999
0.989792
0.989595
0.9894
0.989209
0.98902
0.988835
0.988667
0.988549
0.988504
0.98853
0.988598
0.988681
0.988767
0.98885
0.988924
0.988989
0.989047
0.989099
0.989146
0.989184
0.989218
0.989247
0.989272
0.98929
0.989301
0.989306
0.989305
0.989298
0.989285
0.989267
0.989244
0.989217
0.989185
0.98915
0.989111
0.989068
0.989023
0.988974
0.988922
0.988868
0.988811
0.988752
0.988691
0.988628
0.988564
0.988497
0.98843
0.988361
0.98829
0.988219
0.988146
0.988072
0.987996
0.987918
0.987838
0.987755
0.987669
0.987574
0.987464
0.999333
0.998711
0.998154
0.997644
0.997174
0.996737
0.996327
0.995942
0.995578
0.995233
0.994905
0.994591
0.99429
0.994001
0.993723
0.993454
0.993194
0.992942
0.992696
0.992457
0.992224
0.991997
0.991774
0.991556
0.991342
0.991131
0.990924
0.990719
0.990516
0.990315
0.990115
0.989917
0.989719
0.989524
0.989331
0.989141
0.988958
0.988859
0.988987
0.989302
0.98972
0.990129
0.990473
0.990755
0.990976
0.991142
0.991261
0.991344
0.991397
0.991427
0.991437
0.991428
0.991404
0.991369
0.991324
0.991273
0.991216
0.991155
0.991092
0.991027
0.99096
0.990893
0.990824
0.990754
0.990684
0.990613
0.990541
0.990468
0.990395
0.99032
0.990245
0.99017
0.990094
0.990017
0.98994
0.989863
0.989785
0.989707
0.98963
0.989553
0.989475
0.989398
0.989319
0.98924
0.989159
0.989077
0.988994
0.988907
0.988814
0.988708
0.999342
0.998729
0.998179
0.997677
0.997213
0.996781
0.996377
0.995997
0.995639
0.995298
0.994974
0.994664
0.994367
0.994082
0.993807
0.993542
0.993285
0.993035
0.992793
0.992556
0.992326
0.992101
0.99188
0.991664
0.991452
0.991243
0.991037
0.990833
0.99063
0.990429
0.990229
0.990029
0.989829
0.989631
0.989434
0.989242
0.989072
0.989186
0.989881
0.990812
0.991619
0.992172
0.992549
0.992774
0.99289
0.99293
0.99292
0.992878
0.992817
0.992744
0.992663
0.992579
0.992492
0.992405
0.992318
0.992232
0.992148
0.992066
0.991985
0.991905
0.991827
0.991749
0.991672
0.991596
0.991522
0.991448
0.991373
0.991299
0.991225
0.991151
0.991077
0.991002
0.990927
0.990853
0.990778
0.990704
0.99063
0.990556
0.990482
0.990409
0.990335
0.990262
0.990188
0.990114
0.990038
0.989961
0.98988
0.989792
0.989693
0.989585
0.99935
0.998745
0.998202
0.997706
0.997248
0.996822
0.996423
0.996047
0.995693
0.995356
0.995036
0.99473
0.994436
0.994154
0.993883
0.99362
0.993366
0.993119
0.992878
0.992644
0.992416
0.992192
0.991973
0.991758
0.991547
0.991339
0.991134
0.99093
0.990728
0.990526
0.990324
0.990122
0.989919
0.989717
0.989515
0.989318
0.989228
0.989731
0.991467
0.992797
0.993615
0.994031
0.994154
0.994146
0.994065
0.993941
0.993799
0.993652
0.993509
0.993374
0.993249
0.993134
0.993029
0.992932
0.99284
0.992753
0.992671
0.992595
0.992522
0.992451
0.99238
0.992309
0.992239
0.992168
0.992096
0.992025
0.991952
0.99188
0.991807
0.991735
0.991662
0.991589
0.991517
0.991444
0.991372
0.991301
0.99123
0.991159
0.991089
0.991019
0.990949
0.99088
0.990811
0.990742
0.990672
0.9906
0.990525
0.990443
0.990344
0.990227
0.999357
0.998758
0.998221
0.99773
0.997277
0.996855
0.99646
0.996088
0.995737
0.995404
0.995087
0.994784
0.994493
0.994214
0.993945
0.993684
0.993432
0.993187
0.992948
0.992716
0.992488
0.992266
0.992047
0.991833
0.991622
0.991414
0.991208
0.991004
0.990801
0.990597
0.990394
0.990189
0.989983
0.989775
0.989569
0.989368
0.989275
0.989807
0.991834
0.993386
0.994394
0.994957
0.994959
0.994866
0.994724
0.994553
0.994372
0.994193
0.994022
0.993866
0.993724
0.993593
0.993474
0.99337
0.993276
0.993189
0.993108
0.993029
0.992953
0.992878
0.992803
0.992729
0.992655
0.992581
0.992507
0.992432
0.992358
0.992284
0.992209
0.992136
0.992062
0.991989
0.991917
0.991846
0.991775
0.991705
0.991636
0.991567
0.9915
0.991433
0.991367
0.991301
0.991236
0.99117
0.991104
0.991036
0.990964
0.990886
0.990791
0.990671
0.999362
0.998768
0.998235
0.997748
0.997298
0.99688
0.996488
0.996119
0.99577
0.99544
0.995125
0.994823
0.994535
0.994257
0.993989
0.993731
0.99348
0.993236
0.992998
0.992766
0.992539
0.992317
0.992098
0.991883
0.991672
0.991462
0.991255
0.991049
0.990844
0.990638
0.990431
0.990224
0.990015
0.989807
0.989603
0.98941
0.989304
0.989804
0.991964
0.993667
0.994823
0.995526
0.995431
0.995272
0.995085
0.994884
0.994685
0.994493
0.994312
0.994144
0.993989
0.993849
0.993726
0.993615
0.993514
0.99342
0.993331
0.993246
0.993163
0.993083
0.993004
0.992926
0.992848
0.992771
0.992695
0.992619
0.992544
0.992469
0.992395
0.992321
0.992249
0.992177
0.992106
0.992036
0.991967
0.991899
0.991833
0.991767
0.991703
0.991639
0.991576
0.991514
0.991452
0.991389
0.991325
0.991259
0.991188
0.99111
0.991015
0.990893
0.999365
0.998774
0.998244
0.997759
0.997312
0.996895
0.996505
0.996138
0.995791
0.995461
0.995147
0.994847
0.994559
0.994282
0.994015
0.993757
0.993506
0.993263
0.993025
0.992793
0.992566
0.992343
0.992124
0.991908
0.991694
0.991483
0.991274
0.991065
0.990857
0.990649
0.99044
0.990232
0.990027
0.989833
0.989657
0.989507
0.989394
0.989799
0.991857
0.993548
0.99473
0.995477
0.995353
0.99517
0.994972
0.994772
0.99458
0.994401
0.994235
0.994082
0.993939
0.99381
0.993692
0.993582
0.99348
0.993383
0.99329
0.993201
0.993115
0.993031
0.99295
0.992869
0.99279
0.992712
0.992635
0.992559
0.992483
0.992409
0.992335
0.992262
0.992191
0.992121
0.992052
0.991984
0.991918
0.991854
0.991791
0.991729
0.991669
0.991609
0.99155
0.991492
0.991433
0.991373
0.99131
0.991245
0.991174
0.991093
0.990993
0.990861
0.999367
0.998777
0.998248
0.997765
0.997318
0.996902
0.996513
0.996146
0.9958
0.995471
0.995157
0.994857
0.99457
0.994293
0.994025
0.993767
0.993515
0.993271
0.993033
0.9928
0.992572
0.992347
0.992127
0.991909
0.991693
0.99148
0.991268
0.991058
0.990848
0.99064
0.990436
0.99024
0.990062
0.989921
0.989837
0.989812
0.98974
0.989677
0.990376
0.991281
0.992261
0.993098
0.993222
0.993297
0.993347
0.993371
0.993378
0.99337
0.993348
0.993315
0.993271
0.993221
0.993164
0.993102
0.993036
0.992967
0.992896
0.992823
0.992751
0.992677
0.992603
0.992528
0.992452
0.992376
0.9923
0.992224
0.992147
0.992071
0.991995
0.99192
0.991845
0.991773
0.991702
0.991632
0.991565
0.9915
0.991437
0.991375
0.991316
0.991257
0.9912
0.991142
0.991084
0.991024
0.99096
0.990892
0.990815
0.990726
0.990615
0.99049
0.999367
0.998777
0.998248
0.997765
0.997319
0.996903
0.996514
0.996147
0.995801
0.995472
0.995159
0.994859
0.994571
0.994294
0.994026
0.993766
0.993515
0.993269
0.99303
0.992796
0.992566
0.99234
0.992117
0.991897
0.991679
0.991463
0.99125
0.99104
0.990835
0.99064
0.990461
0.990313
0.990218
0.990211
0.990316
0.990493
0.990486
0.990404
0.990864
0.991284
0.991704
0.992096
0.991896
0.991722
0.991607
0.991553
0.991562
0.991626
0.991726
0.991841
0.991952
0.992048
0.992123
0.992175
0.992204
0.992212
0.992202
0.992175
0.992137
0.992086
0.992024
0.991954
0.991877
0.991796
0.991711
0.991624
0.991535
0.991444
0.991352
0.991261
0.991169
0.99108
0.990992
0.990906
0.990823
0.990744
0.990667
0.990594
0.990523
0.990456
0.99039
0.990325
0.990262
0.990197
0.990131
0.990062
0.989987
0.989903
0.989804
0.989681
0.999366
0.998776
0.998247
0.997763
0.997316
0.9969
0.996511
0.996144
0.995798
0.995469
0.995155
0.994855
0.994567
0.99429
0.994022
0.993762
0.99351
0.993264
0.993024
0.992789
0.992558
0.99233
0.992106
0.991884
0.991664
0.991447
0.991237
0.991038
0.99086
0.990713
0.99061
0.990576
0.990638
0.990834
0.991154
0.991444
0.991372
0.991225
0.991741
0.992196
0.992578
0.992884
0.992469
0.992081
0.991764
0.991503
0.9913
0.991169
0.991111
0.991113
0.991158
0.991225
0.991299
0.991365
0.991417
0.991448
0.991459
0.991453
0.991432
0.991392
0.991334
0.991259
0.991168
0.991063
0.990946
0.990819
0.990683
0.990541
0.990394
0.990246
0.990097
0.98995
0.989805
0.989665
0.98953
0.989401
0.989278
0.989162
0.989052
0.988948
0.98885
0.988755
0.988664
0.988573
0.988482
0.988386
0.988284
0.98817
0.988036
0.98787
0.999366
0.998775
0.998245
0.997761
0.997313
0.996897
0.996507
0.99614
0.995793
0.995464
0.99515
0.99485
0.994562
0.994284
0.994016
0.993757
0.993504
0.993258
0.993018
0.992782
0.99255
0.992322
0.992096
0.991873
0.991652
0.991438
0.991245
0.991098
0.991012
0.990996
0.991057
0.991202
0.991442
0.991783
0.99216
0.992285
0.991958
0.991554
0.99218
0.992744
0.993168
0.993417
0.992367
0.991432
0.990713
0.990279
0.990072
0.990011
0.990038
0.99012
0.990228
0.990346
0.990458
0.990554
0.990626
0.990668
0.990676
0.990649
0.99059
0.990498
0.990375
0.990218
0.990034
0.989837
0.989638
0.989445
0.989264
0.989099
0.988951
0.988819
0.988702
0.988597
0.9885
0.988408
0.988319
0.988231
0.98814
0.988046
0.987948
0.987846
0.98774
0.987629
0.987515
0.987397
0.987276
0.987152
0.987024
0.986893
0.986754
0.986606
0.999365
0.998774
0.998244
0.997759
0.997311
0.996895
0.996504
0.996137
0.99579
0.99546
0.995146
0.994845
0.994557
0.994279
0.99401
0.99375
0.993498
0.993251
0.99301
0.992774
0.992541
0.992312
0.992086
0.991862
0.991643
0.991451
0.991373
0.991418
0.991572
0.991794
0.992032
0.992284
0.992539
0.992786
0.992942
0.992676