/*--------------------------------*- C++ -*----------------------------------*\
| =========                 |                                                 |
| \\      /  F ield         | OpenFOAM: The Open Source CFD Toolbox           |
|  \\    /   O peration     | Version:  v2012                                 |
|   \\  /    A nd           | Website:  www.openfoam.com                      |
|    \\/     M anipulation  |                                                 |
\*---------------------------------------------------------------------------*/
FoamFile
{
    version     2.0;
    format      ascii;
    class       volScalarField;
    location    "550/air";
    object      TLeaf;
}
// * * * * * * * * * * * * * * * * * * * * * * * * * * * * * * * * * * * * * //

dimensions      [0 0 0 1 0 0 0];


internalField   nonuniform List<scalar> 
287104
(
310.32
310.618
310.885
311.129
311.353
311.562
311.758
311.941
312.115
312.279
312.436
312.585
312.728
312.865
312.998
313.126
313.249
313.37
313.486
313.6
313.711
313.819
313.925
314.029
314.13
314.23
314.328
314.425
314.52
314.613
314.705
314.796
314.885
314.973
315.06
315.146
315.231
315.315
315.397
315.479
315.56
315.64
315.719
315.797
315.874
315.95
316.025
316.1
316.173
316.246
316.318
316.389
316.459
316.529
316.597
316.665
316.732
316.798
316.864
316.928
316.992
317.055
317.117
317.179
317.24
317.3
317.359
317.418
317.476
317.533
317.589
317.645
317.701
317.756
317.81
317.864
317.917
317.97
318.022
318.074
318.125
318.176
318.227
318.278
318.328
318.379
318.43
318.482
318.538
318.603
310.316
310.61
310.873
311.113
311.335
311.54
311.733
311.914
312.084
312.246
312.4
312.546
312.687
312.822
312.952
313.077
313.198
313.316
313.43
313.542
313.65
313.756
313.859
313.961
314.06
314.158
314.253
314.347
314.44
314.531
314.62
314.709
314.796
314.881
314.966
315.05
315.132
315.213
315.294
315.373
315.452
315.529
315.606
315.681
315.756
315.83
315.903
315.976
316.047
316.117
316.187
316.256
316.324
316.392
316.458
316.524
316.589
316.653
316.716
316.779
316.841
316.902
316.962
317.022
317.08
317.139
317.196
317.253
317.309
317.365
317.42
317.474
317.528
317.581
317.634
317.686
317.737
317.788
317.839
317.89
317.94
317.989
318.039
318.088
318.137
318.186
318.236
318.286
318.341
318.405
310.311
310.601
310.861
311.098
311.317
311.52
311.709
311.888
312.056
312.215
312.367
312.512
312.65
312.783
312.911
313.035
313.154
313.27
313.382
313.492
313.599
313.703
313.805
313.904
314.002
314.098
314.192
314.284
314.375
314.464
314.552
314.639
314.724
314.808
314.891
314.973
315.053
315.133
315.212
315.289
315.366
315.441
315.516
315.59
315.663
315.735
315.806
315.876
315.946
316.015
316.082
316.149
316.215
316.281
316.345
316.409
316.472
316.534
316.595
316.656
316.715
316.774
316.833
316.89
316.947
317.003
317.058
317.113
317.167
317.22
317.273
317.325
317.377
317.428
317.478
317.528
317.577
317.626
317.675
317.723
317.771
317.818
317.866
317.913
317.96
318.007
318.054
318.103
318.156
318.218
310.307
310.593
310.85
311.083
311.299
311.499
311.686
311.862
312.028
312.185
312.335
312.478
312.614
312.746
312.872
312.994
313.112
313.226
313.337
313.445
313.55
313.653
313.754
313.852
313.948
314.042
314.135
314.226
314.316
314.404
314.49
314.575
314.659
314.742
314.824
314.904
314.984
315.062
315.139
315.216
315.291
315.365
315.439
315.512
315.583
315.654
315.724
315.793
315.862
315.929
315.996
316.061
316.126
316.19
316.254
316.316
316.378
316.439
316.499
316.558
316.617
316.675
316.732
316.789
316.844
316.899
316.954
317.008
317.061
317.113
317.165
317.216
317.267
317.318
317.367
317.417
317.466
317.515
317.563
317.611
317.659
317.706
317.754
317.801
317.849
317.897
317.945
317.995
318.048
318.111
310.303
310.585
310.838
311.068
311.281
311.479
311.663
311.837
312.001
312.156
312.303
312.444
312.579
312.709
312.833
312.953
313.07
313.183
313.292
313.399
313.503
313.604
313.703
313.8
313.895
313.988
314.079
314.169
314.257
314.344
314.429
314.513
314.596
314.677
314.757
314.836
314.915
314.991
315.067
315.142
315.216
315.289
315.361
315.432
315.503
315.572
315.64
315.708
315.775
315.841
315.906
315.97
316.033
316.095
316.157
316.218
316.278
316.337
316.396
316.453
316.51
316.567
316.622
316.677
316.731
316.784
316.837
316.889
316.94
316.991
317.041
317.091
317.14
317.189
317.237
317.285
317.333
317.38
317.426
317.473
317.519
317.564
317.61
317.655
317.7
317.746
317.791
317.838
317.887
317.946
310.299
310.577
310.827
311.054
311.264
311.459
311.641
311.812
311.974
312.127
312.272
312.411
312.544
312.672
312.795
312.914
313.029
313.14
313.248
313.353
313.456
313.556
313.654
313.749
313.843
313.935
314.025
314.113
314.2
314.285
314.369
314.452
314.533
314.613
314.692
314.77
314.846
314.921
314.996
315.069
315.141
315.212
315.283
315.352
315.42
315.487
315.553
315.618
315.683
315.746
315.808
315.87
315.93
315.99
316.048
316.106
316.163
316.219
316.274
316.328
316.381
316.433
316.485
316.535
316.585
316.634
316.682
316.729
316.775
316.821
316.866
316.91
316.953
316.995
317.037
317.077
317.117
317.156
317.195
317.232
317.268
317.304
317.338
317.371
317.403
317.434
317.464
317.494
317.527
317.567
310.295
310.569
310.815
311.04
311.246
311.439
311.619
311.788
311.947
312.098
312.242
312.379
312.511
312.637
312.758
312.875
312.989
313.099
313.206
313.31
313.411
313.51
313.606
313.701
313.793
313.883
313.972
314.059
314.144
314.228
314.31
314.391
314.471
314.549
314.625
314.701
314.774
314.847
314.918
314.989
315.057
315.125
315.191
315.256
315.318
315.379
315.439
315.497
315.553
315.608
315.662
315.714
315.765
315.815
315.864
315.912
315.958
316.003
316.047
316.09
316.132
316.173
316.213
316.251
316.288
316.324
316.359
316.392
316.424
316.455
316.485
316.512
316.539
316.564
316.587
316.608
316.628
316.646
316.662
316.677
316.69
316.7
316.709
316.716
316.721
316.725
316.73
316.739
316.763
316.791
310.291
310.561
310.804
311.025
311.229
311.419
311.597
311.763
311.921
312.07
312.212
312.347
312.477
312.601
312.722
312.837
312.95
313.058
313.164
313.267
313.367
313.465
313.561
313.654
313.745
313.834
313.921
314.006
314.09
314.171
314.251
314.329
314.405
314.477
314.548
314.616
314.681
314.745
314.806
314.865
314.922
314.976
315.029
315.08
315.128
315.175
315.219
315.262
315.303
315.342
315.379
315.414
315.446
315.476
315.505
315.531
315.555
315.577
315.597
315.614
315.63
315.644
315.656
315.666
315.674
315.68
315.684
315.686
315.687
315.685
315.681
315.676
315.669
315.66
315.649
315.636
315.622
315.606
315.588
315.569
315.548
315.526
315.503
315.48
315.456
315.433
315.412
315.394
315.391
315.409
310.287
310.554
310.793
311.011
311.213
311.4
311.575
311.74
311.895
312.042
312.182
312.316
312.445
312.57
312.69
312.807
312.921
313.032
313.14
313.245
313.347
313.447
313.544
313.638
313.729
313.815
313.898
313.977
314.052
314.124
314.193
314.258
314.32
314.379
314.435
314.488
314.537
314.584
314.627
314.668
314.707
314.743
314.776
314.806
314.834
314.858
314.88
314.9
314.916
314.93
314.942
314.952
314.96
314.966
314.971
314.973
314.974
314.973
314.97
314.966
314.961
314.954
314.945
314.935
314.924
314.912
314.898
314.884
314.868
314.852
314.834
314.816
314.797
314.777
314.757
314.736
314.714
314.693
314.67
314.648
314.624
314.601
314.578
314.556
314.535
314.514
314.496
314.48
314.474
314.481
310.283
310.546
310.782
310.997
311.196
311.381
311.554
311.716
311.869
312.015
312.157
312.3
312.444
312.588
312.732
312.874
313.014
313.15
313.283
313.411
313.535
313.654
313.768
313.877
313.98
314.077
314.168
314.254
314.335
314.411
314.484
314.553
314.619
314.684
314.747
314.809
314.869
314.927
314.982
315.035
315.085
315.132
315.175
315.214
315.25
315.282
315.311
315.338
315.361
315.381
315.399
315.413
315.425
315.434
315.441
315.444
315.444
315.442
315.437
315.429
315.419
315.406
315.391
315.373
315.353
315.332
315.308
315.283
315.255
315.227
315.196
315.165
315.132
315.098
315.063
315.028
314.992
314.955
314.917
314.878
314.831
314.782
314.732
314.683
314.636
314.593
314.555
314.524
314.504
314.502
310.279
310.539
310.771
310.984
311.18
311.362
311.533
311.693
311.845
311.992
314.784
314.882
315.08
315.304
315.526
315.738
315.935
316.116
316.28
316.427
316.557
316.671
316.769
316.853
316.924
316.983
317.033
317.074
317.108
317.139
317.166
317.191
317.213
317.234
317.255
317.283
317.307
317.314
317.321
317.339
317.358
317.386
317.413
317.418
317.425
317.444
317.46
317.476
317.49
317.503
317.516
317.527
317.538
317.548
317.556
317.562
317.567
317.57
317.571
317.571
317.569
317.565
317.558
317.55
317.54
317.529
317.517
317.504
317.49
317.474
317.458
317.441
317.422
317.402
317.38
317.358
317.334
317.308
317.279
317.244
316.38
316.221
316.074
315.937
315.81
315.694
315.591
315.503
315.44
315.412
310.275
310.531
310.761
310.97
311.164
311.343
311.512
311.67
311.82
311.965
314.631
314.717
314.91
315.133
315.357
315.571
315.771
315.956
316.124
316.274
316.408
316.525
316.626
316.712
316.784
316.844
316.893
316.933
316.966
316.993
317.017
317.039
317.06
317.079
317.103
317.138
317.17
317.179
317.188
317.214
317.244
317.286
317.331
317.345
317.362
317.398
317.43
317.463
317.497
317.531
317.566
317.601
317.637
317.672
317.707
317.741
317.776
317.809
317.842
317.873
317.903
317.931
317.958
317.983
318.007
318.029
318.049
318.067
318.082
318.094
318.102
318.107
318.107
318.104
318.096
318.084
318.067
318.046
318.02
318.003
318.064
317.921
317.763
317.598
317.434
317.276
317.126
316.989
316.871
316.778
310.271
310.524
310.75
310.957
311.148
311.325
311.491
311.647
311.795
311.939
314.515
314.598
314.787
315.006
315.227
315.438
315.636
315.818
315.983
316.132
316.264
316.379
316.478
316.562
316.631
316.689
316.735
316.771
316.8
316.822
316.841
316.857
316.872
316.887
316.907
316.941
316.972
316.972
316.97
316.992
317.016
317.056
317.101
317.103
317.109
317.139
317.164
317.19
317.217
317.244
317.272
317.3
317.328
317.355
317.382
317.409
317.436
317.463
317.49
317.516
317.543
317.57
317.598
317.627
317.658
317.689
317.722
317.756
317.79
317.823
317.857
317.891
317.925
317.957
317.989
318.019
318.047
318.072
318.095
318.127
318.32
318.308
318.279
318.238
318.191
318.14
318.088
318.039
317.998
317.971
310.267
310.517
310.74
310.944
311.132
311.307
311.471
311.625
311.771
311.912
314.404
314.485
314.671
314.886
315.103
315.311
315.506
315.685
315.849
315.995
316.125
316.239
316.336
316.418
316.487
316.543
316.589
316.626
316.653
316.674
316.69
316.704
316.716
316.729
316.748
316.785
316.82
316.814
316.805
316.825
316.848
316.89
316.94
316.935
316.934
316.962
316.985
317.009
317.033
317.058
317.083
317.106
317.127
317.147
317.166
317.183
317.2
317.216
317.231
317.245
317.258
317.271
317.284
317.297
317.311
317.324
317.336
317.348
317.358
317.368
317.377
317.384
317.391
317.396
317.4
317.403
317.403
317.402
317.395
317.383
316.85
316.773
316.713
316.668
316.637
316.622
316.623
316.645
316.692
316.746
310.264
310.509
310.73
310.931
311.116
311.289
311.45
311.603
311.746
311.886
314.294
314.373
314.556
314.768
314.981
315.186
315.378
315.554
315.715
315.86
315.988
316.099
316.195
316.276
316.343
316.4
316.446
316.484
316.512
316.533
316.547
316.558
316.568
316.579
316.598
316.638
316.677
316.669
316.654
316.674
316.696
316.742
316.798
316.79
316.784
316.812
316.837
316.863
316.89
316.917
316.942
316.965
316.986
317.007
317.028
317.049
317.069
317.088
317.107
317.124
317.141
317.159
317.177
317.195
317.213
317.23
317.246
317.261
317.275
317.288
317.3
317.31
317.318
317.324
317.327
317.328
317.326
317.321
317.31
317.295
316.893
316.803
316.724
316.654
316.593
316.541
316.499
316.473
316.479
316.541
310.26
310.502
310.72
310.918
311.101
311.271
311.431
311.581
311.723
311.861
314.184
314.262
314.442
314.65
314.86
315.061
315.25
315.425
315.583
315.726
315.852
315.962
316.056
316.135
316.201
316.257
316.304
316.343
316.374
316.396
316.41
316.418
316.425
316.434
316.453
316.495
316.54
316.529
316.51
316.53
316.553
316.602
316.666
316.656
316.645
316.676
316.704
316.735
316.766
316.796
316.821
316.844
316.866
316.888
316.911
316.934
316.957
316.979
317.002
317.025
317.049
317.074
317.099
317.125
317.15
317.176
317.201
317.226
317.25
317.275
317.299
317.322
317.345
317.366
317.386
317.406
317.426
317.447
317.47
317.508
317.687
317.7
317.703
317.703
317.702
317.703
317.706
317.714
317.732
317.767
310.256
310.495
310.71
310.905
311.086
311.254
311.411
311.559
311.699
311.835
314.076
314.152
314.329
314.534
314.74
314.939
315.125
315.297
315.453
315.593
315.717
315.825
315.918
315.995
316.06
316.114
316.161
316.203
316.237
316.263
316.277
316.284
316.288
316.293
316.31
316.354
316.404
316.393
316.37
316.391
316.415
316.466
316.536
316.526
316.513
316.547
316.58
316.617
316.654
316.685
316.709
316.73
316.751
316.775
316.8
316.825
316.851
316.876
316.903
316.931
316.959
316.988
317.017
317.046
317.075
317.103
317.131
317.16
317.187
317.214
317.24
317.263
317.285
317.305
317.324
317.342
317.36
317.379
317.399
317.434
317.756
317.736
317.696
317.643
317.581
317.513
317.443
317.374
317.311
317.261
310.253
310.488
310.7
310.893
311.071
311.236
311.391
311.537
311.675
311.81
313.972
314.046
314.219
314.421
314.624
314.82
315.003
315.171
315.325
315.463
315.584
315.69
315.78
315.855
315.917
315.969
316.015
316.057
316.094
316.124
316.141
316.147
316.147
316.147
316.159
316.202
316.254
316.243
316.215
316.235
316.258
316.309
316.385
316.374
316.359
316.398
316.437
316.48
316.518
316.547
316.567
316.584
316.601
316.623
316.646
316.67
316.695
316.719
316.744
316.769
316.794
316.817
316.84
316.862
316.883
316.903
316.922
316.94
316.955
316.968
316.978
316.985
316.989
316.991
316.991
316.989
316.988
316.986
316.983
316.99
317.092
317.005
316.903
316.794
316.683
316.574
316.47
316.374
316.291
316.229
310.249
310.482
310.69
310.88
311.056
311.219
311.372
311.516
311.652
311.784
313.875
313.949
314.121
314.319
314.519
314.71
314.889
315.053
315.202
315.334
315.45
315.549
315.632
315.699
315.752
315.796
315.833
315.869
315.905
315.934
315.952
315.956
315.95
315.941
315.944
315.98
316.03
316.015
315.983
316.001
316.022
316.072
316.152
316.144
316.132
316.179
316.228
316.278
316.319
316.345
316.36
316.371
316.386
316.405
316.426
316.447
316.466
316.484
316.5
316.515
316.528
316.539
316.548
316.556
316.563
316.568
316.571
316.572
316.57
316.565
316.557
316.547
316.535
316.522
316.509
316.496
316.483
316.467
316.444
316.411
316.176
316.037
315.909
315.789
315.678
315.575
315.481
315.399
315.34
315.317
310.246
310.475
310.68
310.868
311.041
311.202
311.353
311.495
311.629
311.76
313.816
313.9
314.07
314.261
314.45
314.627
314.788
314.93
315.053
315.157
315.242
315.312
315.366
315.407
315.437
315.459
315.479
315.501
315.527
315.554
315.573
315.578
315.57
315.556
315.552
315.582
315.63
315.618
315.586
315.606
315.629
315.681
315.765
315.768
315.767
315.829
315.895
315.958
316.006
316.035
316.054
316.071
316.092
316.116
316.139
316.158
316.17
316.176
316.177
316.175
316.17
316.163
316.155
316.147
316.137
316.126
316.114
316.098
316.081
316.062
316.041
316.02
315.999
315.979
315.96
315.942
315.925
315.905
315.882
315.849
315.385
315.267
315.162
315.067
314.981
314.903
314.833
314.772
314.728
314.711
310.242
310.468
310.671
310.856
311.027
311.185
311.334
311.474
311.606
311.731
311.851
311.967
312.079
312.188
312.294
312.397
312.497
312.594
312.689
312.78
312.869
312.955
313.038
313.119
313.197
313.273
313.346
313.417
313.486
313.554
313.62
313.685
313.748
313.81
313.87
313.929
313.988
314.047
314.104
314.161
314.217
314.274
314.332
314.389
314.445
314.5
314.552
314.601
314.647
314.689
314.726
314.759
314.787
314.812
314.833
314.849
314.862
314.872
314.879
314.882
314.883
314.882
314.879
314.873
314.866
314.858
314.848
314.837
314.824
314.811
314.796
314.78
314.764
314.746
314.728
314.709
314.689
314.668
314.646
314.622
314.593
314.562
314.531
314.499
314.468
314.439
314.411
314.388
314.375
314.377
310.239
310.462
310.662
310.844
311.012
311.169
311.316
311.453
311.584
311.707
311.825
311.937
312.045
312.149
312.249
312.346
312.439
312.53
312.618
312.703
312.786
312.867
312.945
313.022
313.096
313.169
313.24
313.309
313.377
313.444
313.511
313.576
313.64
313.703
313.765
313.826
313.887
313.947
314.005
314.062
314.119
314.175
314.23
314.284
314.335
314.385
314.432
314.478
314.52
314.559
314.594
314.625
314.654
314.68
314.703
314.723
314.74
314.755
314.767
314.777
314.784
314.79
314.794
314.796
314.796
314.795
314.792
314.788
314.783
314.776
314.769
314.76
314.75
314.739
314.727
314.715
314.701
314.686
314.671
314.654
314.636
314.618
314.601
314.584
314.569
314.555
314.543
314.535
314.538
314.556
310.236
310.455
310.652
310.832
310.998
311.152
311.297
311.433
311.561
311.683
311.799
311.91
312.016
312.118
312.216
312.311
312.403
312.492
312.578
312.662
312.744
312.824
312.902
312.978
313.053
313.126
313.197
313.267
313.337
313.405
313.473
313.539
313.605
313.67
313.734
313.797
313.86
313.921
313.982
314.042
314.101
314.16
314.22
314.279
314.337
314.396
314.454
314.512
314.569
314.624
314.677
314.729
314.778
314.825
314.868
314.909
314.947
314.983
315.016
315.047
315.075
315.102
315.127
315.15
315.171
315.191
315.209
315.225
315.241
315.254
315.267
315.278
315.288
315.297
315.304
315.311
315.316
315.321
315.324
315.327
315.329
315.331
315.332
315.333
315.334
315.335
315.339
315.345
315.361
315.38
310.232
310.449
310.643
310.82
310.984
311.136
311.279
311.413
311.539
311.659
311.773
311.883
311.987
312.088
312.185
312.278
312.368
312.456
312.541
312.624
312.705
312.784
312.861
312.936
313.01
313.083
313.154
313.223
313.292
313.36
313.427
313.494
313.56
313.624
313.688
313.751
313.814
313.875
313.935
313.993
314.05
314.105
314.161
314.215
314.269
314.323
314.377
314.431
314.484
314.536
314.586
314.635
314.683
314.728
314.772
314.813
314.853
314.89
314.924
314.956
314.986
315.013
315.037
315.06
315.08
315.097
315.113
315.127
315.14
315.151
315.161
315.171
315.179
315.187
315.194
315.202
315.209
315.216
315.224
315.231
315.239
315.248
315.257
315.268
315.279
315.291
315.304
315.319
315.338
315.363
310.229
310.442
310.634
310.808
310.97
311.12
311.26
311.392
311.517
311.635
311.748
311.856
311.959
312.058
312.153
312.245
312.334
312.421
312.505
312.586
312.666
312.744
312.82
312.894
312.967
313.039
313.109
313.178
313.247
313.314
313.381
313.447
313.513
313.578
313.641
313.704
313.767
313.827
313.883
313.933
313.976
314.013
314.048
314.081
314.113
314.145
314.177
314.209
314.24
314.271
314.3
314.326
314.349
314.37
314.387
314.402
314.413
314.422
314.429
314.433
314.436
314.438
314.439
314.44
314.44
314.441
314.443
314.445
314.448
314.452
314.457
314.463
314.471
314.48
314.49
314.501
314.513
314.526
314.54
314.555
314.571
314.589
314.607
314.627
314.647
314.67
314.694
314.719
314.748
314.784
310.226
310.436
310.624
310.797
310.956
311.104
311.242
311.372
311.495
311.612
311.723
311.829
311.931
312.028
312.122
312.213
312.301
312.386
312.469
312.55
312.628
312.705
312.78
312.854
312.926
312.997
313.067
313.135
313.203
313.27
313.337
313.403
313.468
313.533
313.597
313.66
313.722
313.778
313.817
313.832
313.823
313.801
313.773
313.744
313.717
313.692
313.67
313.651
313.634
313.618
313.605
313.594
313.584
313.576
313.57
313.566
313.565
313.565
313.567
313.572
313.578
313.585
313.594
313.605
313.617
313.63
313.644
313.659
313.675
313.693
313.711
313.73
313.749
313.77
313.791
313.812
313.834
313.857
313.88
313.903
313.927
313.951
313.976
314.001
314.027
314.054
314.082
314.11
314.142
314.179
310.222
310.43
310.615
310.785
310.942
311.088
311.224
311.353
311.474
311.589
311.698
311.803
311.903
312
312.092
312.182
312.269
312.353
312.435
312.514
312.592
312.668
312.742
312.815
312.886
312.956
313.025
313.094
313.161
313.228
313.295
313.361
313.427
313.492
313.556
313.62
313.681
313.714
313.671
313.566
313.427
313.29
313.176
313.082
313.008
312.953
312.913
312.885
312.868
312.858
312.854
312.857
312.865
312.877
312.892
312.909
312.928
312.948
312.969
312.991
313.013
313.036
313.059
313.082
313.105
313.129
313.153
313.177
313.202
313.227
313.252
313.277
313.302
313.328
313.353
313.379
313.405
313.431
313.457
313.482
313.508
313.534
313.56
313.587
313.614
313.641
313.669
313.698
313.729
313.764
310.219
310.424
310.607
310.774
310.929
311.073
311.208
311.334
311.454
311.567
311.675
311.779
311.878
311.973
312.064
312.153
312.238
312.322
312.402
312.481
312.558
312.633
312.707
312.779
312.849
312.919
312.988
313.056
313.123
313.19
313.257
313.324
313.39
313.456
313.522
313.586
313.643
313.605
313.373
313.063
312.794
312.609
312.484
312.409
312.37
312.357
312.36
312.374
312.394
312.419
312.446
312.474
312.503
312.532
312.561
312.589
312.617
312.645
312.672
312.698
312.724
312.75
312.776
312.801
312.826
312.851
312.876
312.9
312.925
312.95
312.974
312.999
313.024
313.049
313.074
313.099
313.123
313.148
313.173
313.197
313.222
313.246
313.271
313.295
313.321
313.346
313.373
313.403
313.436
313.472
310.217
310.418
310.599
310.765
310.917
311.059
311.192
311.318
311.436
311.548
311.655
311.757
311.855
311.949
312.039
312.127
312.211
312.294
312.374
312.452
312.528
312.603
312.676
312.747
312.818
312.887
312.955
313.023
313.091
313.158
313.225
313.293
313.36
313.428
313.495
313.561
313.591
313.423
312.844
312.401
312.128
311.99
311.949
311.951
311.978
312.02
312.067
312.116
312.164
312.209
312.25
312.289
312.324
312.356
312.387
312.416
312.443
312.468
312.493
312.516
312.54
312.564
312.587
312.611
312.635
312.658
312.683
312.707
312.731
312.755
312.779
312.804
312.828
312.852
312.876
312.9
312.923
312.947
312.97
312.994
313.017
313.04
313.063
313.086
313.109
313.133
313.158
313.186
313.219
313.258
310.214
310.414
310.593
310.757
310.908
311.048
311.18
311.304
311.421
311.532
311.638
311.739
311.836
311.929
312.018
312.105
312.189
312.271
312.351
312.428
312.504
312.578
312.651
312.722
312.793
312.862
312.931
312.999
313.066
313.134
313.202
313.27
313.339
313.408
313.477
313.544
313.575
313.398
312.722
312.205
311.869
311.681
311.68
311.711
311.759
311.816
311.876
311.936
311.993
312.045
312.092
312.136
312.175
312.21
312.241
312.27
312.297
312.324
312.349
312.374
312.399
312.424
312.448
312.473
312.498
312.523
312.547
312.572
312.597
312.621
312.646
312.67
312.694
312.718
312.742
312.765
312.788
312.811
312.833
312.856
312.878
312.9
312.921
312.943
312.965
312.988
313.012
313.038
313.07
313.11
310.213
310.411
310.588
310.751
310.901
311.04
311.171
311.294
311.41
311.52
311.625
311.726
311.822
311.914
312.004
312.09
312.173
312.255
312.334
312.411
312.487
312.561
312.634
312.706
312.776
312.846
312.915
312.984
313.052
313.121
313.19
313.259
313.328
313.398
313.466
313.53
313.565
313.399
312.679
312.111
311.726
311.491
311.523
311.576
311.638
311.705
311.772
311.836
311.896
311.952
312.004
312.05
312.091
312.128
312.162
312.193
312.223
312.251
312.279
312.306
312.332
312.358
312.384
312.41
312.435
312.46
312.485
312.51
312.535
312.56
312.584
312.608
312.631
312.655
312.678
312.7
312.722
312.744
312.766
312.787
312.808
312.829
312.849
312.87
312.892
312.914
312.937
312.963
312.995
313.036
310.212
310.409
310.585
310.747
310.896
311.035
311.165
311.287
311.403
311.513
311.618
311.718
311.814
311.906
311.995
312.081
312.165
312.246
312.325
312.402
312.478
312.552
312.625
312.697
312.769
312.839
312.909
312.978
313.048
313.117
313.187
313.256
313.324
313.389
313.448
313.498
313.535
313.4
312.714
312.151
311.757
311.508
311.549
311.61
311.676
311.743
311.807
311.866
311.922
311.973
312.02
312.063
312.103
312.139
312.173
312.206
312.237
312.266
312.295
312.323
312.35
312.377
312.403
312.429
312.455
312.48
312.506
312.53
312.555
312.579
312.603
312.626
312.649
312.672
312.694
312.715
312.736
312.757
312.777
312.797
312.817
312.836
312.856
312.876
312.897
312.918
312.942
312.969
313.002
313.046
310.211
310.408
310.584
310.745
310.894
311.033
311.162
311.285
311.4
311.51
311.614
311.714
311.81
311.902
311.992
312.078
312.162
312.243
312.322
312.4
312.476
312.551
312.624
312.697
312.769
312.84
312.911
312.981
313.051
313.12
313.188
313.253
313.313
313.36
313.388
313.396
313.42
313.441
313.208
312.906
312.58
312.301
312.259
312.234
312.218
312.21
312.207
312.21
312.217
312.228
312.243
312.26
312.279
312.299
312.321
312.344
312.368
312.392
312.416
312.441
312.466
312.491
312.516
312.541
312.567
312.592
312.618
312.643
312.668
312.693
312.718
312.742
312.766
312.789
312.812
312.833
312.854
312.875
312.895
312.914
312.933
312.953
312.972
312.992
313.013
313.036
313.062
313.091
313.128
313.17
310.211
310.408
310.584
310.745
310.894
311.032
311.162
311.284
311.4
311.509
311.614
311.714
311.81
311.902
311.991
312.078
312.162
312.244
312.323
312.401
312.478
312.553
312.628
312.701
312.774
312.846
312.917
312.987
313.055
313.12
313.18
313.229
313.261
313.263
313.228
313.169
313.171
313.199
313.045
312.905
312.765
312.635
312.701
312.759
312.798
312.816
312.813
312.791
312.758
312.72
312.683
312.651
312.626
312.608
312.599
312.596
312.599
312.608
312.621
312.638
312.659
312.682
312.708
312.735
312.763
312.792
312.822
312.852
312.883
312.913
312.944
312.973
313.003
313.031
313.059
313.085
313.111
313.135
313.159
313.181
313.203
313.225
313.246
313.268
313.29
313.313
313.338
313.366
313.399
313.44
310.211
310.408
310.584
310.746
310.895
311.033
311.163
311.285
311.401
311.51
311.615
311.715
311.811
311.903
311.993
312.079
312.163
312.245
312.325
312.404
312.481
312.557
312.631
312.705
312.779
312.851
312.921
312.987
313.047
313.096
313.13
313.141
313.121
313.055
312.949
312.852
312.876
312.925
312.753
312.601
312.474
312.372
312.51
312.64
312.745
312.832
312.9
312.944
312.963
312.962
312.947
312.925
312.9
312.878
312.861
312.851
312.847
312.849
312.856
312.869
312.889
312.914
312.944
312.979
313.018
313.06
313.106
313.153
313.202
313.251
313.301
313.35
313.398
313.445
313.49
313.533
313.574
313.613
313.649
313.684
313.717
313.748
313.779
313.809
313.839
313.871
313.905
313.943
313.988
314.043
310.211
310.408
310.585
310.746
310.896
311.034
311.164
311.287
311.402
311.512
311.617
311.717
311.813
311.905
311.995
312.081
312.165
312.247
312.327
312.406
312.483
312.559
312.635
312.709
312.783
312.854
312.918
312.967
312.996
313.001
312.981
312.933
312.853
312.739
312.613
312.572
312.681
312.815
312.607
312.419
312.277
312.194
312.544
312.856
313.096
313.24
313.309
313.33
313.321
313.293
313.257
313.218
313.181
313.149
313.125
313.111
313.108
313.117
313.137
313.167
313.208
313.261
313.322
313.388
313.454
313.518
313.579
313.634
313.683
313.727
313.766
313.801
313.833
313.864
313.894
313.923
313.953
313.985
314.017
314.051
314.087
314.124
314.162
314.201
314.241
314.283
314.325
314.369
314.415
314.465
310.212
310.409
310.585
310.747
310.896
311.035
311.165
311.288
311.403
311.513
311.618
311.718
311.814
311.907
311.997
312.083
312.167
312.25
312.33
312.409
312.486
312.563
312.638
312.713
312.786
312.85
312.876
312.861
312.809
312.735
312.656
312.572
312.487
312.405
312.353
312.441
313.981
313.714
313.517
313.409
313.351
313.355
313.366
313.371
313.371
313.375
313.387
313.403
313.421
313.441
313.456
313.463
313.456
313.431
313.394
313.357
313.326
313.302
313.286
313.278
313.275
313.277
313.284
313.295
313.309
313.325
313.344
313.366
313.389
313.415
313.441
313.47
313.499
313.529
313.559
313.59
313.621
313.651
313.682
313.712
313.744
313.779
310.212
310.409
310.586
310.747
310.896
311.035
311.165
311.288
311.404
311.514
311.618
311.719
311.815
311.908
311.997
312.084
312.169
312.251
312.331
312.41
312.488
312.565
312.641
312.715
312.786
312.806
312.722
312.57
312.413
312.297
312.209
312.157
312.137
312.149
312.222
312.454
313.615
313.301
313.127
313.037
312.991
312.972
312.963
312.964
312.96
312.939
312.9
312.865
312.854
312.846
312.835
312.826
312.817
312.81
312.804
312.802
312.804
312.809
312.817
312.828
312.841
312.857
312.874
312.892
312.912
312.933
312.955
312.977
313.001
313.025
313.05
313.075
313.1
313.126
313.151
313.177
313.202
313.228
313.254
313.28
313.309
313.341
310.212
310.409
310.585
310.747
310.896
311.035
311.165
311.288
311.403
311.513
311.618
311.718
311.815
311.907
311.997
312.084
312.168
312.25
312.331
312.41
312.488
312.565
312.641
312.715
312.764
312.671
312.315
312.016
311.834
311.757
311.761
311.803
311.874
311.976
312.149
312.52
313.435
313.053
312.85
312.723
312.637
312.575
312.531
312.501
312.48
312.465
312.453
312.451
312.456
312.462
312.467
312.474
312.482
312.49
312.5
312.512
312.525
312.54
312.556
312.574
312.593
312.612
312.632
312.653
312.674
312.696
312.718
312.741
312.763
312.786
312.809
312.833
312.856
312.879
312.903
312.926
312.95
312.974
312.998
313.023
313.05
313.081
310.212
310.408
310.585
310.747
310.896
311.035
311.165
311.287
311.403
311.512
311.617
311.717
311.814
311.906
311.996
312.083
312.167
312.249
312.33
312.409
312.487
312.564
312.64
312.714
312.76
312.652
312.186
311.801
311.545
311.412
311.467
311.551
311.662
311.81
312.044
312.523
313.337
312.928
312.707
312.554
312.446
312.365
312.306
312.267
312.242
312.23
312.227
312.233
312.243
312.255
312.267
312.281
312.297
312.313
312.33
312.348
312.366
312.385
312.404
312.423
312.443
312.463
312.483
312.504
312.524
312.544
312.565
312.585
312.606
312.626
312.647
312.667
312.688
312.708
312.729
312.749
312.77
312.792
312.815
312.839
312.867
312.901
310.211
310.408
310.585
310.746
310.895
311.034
311.164
311.286
311.402
311.512
311.616
311.717
311.813
311.905
311.995
312.082
312.166
312.248
312.329
312.408
312.486
312.563
312.639
312.712
312.758
312.647
312.103
311.649
311.33
311.136
311.226
311.335
311.465
311.63
311.883
312.396
313.335
312.883
312.649
312.516
312.406
312.313
312.241
312.196
312.169
312.158
312.157
312.164
312.175
312.19
312.206
312.224
312.244
312.263
312.283
312.303
312.322
312.341
312.359
312.378
312.396
312.414
312.432
312.45
312.468
312.486
312.504
312.521
312.539
312.557
312.575
312.592
312.61
312.628
312.646
312.665
312.683
312.703
312.723
312.745
312.771
312.802
310.211
310.408
310.585
310.746
310.895
311.034
311.164
311.286
311.402
311.511
311.616
311.716
311.812
311.905
311.994
312.081
312.165
312.247
312.328
312.407
312.485
312.561
312.637
312.71
312.759
312.657
312.108
311.643
311.31
311.096
311.197
311.311
311.439
311.589
311.81
312.254
313.438
312.992
312.733
312.613
312.484
312.371
312.282