/*--------------------------------*- C++ -*----------------------------------*\
| =========                 |                                                 |
| \\      /  F ield         | OpenFOAM: The Open Source CFD Toolbox           |
|  \\    /   O peration     | Version:  v2012                                 |
|   \\  /    A nd           | Website:  www.openfoam.com                      |
|    \\/     M anipulation  |                                                 |
\*---------------------------------------------------------------------------*/
FoamFile
{
    version     2.0;
    format      ascii;
    class       volScalarField;
    location    "600/asphalt";
    object      T;
}
// * * * * * * * * * * * * * * * * * * * * * * * * * * * * * * * * * * * * * //

dimensions      [0 0 0 1 0 0 0];


internalField   nonuniform List<scalar> 
1980
(
321.649
322.068
322.482
322.836
323.141
323.406
323.638
323.844
324.027
324.191
324.338
324.472
324.595
324.707
324.81
324.905
324.993
325.075
325.151
325.222
325.289
325.351
325.41
325.467
325.52
325.571
325.619
325.666
325.711
325.754
325.795
325.831
325.856
325.889
325.923
325.956
325.989
326.021
326.053
326.083
326.113
326.142
326.171
326.199
326.227
326.254
326.28
326.306
326.332
326.357
326.381
326.405
326.429
326.453
326.477
326.5
326.524
326.55
326.587
326.612
326.634
326.655
326.676
326.696
326.715
326.734
326.753
326.772
326.79
326.808
326.826
326.843
326.861
326.878
326.895
326.912
326.928
326.945
326.961
326.977
326.994
327.011
327.028
327.046
327.066
327.089
327.117
327.162
327.268
327.572
321.649
322.068
322.482
322.836
323.141
323.406
323.638
323.844
324.026
324.19
324.338
324.472
324.594
324.706
324.81
324.905
324.993
325.075
325.151
325.222
325.288
325.351
325.41
325.467
325.52
325.571
325.62
325.666
325.712
325.755
325.797
325.836
325.872
325.908
325.943
325.977
326.01
326.043
326.074
326.105
326.135
326.164
326.193
326.221
326.249
326.276
326.302
326.328
326.354
326.379
326.404
326.428
326.452
326.476
326.499
326.522
326.545
326.568
326.592
326.614
326.635
326.656
326.677
326.698
326.717
326.736
326.755
326.774
326.792
326.81
326.828
326.845
326.863
326.88
326.897
326.914
326.931
326.947
326.963
326.98
326.996
327.013
327.03
327.048
327.068
327.09
327.118
327.163
327.269
327.573
321.649
322.068
322.481
322.835
323.14
323.406
323.638
323.843
324.026
324.19
324.338
324.472
324.594
324.706
324.809
324.905
324.993
325.074
325.15
325.222
325.288
325.351
325.411
325.467
325.52
325.572
325.62
325.667
325.713
325.756
325.798
325.838
325.876
325.912
325.947
325.982
326.015
326.048
326.08
326.11
326.141
326.17
326.199
326.227
326.255
326.282
326.308
326.334
326.36
326.385
326.41
326.435
326.459
326.483
326.506
326.529
326.551
326.573
326.595
326.617
326.638
326.658
326.68
326.7
326.719
326.739
326.757
326.776
326.795
326.813
326.831
326.848
326.866
326.883
326.9
326.917
326.934
326.951
326.967
326.983
326.999
327.016
327.033
327.051
327.07
327.093
327.12
327.165
327.272
327.576
321.649
322.067
322.481
322.835
323.14
323.405
323.638
323.843
324.026
324.19
324.338
324.472
324.594
324.706
324.809
324.904
324.992
325.074
325.15
325.221
325.288
325.351
325.411
325.467
325.521
325.572
325.621
325.669
325.714
325.757
325.799
325.839
325.877
325.914
325.949
325.984
326.017
326.05
326.082
326.113
326.143
326.173
326.202
326.23
326.257
326.284
326.311
326.337
326.363
326.388
326.413
326.438
326.462
326.486
326.509
326.532
326.555
326.577
326.598
326.62
326.641
326.661
326.682
326.702
326.722
326.741
326.76
326.779
326.797
326.816
326.834
326.851
326.869
326.886
326.903
326.92
326.937
326.954
326.97
326.987
327.003
327.019
327.036
327.054
327.073
327.095
327.123
327.167
327.274
327.579
321.648
322.067
322.481
322.835
323.14
323.405
323.638
323.843
324.026
324.19
324.338
324.472
324.594
324.706
324.809
324.904
324.992
325.074
325.15
325.221
325.288
325.352
325.411
325.468
325.522
325.573
325.622
325.67
325.715
325.758
325.8
325.84
325.878
325.915
325.95
325.985
326.019
326.052
326.084
326.115
326.145
326.175
326.204
326.232
326.26
326.287
326.313
326.339
326.365
326.391
326.416
326.441
326.465
326.489
326.512
326.535
326.557
326.579
326.601
326.622
326.643
326.664
326.685
326.705
326.724
326.744
326.763
326.782
326.8
326.819
326.837
326.854
326.872
326.889
326.907
326.924
326.941
326.958
326.974
326.991
327.007
327.023
327.04
327.058
327.077
327.099
327.126
327.17
327.277
327.581
321.648
322.067
322.481
322.835
323.14
323.405
323.637
323.843
324.026
324.189
324.337
324.471
324.594
324.706
324.809
324.904
324.992
325.074
325.15
325.221
325.289
325.352
325.412
325.469
325.523
325.574
325.623
325.671
325.716
325.759
325.801
325.84
325.879
325.916
325.952
325.986
326.02
326.053
326.085
326.117
326.147
326.177
326.206
326.234
326.262
326.289
326.316
326.342
326.368
326.393
326.419
326.444
326.468
326.492
326.515
326.538
326.561
326.583
326.605
326.626
326.647
326.668
326.688
326.708
326.728
326.747
326.766
326.785
326.804
326.822
326.841
326.858
326.876
326.893
326.911
326.928
326.945
326.962
326.979
326.995
327.012
327.029
327.046
327.063
327.082
327.104
327.131
327.175
327.281
327.585
321.648
322.067
322.481
322.834
323.139
323.405
323.637
323.842
324.025
324.189
324.337
324.471
324.593
324.705
324.808
324.904
324.992
325.074
325.15
325.222
325.289
325.353
325.413
325.47
325.524
325.575
325.625
325.672
325.717
325.76
325.802
325.841
325.88
325.917
325.953
325.988
326.022
326.055
326.087
326.119
326.149
326.179
326.208
326.237
326.265
326.292
326.319
326.345
326.371
326.397
326.422
326.447
326.471
326.495
326.519
326.542
326.564
326.587
326.609
326.63
326.651
326.672
326.692
326.712
326.732
326.752
326.771
326.79
326.809
326.827
326.845
326.863
326.881
326.899
326.916
326.933
326.95
326.967
326.984
327.001
327.018
327.035
327.052
327.07
327.089
327.11
327.137
327.18
327.285
327.589
321.648
322.066
322.48
322.834
323.139
323.404
323.637
323.842
324.025
324.189
324.337
324.471
324.594
324.706
324.809
324.904
324.992
325.074
325.151
325.223
325.29
325.354
325.414
325.471
325.526
325.577
325.627
325.674
325.719
325.762
325.804
325.844
325.883
325.92
325.957
325.992
326.026
326.059
326.091
326.123
326.154
326.184
326.213
326.242
326.27
326.297
326.324
326.351
326.377
326.403
326.428
326.453
326.477
326.501
326.525
326.548
326.571
326.593
326.615
326.637
326.658
326.679
326.699
326.72
326.74
326.759
326.778
326.797
326.816
326.835
326.853
326.871
326.889
326.906
326.923
326.941
326.958
326.975
326.992
327.008
327.025
327.042
327.059
327.077
327.096
327.117
327.143
327.185
327.288
327.59
321.648
322.066
322.48
322.834
323.139
323.405
323.637
323.843
324.026
324.19
324.338
324.473
324.595
324.708
324.811
324.907
324.995
325.078
325.155
325.227
325.295
325.359
325.419
325.477
325.531
325.583
325.633
325.68
325.726
325.769
325.811
325.852
325.891
325.929
325.965
326.001
326.035
326.069
326.101
326.133
326.164
326.195
326.224
326.253
326.282
326.31
326.337
326.364
326.39
326.416
326.442
326.467
326.491
326.516
326.539
326.563
326.586
326.608
326.63
326.652
326.674
326.695
326.715
326.736
326.756
326.775
326.795
326.814
326.833
326.851
326.869
326.887
326.905
326.922
326.94
326.957
326.974
326.991
327.007
327.024
327.041
327.057
327.074
327.092
327.111
327.131
327.156
327.196
327.295
327.592
321.648
322.068
322.483
322.838
323.145
323.411
323.645
323.852
324.036
324.202
324.351
324.487
324.61
324.724
324.828
324.925
325.015
325.099
325.177
325.25
325.319
325.385
325.446
325.505
325.56
325.613
325.664
325.713
325.759
325.804
325.847
325.888
325.928
325.967
326.005
326.042
326.077
326.112
326.145
326.178
326.21
326.242
326.272
326.302
326.332
326.361
326.389
326.417
326.444
326.471
326.497
326.523
326.548
326.573
326.598
326.622
326.646
326.669
326.692
326.715
326.737
326.759
326.78
326.801
326.822
326.843
326.863
326.882
326.902
326.921
326.94
326.958
326.976
326.994
327.012
327.03
327.047
327.064
327.081
327.098
327.115
327.132
327.149
327.167
327.186
327.207
327.232
327.269
327.362
327.644
321.655
322.082
322.504
322.866
323.179
323.451
323.691
323.904
324.094
324.265
324.42
324.561
324.69
324.808
324.917
325.019
325.113
325.201
325.284
325.362
325.435
325.504
325.57
325.632
325.692
325.749
325.803
325.855
325.905
325.954
326
326.045
326.089
326.131
326.172
326.212
326.251
326.289
326.326
326.362
326.398
326.432
326.466
326.499
326.532
326.564
326.595
326.626
326.656
326.686
326.715
326.744
326.772
326.799
326.827
326.854
326.88
326.906
326.932
326.957
326.982
327.006
327.03
327.053
327.077
327.1
327.122
327.144
327.166
327.187
327.208
327.229
327.25
327.27
327.29
327.309
327.329
327.348
327.367
327.386
327.405
327.423
327.442
327.462
327.482
327.504
327.529
327.566
327.648
327.892
322.795
323.258
323.7
324.073
324.394
324.673
324.918
325.134
325.327
325.499
325.655
325.796
325.925
326.043
326.151
326.252
326.345
326.431
326.511
326.586
326.656
326.722
326.784
326.844
326.9
326.953
327.004
327.053
327.101
327.146
327.19
327.23
327.261
327.297
327.333
327.369
327.404
327.438
327.471
327.503
327.534
327.565
327.595
327.625
327.654
327.683
327.711
327.738
327.765
327.791
327.817
327.843
327.868
327.893
327.918
327.942
327.967
327.993
328.026
328.051
328.074
328.096
328.118
328.139
328.159
328.179
328.199
328.219
328.238
328.257
328.276
328.294
328.313
328.331
328.349
328.367
328.384
328.401
328.419
328.436
328.453
328.471
328.489
328.508
328.529
328.553
328.581
328.626
328.733
329.078
322.795
323.258
323.7
324.073
324.394
324.673
324.918
325.134
325.326
325.499
325.655
325.796
325.925
326.043
326.151
326.251
326.344
326.43
326.511
326.585
326.656
326.722
326.784
326.844
326.9
326.954
327.005
327.054
327.102
327.148
327.192
327.233
327.272
327.31
327.347
327.383
327.418
327.452
327.486
327.518
327.55
327.581
327.611
327.641
327.67
327.698
327.726
327.753
327.78
327.807
327.833
327.859
327.884
327.909
327.934
327.958
327.982
328.006
328.03
328.053
328.075
328.097
328.12
328.141
328.161
328.182
328.201
328.221
328.24
328.259
328.278
328.297
328.315
328.333
328.351
328.369
328.387
328.404
328.421
328.438
328.455
328.473
328.491
328.51
328.53
328.554
328.582
328.627
328.735
329.08
322.795
323.258
323.7
324.073
324.394
324.673
324.918
325.134
325.326
325.499
325.654
325.796
325.924
326.042
326.151
326.251
326.344
326.43
326.51
326.585
326.656
326.722
326.785
326.844
326.9
326.954
327.006
327.055
327.103
327.149
327.193
327.235
327.275
327.313
327.351
327.387
327.422
327.457
327.49
327.522
327.554
327.585
327.616
327.645
327.674
327.703
327.731
327.758
327.785
327.812
327.838
327.864
327.89
327.915
327.939
327.963
327.987
328.01
328.033
328.056
328.078
328.1
328.122
328.143
328.164
328.184
328.204
328.224
328.243
328.262
328.281
328.3
328.318
328.336
328.355
328.372
328.39
328.408
328.425
328.442
328.459
328.476
328.494
328.513
328.533
328.557
328.585
328.63
328.737
329.083
322.795
323.258
323.699
324.073
324.394
324.673
324.917
325.134
325.326
325.499
325.654
325.795
325.924
326.042
326.151
326.251
326.344
326.43
326.51
326.585
326.656
326.722
326.785
326.844
326.901
326.955
327.007
327.056
327.104
327.15
327.194
327.236
327.276
327.315
327.352
327.389
327.424
327.459
327.492
327.525
327.557
327.588
327.618
327.648
327.677
327.705
327.733
327.761
327.788
327.815
327.841
327.867
327.893
327.918
327.943
327.967
327.99
328.014
328.036
328.059
328.081
328.103
328.124
328.146
328.166
328.187
328.207
328.226
328.246
328.265
328.284
328.303
328.321
328.34
328.358
328.376
328.393
328.411
328.428
328.446
328.463
328.48
328.498
328.516
328.537
328.56
328.588
328.632
328.74
329.085
322.795
323.258
323.699
324.072
324.393
324.672
324.917
325.133
325.326
325.498
325.654
325.795
325.924
326.042
326.15
326.251
326.343
326.43
326.51
326.585
326.656
326.722
326.785
326.845
326.902
326.956
327.008
327.057
327.105
327.151
327.195
327.236
327.277
327.316
327.353
327.39
327.425
327.46
327.494
327.526
327.558
327.59
327.62
327.65
327.679
327.708
327.736
327.763
327.79
327.817
327.844
327.87
327.896
327.921
327.945
327.969
327.993
328.016
328.039
328.062
328.084
328.105
328.127
328.148
328.169
328.189
328.21
328.229
328.249
328.268
328.287
328.306
328.325
328.343
328.361
328.379
328.397
328.415
328.432
328.45
328.467
328.484
328.502
328.521
328.541
328.563
328.591
328.635
328.743
329.088
322.794
323.257
323.699
324.072
324.393
324.672
324.917
325.133
325.326
325.498
325.654
325.795
325.924
326.042
326.15
326.25
326.343
326.429
326.51
326.585
326.656
326.723
326.786
326.846
326.903
326.957
327.009
327.059
327.106
327.152
327.195
327.237
327.278
327.317
327.355
327.391
327.427
327.462
327.495
327.528
327.56
327.592
327.622
327.652
327.682
327.71
327.738
327.766
327.793
327.82
327.847
327.873
327.899
327.924
327.948
327.972
327.996
328.02
328.043
328.065
328.087
328.109
328.131
328.152
328.173
328.193
328.213
328.233
328.253
328.272
328.291
328.31
328.329
328.347
328.365
328.383
328.401
328.419
328.437
328.455
328.472
328.489
328.507
328.526
328.546
328.568
328.596
328.639
328.747
329.092
322.794
323.257
323.699
324.072
324.393
324.672
324.916
325.133
325.325
325.498
325.654
325.795
325.924
326.041
326.15
326.25
326.343
326.429
326.51
326.585
326.656
326.723
326.786
326.846
326.903
326.958
327.01
327.06
327.107
327.153
327.196
327.238
327.279
327.318
327.356
327.393
327.429
327.464
327.498
327.531
327.563
327.594
327.625
327.655
327.684
327.713
327.741
327.769
327.797
327.824
327.85
327.876
327.902
327.927
327.952
327.976
328
328.024
328.047
328.069
328.092
328.113
328.135
328.156
328.177
328.198
328.218
328.238
328.258
328.277
328.296
328.315
328.334
328.352
328.371
328.389
328.407
328.425
328.443
328.46
328.478
328.496
328.514
328.533
328.553
328.575
328.602
328.645
328.752
329.097
322.794
323.257
323.698
324.071
324.393
324.672
324.916
325.132
325.325
325.498
325.653
325.795
325.924
326.042
326.15
326.25
326.343
326.43
326.511
326.586
326.657
326.724
326.788
326.848
326.905
326.96
327.012
327.062
327.109
327.155
327.198
327.241
327.281
327.321
327.359
327.396
327.432
327.467
327.501
327.534
327.567
327.599
327.629
327.66
327.689
327.718
327.747
327.775
327.802
327.829
327.856
327.882
327.908
327.933
327.958
327.982
328.006
328.03
328.053
328.076
328.098
328.12
328.142
328.163
328.184
328.205
328.225
328.245
328.265
328.284
328.304
328.322
328.341
328.36
328.378
328.396
328.414
328.432
328.45
328.467
328.485
328.503
328.521
328.54
328.559
328.581
328.608
328.649
328.754
329.097
322.794
323.257
323.698
324.071
324.392
324.672
324.916
325.133
325.325
325.498
325.654
325.796
325.925
326.043
326.152
326.252
326.345
326.432
326.513
326.589
326.661
326.728
326.792
326.852
326.91
326.965
327.017
327.067
327.115
327.161
327.205
327.247
327.288
327.328
327.367
327.404
327.44
327.476
327.51
327.544
327.576
327.608
327.64
327.67
327.7
327.729
327.758
327.786
327.814
327.842
327.868
327.895
327.921
327.946
327.971
327.995
328.02
328.043
328.067
328.09
328.112
328.134
328.156
328.177
328.199
328.219
328.24
328.26
328.279
328.299
328.318
328.337
328.356
328.374
328.392
328.41
328.428
328.446
328.463
328.481
328.498
328.516
328.534
328.552
328.572
328.593
328.619
328.658
328.758
329.095
322.794
323.258
323.7
324.075
324.397
324.677
324.923
325.141
325.335
325.509
325.666
325.808
325.939
326.058
326.168
326.27
326.364
326.452
326.534
326.612
326.684
326.753
326.818
326.879
326.938
326.994
327.047
327.098
327.147
327.194
327.239
327.282
327.325
327.366
327.405
327.444
327.481
327.517
327.553
327.587
327.621
327.654
327.686
327.718
327.749
327.779
327.809
327.838
327.867
327.895
327.923
327.95
327.976
328.003
328.028
328.054
328.079
328.103
328.127
328.151
328.175
328.197
328.22
328.242
328.264
328.285
328.306
328.327
328.347
328.367
328.387
328.407
328.426
328.445
328.463
328.482
328.5
328.518
328.536
328.554
328.571
328.589
328.607
328.626
328.646
328.667
328.692
328.729
328.823
329.144
322.802
323.274
323.724
324.106
324.436
324.723
324.976
325.201
325.401
325.581
325.745
325.893
326.029
326.154
326.269
326.377
326.476
326.569
326.656
326.739
326.816
326.889
326.959
327.025
327.087
327.148
327.205
327.26
327.313
327.364
327.414
327.461
327.508
327.553
327.596
327.638
327.679
327.72
327.759
327.797
327.834
327.871
327.907
327.942
327.976
328.01
328.043
328.076
328.108
328.139
328.17
328.201
328.231
328.26
328.289
328.317
328.345
328.373
328.4
328.427
328.453
328.479
328.504
328.529
328.554
328.578
328.602
328.625
328.648
328.671
328.693
328.715
328.737
328.758
328.779
328.8
328.821
328.841
328.861
328.881
328.901
328.921
328.941
328.961
328.983
329.006
329.031
329.068
329.15
329.426
)
;

boundaryField
{
    inlet
    {
        type            zeroGradient;
    }
    outlet
    {
        type            zeroGradient;
    }
    side
    {
        type            zeroGradient;
    }
    asphalt_to_soil1
    {
        type            compressible::turbulentTemperatureRadCoupledMixed;
        refValue        nonuniform List<scalar> 
990
(
320.489
320.867
321.254
321.588
321.877
322.128
322.348
322.543
322.716
322.871
323.011
323.138
323.253
323.359
323.457
323.547
323.63
323.708
323.78
323.847
323.91
323.969
324.025
324.078
324.128
324.176
324.222
324.266
324.309
324.349
324.388
324.421
324.44
324.469
324.501
324.533
324.564
324.594
324.624
324.653
324.681
324.709
324.736
324.762
324.789
324.814
324.839
324.864
324.888
324.911
324.935
324.957
324.98
325.003
325.025
325.047
325.07
325.096
325.135
325.161
325.182
325.202
325.221
325.24
325.259
325.277
325.294
325.312
325.329
325.346
325.363
325.38
325.396
325.413
325.429
325.445
325.46
325.476
325.491
325.507
325.522
325.538
325.555
325.572
325.591
325.613
325.64
325.685
325.788
326.056
320.489
320.867
321.254
321.588
321.877
322.128
322.348
322.542
322.716
322.871
323.011
323.137
323.253
323.359
323.457
323.547
323.63
323.707
323.779
323.846
323.909
323.969
324.025
324.078
324.128
324.177
324.223
324.267
324.31
324.351
324.39
324.427
324.46
324.494
324.527
324.559
324.59
324.621
324.651
324.68
324.708
324.736
324.763
324.79
324.816
324.841
324.866
324.891
324.915
324.939
324.962
324.985
325.008
325.031
325.053
325.074
325.096
325.118
325.141
325.163
325.183
325.203
325.223
325.242
325.26
325.279
325.296
325.314
325.331
325.348
325.365
325.382
325.398
325.415
325.431
325.447
325.463
325.478
325.493
325.509
325.524
325.54
325.556
325.573
325.592
325.614
325.641
325.686
325.789
326.057
320.489
320.867
321.254
321.588
321.877
322.128
322.348
322.542
322.715
322.87
323.01
323.137
323.253
323.359
323.456
323.546
323.63
323.707
323.779
323.846
323.909
323.969
324.025
324.078
324.129
324.177
324.223
324.268
324.311
324.352
324.391
324.429
324.465
324.499
324.532
324.565
324.596
324.627
324.657
324.686
324.715
324.743
324.77
324.797
324.823
324.848
324.873
324.898
324.922
324.946
324.97
324.993
325.016
325.038
325.06
325.082
325.103
325.124
325.145
325.165
325.185
325.205
325.225
325.244
325.263
325.281
325.299
325.316
325.334
325.351
325.368
325.385
325.401
325.418
325.434
325.45
325.466
325.481
325.497
325.512
325.527
325.543
325.559
325.576
325.595
325.616
325.643
325.688
325.792
326.06
320.488
320.867
321.253
321.588
321.876
322.128
322.348
322.542
322.715
322.87
323.01
323.137
323.253
323.359
323.456
323.546
323.629
323.707
323.779
323.846
323.909
323.969
324.025
324.079
324.129
324.178
324.224
324.269
324.312
324.353
324.392
324.43
324.466
324.501
324.534
324.567
324.599
324.63
324.66
324.689
324.718
324.746
324.773
324.8
324.826
324.851
324.876
324.901
324.925
324.949
324.973
324.997
325.02
325.042
325.064
325.085
325.107
325.128
325.148
325.168
325.188
325.208
325.227
325.246
325.265
325.283
325.301
325.319
325.336
325.354
325.371
325.387
325.404
325.42
325.437
325.453
325.469
325.485
325.5
325.516
325.531
325.546
325.562
325.579
325.598
325.619
325.646
325.69
325.794
326.062
320.488
320.867
321.253
321.588
321.876
322.127
322.347
322.542
322.715
322.87
323.01
323.137
323.252
323.358
323.456
323.546
323.629
323.707
323.779
323.846
323.909
323.969
324.026
324.079
324.13
324.179
324.225
324.27
324.313
324.354
324.393
324.431
324.467
324.502
324.535
324.568
324.6
324.631
324.661
324.691
324.72
324.748
324.775
324.802
324.828
324.853
324.879
324.903
324.928
324.952
324.976
324.999
325.022
325.045
325.067
325.088
325.109
325.13
325.151
325.171
325.191
325.21
325.23
325.249
325.267
325.286
325.304
325.322
325.339
325.356
325.374
325.39
325.407
325.423
325.44
325.456
325.472
325.488
325.504
325.519
325.535
325.55
325.566
325.583
325.601
325.622
325.649
325.693
325.796
326.065
320.488
320.866
321.253
321.587
321.876
322.127
322.347
322.542
322.715
322.87
323.01
323.137
323.252
323.358
323.456
323.546
323.629
323.706
323.779
323.846
323.91
323.97
324.026
324.08
324.131
324.18
324.226
324.271
324.314
324.355
324.394
324.432
324.468
324.503
324.537
324.57
324.602
324.633
324.663
324.693
324.722
324.75
324.777
324.804
324.83
324.856
324.881
324.906
324.93
324.955
324.978
325.002
325.025
325.047
325.07
325.091
325.113
325.134
325.154
325.174
325.194
325.214
325.233
325.252
325.271
325.289
325.307
325.325
325.343
325.36
325.377
325.394
325.411
325.427
325.444
325.46
325.476
325.492
325.508
325.524
325.539
325.555
325.571
325.588
325.606
325.627
325.653
325.697
325.8
326.068
320.488
320.866
321.253
321.587
321.876
322.127
322.347
322.541
322.714
322.87
323.01
323.136
323.252
323.358
323.456
323.546
323.629
323.706
323.779
323.847
323.91
323.97
324.027
324.081
324.132
324.181
324.228
324.272
324.315
324.356
324.395
324.433
324.469
324.504
324.538
324.571
324.604
324.635
324.665
324.695
324.724
324.752
324.78
324.807
324.833
324.859
324.884
324.909
324.934
324.958
324.982
325.005
325.028
325.051
325.073
325.095
325.116
325.137
325.158
325.178
325.198
325.218
325.237
325.256
325.275
325.294
325.312
325.33
325.347
325.365
325.382
325.399
325.416
325.432
325.449
325.465
325.481
325.498
325.514
325.529
325.545
325.561
325.578
325.594
325.613
325.633
325.659
325.702
325.805
326.072
320.488
320.866
321.252
321.587
321.876
322.127
322.347
322.541
322.714
322.87
323.01
323.137
323.252
323.359
323.456
323.546
323.63
323.707
323.78
323.848
323.912
323.972
324.029
324.083
324.134
324.183
324.23
324.275
324.317
324.358
324.398
324.436
324.472
324.508
324.542
324.575
324.607
324.639
324.669
324.699
324.728
324.757
324.785
324.812
324.838
324.864
324.89
324.915
324.94
324.964
324.988
325.012
325.035
325.057
325.08
325.101
325.123
325.144
325.165
325.186
325.206
325.225
325.245
325.264
325.283
325.301
325.319
325.337
325.355
325.373
325.39
325.407
325.424
325.44
325.457
325.473
325.489
325.505
325.521
325.537
325.553
325.569
325.585
325.602
325.62
325.64
325.665
325.707
325.808
326.074
320.487
320.866
321.253
321.587
321.876
322.127
322.348
322.542
322.716
322.871
323.012
323.139
323.255
323.361
323.459
323.549
323.633
323.711
323.784
323.852
323.917
323.977
324.035
324.089
324.141
324.19
324.237
324.282
324.325
324.366
324.406
324.444
324.481
324.517
324.551
324.585
324.618
324.65
324.68
324.711
324.74
324.769
324.797
324.824
324.851
324.878
324.904
324.929
324.954
324.979
325.003
325.026
325.05
325.073
325.095
325.117
325.139
325.16
325.181
325.202
325.222
325.242
325.262
325.281
325.3
325.319
325.337
325.355
325.373
325.39
325.408
325.425
325.441
325.458
325.474
325.491
325.507
325.523
325.538
325.554
325.57
325.586
325.602
325.619
325.637
325.656
325.681
325.72
325.817
326.078
320.488
320.868
321.256
321.591
321.882
322.134
322.356
322.552
322.726
322.883
323.025
323.153
323.27
323.378
323.477
323.568
323.654
323.733
323.807
323.876
323.942
324.004
324.062
324.118
324.17
324.221
324.269
324.314
324.358
324.401
324.442
324.481
324.519
324.556
324.592
324.626
324.66
324.693
324.725
324.756
324.786
324.816
324.845
324.873
324.901
324.929
324.955
324.982
325.008
325.033
325.058
325.083
325.107
325.13
325.154
325.177
325.199
325.221
325.243
325.265
325.286
325.306
325.327
325.347
325.366
325.386
325.405
325.423
325.442
325.46
325.478
325.495
325.513
325.53
325.547
325.563
325.58
325.596
325.612
325.628
325.644
325.661
325.677
325.694
325.712
325.732
325.756
325.794
325.884
326.132
320.495
320.88
321.274
321.615
321.911
322.169
322.396
322.598
322.777
322.939
323.085
323.218
323.34
323.452
323.555
323.651
323.74
323.823
323.901
323.974
324.043
324.108
324.17
324.229
324.285
324.339
324.39
324.439
324.487
324.532
324.576
324.619
324.66
324.7
324.738
324.776
324.813
324.848
324.883
324.917
324.951
324.983
325.015
325.046
325.077
325.107
325.136
325.165
325.194
325.222
325.249
325.276
325.303
325.329
325.355
325.38
325.405
325.429
325.453
325.477
325.5
325.523
325.546
325.568
325.59
325.611
325.632
325.653
325.674
325.694
325.714
325.733
325.752
325.772
325.79
325.809
325.827
325.845
325.863
325.881
325.899
325.916
325.934
325.953
325.972
325.993
326.017
326.053
326.134
326.351
)
;
        refGradient     uniform 0;
        valueFraction   nonuniform List<scalar> 
990
(
0.495766
0.495766
0.495766
0.495766
0.495766
0.495766
0.495766
0.495766
0.495766
0.495766
0.495766
0.495766
0.495766
0.495766
0.495766
0.495766
0.495766
0.495766
0.495766
0.495766
0.495766
0.495766
0.495766
0.495766
0.495766
0.495766
0.495766
0.495766
0.495766
0.495766
0.495766
0.495766
0.495766
0.495766
0.495766
0.495766
0.495766
0.495766
0.495766
0.495766
0.495766
0.495766
0.495766
0.495766
0.495766
0.495766
0.495766
0.495766
0.495766
0.495766
0.495766
0.495766
0.495766
0.495766
0.495766
0.495766
0.495766
0.495766
0.495766
0.495766
0.495766
0.495766
0.495766
0.495766
0.495766
0.495766
0.495766
0.495766
0.495766
0.495766
0.495766
0.495766
0.495766
0.495766
0.495766
0.495766
0.495766
0.495766
0.495766
0.495766
0.495766
0.495766
0.495766
0.495766
0.495766
0.495766
0.495766
0.495766
0.495766
0.495766
0.495766
0.495766
0.495766
0.495766
0.495766
0.495766
0.495766
0.495766
0.495766
0.495766
0.495766
0.495766
0.495766
0.495766
0.495766
0.495766
0.495766
0.495766
0.495766
0.495766
0.495766
0.495766
0.495766
0.495766
0.495766
0.495766
0.495766
0.495766
0.495766
0.495766
0.495766
0.495766
0.495766
0.495766
0.495766
0.495766
0.495766
0.495766
0.495766
0.495766
0.495766
0.495766
0.495766
0.495766
0.495766
0.495766
0.495766
0.495766
0.495766
0.495766
0.495766
0.495766
0.495766
0.495766
0.495766
0.495766
0.495766
0.495766
0.495766
0.495766
0.495766
0.495766
0.495766
0.495766
0.495766
0.495766
0.495766
0.495766
0.495766
0.495766
0.495766
0.495766
0.495766
0.495766
0.495766
0.495766
0.495766
0.495766
0.495766
0.495766
0.495766
0.495766
0.495766
0.495766
0.495766
0.495766
0.495766
0.495766
0.495766
0.495766
0.495766
0.495766
0.495766
0.495766
0.495766
0.495766
0.495766
0.495766
0.495766
0.495766
0.495766
0.495766
0.495766
0.495766
0.495766
0.495766
0.495766
0.495766
0.495766
0.495766
0.495766
0.495766
0.495766
0.495766
0.495766
0.495766
0.495766
0.495766
0.495766
0.495766
0.495766
0.495766
0.495766
0.495766
0.495766
0.495766
0.495766
0.495766
0.495766
0.495766
0.495766
0.495766
0.495766
0.495766
0.495766
0.495766
0.495766
0.495766
0.495766
0.495766
0.495766
0.495766
0.495766
0.495766
0.495766
0.495766
0.495766
0.495766
0.495766
0.495766
0.495766
0.495766
0.495766
0.495766
0.495766
0.495766
0.495766
0.495766
0.495766
0.495766
0.495766
0.495766
0.495766
0.495766
0.495766
0.495766
0.495766
0.495766
0.495766
0.495766
0.495766
0.495766
0.495766
0.495766
0.495766
0.495766
0.495766
0.495766
0.495766
0.495766
0.495766
0.495766
0.495766
0.495766
0.495766
0.495766
0.495766
0.495766
0.495766
0.495766
0.495766
0.495766
0.495766
0.495766
0.495766
0.495766
0.495766
0.495766
0.495766
0.495766
0.495766
0.495766
0.495766
0.495766
0.495766
0.495766
0.495766
0.495766
0.495766
0.495766
0.495766
0.495766
0.495766
0.495766
0.495766
0.495766
0.495766
0.495766
0.495766
0.495766
0.495766
0.495766
0.495766
0.495766
0.495766
0.495766
0.495766
0.495766
0.495766
0.495766
0.495766
0.495766
0.495766
0.495766
0.495766
0.495766
0.495766
0.495766
0.495766
0.495766
0.495766
0.495766
0.495766
0.495766
0.495766
0.495766
0.495766
0.495766
0.495766
0.495766
0.495766
0.495766
0.495766
0.495766
0.495766
0.495766
0.495766
0.495766
0.495766
0.495766
0.495766
0.495766
0.495766
0.495766
0.495766
0.495766
0.495766
0.495766
0.495766
0.495766
0.495766
0.495766
0.495766
0.495766
0.495766
0.495766
0.495766
0.495766
0.495766
0.495766
0.495766
0.495766
0.495766
0.495766
0.495766
0.495766
0.495766
0.495766
0.495766
0.495766
0.495766
0.495766
0.495766
0.495766
0.495766
0.495766
0.495766
0.495766
0.495766
0.495766
0.495766
0.495766
0.495766
0.495766
0.495766
0.495766
0.495766
0.495766
0.495766
0.495766
0.495766
0.495766
0.495766
0.495766
0.495766
0.495766
0.495766
0.495766
0.495766
0.495766
0.495766
0.495766
0.495766
0.495766
0.495766
0.495766
0.495766
0.495766
0.495766
0.495766
0.495766
0.495766
0.495766
0.495766
0.495766
0.495766
0.495766
0.495766
0.495766
0.495766
0.495766
0.495766
0.495766
0.495766
0.495766
0.495766
0.495766
0.495766
0.495766
0.495766
0.495766
0.495766
0.495766
0.495766
0.495766
0.495766
0.495766
0.495766
0.495766
0.495766
0.495766
0.495766
0.495766
0.495766
0.495766
0.495766
0.495766
0.495766
0.495766
0.495766
0.495766
0.495766
0.495766
0.495766
0.495766
0.495766
0.495766
0.495766
0.495766
0.495766
0.495766
0.495766
0.495766
0.495766
0.495766
0.495766
0.495766
0.495766
0.495766
0.495766
0.495766
0.495766
0.495766
0.495766
0.495766
0.495766
0.495766
0.495766
0.495766
0.495766
0.495766
0.495766
0.495766
0.495766
0.495766
0.495766
0.495766
0.495766
0.495766
0.495766
0.495766
0.495766
0.495766
0.495766
0.495766
0.495766
0.495766
0.495766
0.495766
0.495766
0.495766
0.495766
0.495766
0.495766
0.495766
0.495766
0.495766
0.495766
0.495766
0.495766
0.495766
0.495766
0.495766
0.495766
0.495766
0.495766
0.495766
0.495766
0.495766
0.495766
0.495766
0.495766
0.495766
0.495766
0.495766
0.495766
0.495766
0.495766
0.495766
0.495766
0.495766
0.495766
0.495766
0.495766
0.495766
0.495766
0.495766
0.495766
0.495766
0.495766
0.495766
0.495766
0.495766
0.495766
0.495766
0.495766
0.495766
0.495766
0.495766
0.495766
0.495766
0.495766
0.495766
0.495766
0.495766
0.495766
0.495766
0.495766
0.495766
0.495766
0.495766
0.495766
0.495766
0.495766
0.495766
0.495766
0.495766
0.495766
0.495766
0.495766
0.495766
0.495766
0.495766
0.495766