/*--------------------------------*- C++ -*----------------------------------*\
| =========                 |                                                 |
| \\      /  F ield         | OpenFOAM: The Open Source CFD Toolbox           |
|  \\    /   O peration     | Version:  v2012                                 |
|   \\  /    A nd           | Website:  www.openfoam.com                      |
|    \\/     M anipulation  |                                                 |
\*---------------------------------------------------------------------------*/
FoamFile
{
    version     2.0;
    format      ascii;
    class       volScalarField;
    location    "250/soil1";
    object      T;
}
// * * * * * * * * * * * * * * * * * * * * * * * * * * * * * * * * * * * * * //

dimensions      [0 0 0 1 0 0 0];


internalField   nonuniform List<scalar> 
57600
(
302.999
303.042
303.095
303.141
303.179
303.208
303.231
303.249
303.264
303.276
303.289
303.303
303.318
303.333
303.348
303.362
303.375
303.387
303.399
303.409
303.419
303.429
303.438
303.446
303.454
303.462
303.469
303.476
303.483
303.49
303.496
303.502
303.508
303.514
303.519
303.525
303.53
303.535
303.54
303.545
303.55
303.555
303.56
303.565
303.569
303.574
303.578
303.583
303.587
303.592
303.596
303.6
303.605
303.609
303.614
303.619
303.624
303.628
303.633
303.638
303.642
303.647
303.652
303.656
303.661
303.666
303.67
303.675
303.679
303.684
303.688
303.692
303.695
303.699
303.704
303.71
303.717
303.727
303.74
303.756
303.774
303.792
303.811
303.828
303.842
303.854
303.864
303.878
303.902
303.931
302.979
303.021
303.073
303.118
303.155
303.183
303.205
303.223
303.237
303.249
303.261
303.274
303.289
303.303
303.318
303.332
303.344
303.356
303.367
303.378
303.387
303.396
303.405
303.413
303.421
303.428
303.435
303.442
303.448
303.455
303.461
303.466
303.472
303.478
303.483
303.488
303.493
303.498
303.503
303.508
303.512
303.517
303.521
303.526
303.53
303.535
303.539
303.543
303.547
303.551
303.556
303.56
303.564
303.568
303.572
303.577
303.581
303.586
303.59
303.595
303.599
303.604
303.608
303.612
303.617
303.621
303.626
303.63
303.634
303.638
303.642
303.646
303.65
303.653
303.657
303.663
303.67
303.68
303.693
303.708
303.726
303.744
303.762
303.779
303.794
303.805
303.815
303.829
303.854
303.884
302.952
302.993
303.044
303.089
303.124
303.152
303.173
303.19
303.203
303.215
303.227
303.24
303.253
303.268
303.282
303.295
303.308
303.319
303.33
303.34
303.349
303.358
303.366
303.374
303.382
303.389
303.396
303.402
303.408
303.414
303.42
303.426
303.431
303.436
303.441
303.446
303.451
303.456
303.46
303.465
303.469
303.474
303.478
303.482
303.486
303.49
303.495
303.499
303.503
303.507
303.51
303.514
303.518
303.522
303.526
303.53
303.535
303.539
303.543
303.547
303.551
303.556
303.56
303.564
303.568
303.573
303.577
303.581
303.585
303.589
303.592
303.596
303.599
303.603
303.607
303.612
303.619
303.628
303.641
303.656
303.673
303.692
303.71
303.727
303.741
303.752
303.762
303.776
303.8
303.83
302.923
302.963
303.013
303.057
303.092
303.119
303.14
303.156
303.169
303.18
303.192
303.204
303.218
303.232
303.246
303.259
303.271
303.282
303.293
303.302
303.312
303.32
303.328
303.336
303.343
303.35
303.357
303.363
303.369
303.375
303.381
303.386
303.391
303.396
303.401
303.406
303.411
303.415
303.42
303.424
303.428
303.432
303.436
303.441
303.445
303.449
303.453
303.456
303.46
303.464
303.468
303.472
303.475
303.479
303.483
303.487
303.491
303.495
303.499
303.503
303.507
303.511
303.515
303.519
303.523
303.527
303.531
303.535
303.539
303.543
303.546
303.55
303.553
303.556
303.56
303.565
303.572
303.581
303.594
303.609
303.626
303.644
303.662
303.678
303.692
303.703
303.713
303.727
303.751
303.781
302.894
302.933
302.983
303.026
303.06
303.086
303.107
303.123
303.135
303.146
303.157
303.169
303.182
303.196
303.21
303.223
303.235
303.246
303.256
303.266
303.275
303.283
303.291
303.299
303.306
303.313
303.319
303.325
303.331
303.337
303.342
303.348
303.353
303.358
303.363
303.367
303.372
303.376
303.38
303.384
303.389
303.393
303.397
303.401
303.404
303.408
303.412
303.416
303.42
303.423
303.427
303.43
303.434
303.438
303.441
303.445
303.449
303.453
303.457
303.461
303.465
303.468
303.472
303.476
303.48
303.484
303.488
303.492
303.495
303.499
303.502
303.506
303.509
303.512
303.515
303.52
303.527
303.536
303.548
303.563
303.58
303.598
303.616
303.633
303.646
303.657
303.667
303.68
303.704
303.733
302.865
302.904
302.952
302.995
303.028
303.054
303.074
303.089
303.101
303.112
303.122
303.134
303.147
303.16
303.174
303.187
303.198
303.209
303.22
303.229
303.238
303.246
303.254
303.262
303.269
303.275
303.282
303.288
303.294
303.299
303.305
303.31
303.315
303.32
303.324
303.329
303.333
303.338
303.342
303.346
303.35
303.354
303.357
303.361
303.365
303.369
303.372
303.376
303.379
303.383
303.386
303.39
303.393
303.397
303.4
303.404
303.407
303.411
303.415
303.418
303.422
303.426
303.43
303.433
303.437
303.441
303.444
303.448
303.451
303.455
303.458
303.461
303.464
303.467
303.47
303.475
303.481
303.49
303.502
303.517
303.534
303.551
303.569
303.585
303.599
303.609
303.619
303.632
303.655
303.683
302.836
302.874
302.922
302.964
302.997
303.022
303.042
303.056
303.068
303.078
303.087
303.098
303.111
303.124
303.137
303.15
303.162
303.173
303.183
303.192
303.201
303.209
303.217
303.225
303.232
303.238
303.245
303.251
303.257
303.262
303.268
303.273
303.278
303.282
303.287
303.291
303.295
303.299
303.303
303.307
303.31
303.314
303.318
303.321
303.325
303.328
303.332
303.335
303.338
303.342
303.345
303.348
303.351
303.354
303.357
303.361
303.364
303.367
303.371
303.374
303.377
303.381
303.384
303.388
303.391
303.395
303.398
303.401
303.404
303.407
303.41
303.412
303.415
303.417
303.42
303.425
303.431
303.439
303.451
303.465
303.482
303.5
303.517
303.533
303.546
303.556
303.566
303.578
303.6
303.627
302.807
302.846
302.892
302.934
302.966
302.991
303.01
303.024
303.034
303.042
303.049
303.057
303.069
303.081
303.095
303.108
303.12
303.131
303.142
303.152
303.161
303.17
303.178
303.185
303.192
303.199
303.206
303.212
303.218
303.223
303.229
303.234
303.238
303.242
303.247
303.251
303.254
303.258
303.262
303.265
303.269
303.272
303.276
303.279
303.282
303.285
303.288
303.291
303.294
303.297
303.299
303.302
303.305
303.308
303.31
303.313
303.316
303.319
303.322
303.325
303.327
303.33
303.333
303.336
303.339
303.342
303.345
303.348
303.35
303.352
303.355
303.357
303.359
303.361
303.363
303.367
303.372
303.38
303.392
303.406
303.423
303.441
303.459
303.475
303.488
303.499
303.507
303.52
303.54
303.565
302.78
302.817
302.863
302.904
302.936
302.96
302.978
302.991
302.999
303.001
302.997
302.998
303.006
303.018
303.033
303.047
303.061
303.074
303.086
303.098
303.109
303.118
303.128
303.136
303.144
303.151
303.158
303.164
303.17
303.176
303.181
303.186
303.19
303.194
303.198
303.201
303.205
303.208
303.211
303.214
303.217
303.221
303.224
303.227
303.229
303.232
303.234
303.237
303.24
303.242
303.245
303.247
303.249
303.252
303.254
303.256
303.259
303.261
303.263
303.266
303.268
303.271
303.273
303.276
303.278
303.28
303.283
303.285
303.287
303.289
303.29
303.292
303.293
303.295
303.297
303.3
303.305
303.313
303.324
303.339
303.36
303.382
303.402
303.42
303.435
303.446
303.455
303.467
303.488
303.511
302.752
302.789
302.834
302.874
302.905
302.929
302.946
302.958
302.96
302.945
302.906
302.886
302.886
302.899
302.916
302.936
302.955
302.974
302.991
303.007
303.021
303.034
303.046
303.056
303.065
303.073
303.081
303.087
303.093
303.099
303.104
303.109
303.113
303.116
303.119
303.123
303.126
303.128
303.131
303.134
303.137
303.14
303.143
303.146
303.148
303.151
303.153
303.156
303.158
303.161
303.163
303.166
303.168
303.17
303.172
303.175
303.177
303.179
303.181
303.183
303.185
303.188
303.19
303.192
303.194
303.196
303.198
303.2
303.202
303.203
303.204
303.206
303.207
303.208
303.209
303.212
303.216
303.224
303.236
303.256
303.288
303.322
303.352
303.377
303.396
303.41
303.421
303.435
303.457
303.481
302.725
302.761
302.806
302.845
302.876
302.899
302.915
302.924
302.917
302.87
302.752
302.692
302.682
302.699
302.726
302.756
302.786
302.814
302.839
302.861
302.881
302.899
302.914
302.927
302.938
302.946
302.954
302.96
302.965
302.97
302.974
302.978
302.981
302.983
302.985
302.988
302.99
302.992
302.994
302.997
303
303.003
303.006
303.009
303.011
303.014
303.017
303.02
303.023
303.026
303.029
303.032
303.035
303.038
303.041
303.044
303.046
303.049
303.052
303.054
303.057
303.059
303.062
303.064
303.067
303.069
303.071
303.073
303.075
303.076
303.077
303.078
303.079
303.08
303.081
303.084
303.088
303.095
303.108
303.136
303.195
303.256
303.306
303.344
303.373
303.393
303.408
303.426
303.451
303.479
302.698
302.734
302.778
302.817
302.846
302.869
302.885
302.892
302.88
302.818
302.669
302.591
302.577
302.595
302.626
302.66
302.694
302.726
302.755
302.781
302.803
302.823
302.84
302.853
302.865
302.874
302.881
302.887
302.892
302.896
302.899
302.902
302.904
302.906
302.908
302.91
302.912
302.913
302.915
302.918
302.921
302.925
302.929
302.932
302.936
302.94
302.944
302.948
302.952
302.957
302.961
302.966
302.97
302.975
302.979
302.983
302.988
302.992
302.996
303.001
303.005
303.009
303.014
303.018
303.022
303.026
303.029
303.033
303.036
303.039
303.042
303.044
303.047
303.049
303.051
303.054
303.059
303.067
303.082
303.114
303.178
303.244
303.298
303.339
303.37
303.391
303.408
303.428
303.456
303.488
302.672
302.707
302.75
302.788
302.818
302.839
302.855
302.861
302.847
302.781
302.625
302.542
302.526
302.545
302.576
302.612
302.647
302.68
302.709
302.736
302.759
302.779
302.796
302.81
302.821
302.83
302.837
302.843
302.847
302.851
302.854
302.856
302.858
302.859
302.86
302.862
302.863
302.864
302.866
302.868
302.871
302.875
302.88
302.883
302.886
302.89
302.894
302.898
302.903
302.908
302.913
302.917
302.922
302.927
302.932
302.937
302.942
302.947
302.952
302.957
302.963
302.968
302.973
302.978
302.983
302.989
302.994
302.999
303.003
303.008
303.012
303.017
303.02
303.024
303.028
303.033
303.04
303.049
303.066
303.099
303.162
303.226
303.278
303.318
303.347
303.368
303.385
303.405
303.435
303.469
302.646
302.68
302.723
302.76
302.789
302.81
302.825
302.831
302.816
302.75
302.594
302.511
302.495
302.513
302.544
302.58
302.614
302.647
302.677
302.703
302.726
302.746
302.763
302.777
302.788
302.797
302.804
302.809
302.813
302.816
302.819
302.821
302.823
302.824
302.825
302.826
302.827
302.828
302.828
302.83
302.833
302.837
302.842
302.844
302.847
302.851
302.855
302.859
302.864
302.869
302.873
302.878
302.883
302.887
302.892
302.897
302.901
302.906
302.91
302.915
302.92
302.924
302.929
302.934
302.938
302.943
302.947
302.951
302.955
302.959
302.963
302.966
302.97
302.973
302.976
302.98
302.986
302.995
303.011
303.042
303.103
303.163
303.213
303.251
303.278
303.298
303.315
303.334
303.363
303.395
302.62
302.654
302.696
302.733
302.761
302.782
302.796
302.802
302.787
302.721
302.567
302.485
302.469
302.486
302.517
302.552
302.587
302.619
302.648
302.674
302.697
302.717
302.733
302.747
302.758
302.767
302.774
302.779
302.783
302.786
302.788
302.79
302.791
302.792
302.793
302.794
302.796
302.795
302.796
302.797
302.8
302.804
302.809
302.811
302.814
302.818
302.822
302.826
302.831
302.836
302.84
302.845
302.849
302.854
302.858
302.862
302.867
302.871
302.875
302.88
302.884
302.888
302.892
302.896
302.9
302.904
302.907
302.911
302.914
302.917
302.92
302.922
302.924
302.926
302.928
302.931
302.936
302.944
302.957
302.987
303.045
303.104
303.152
303.188
303.214
303.234
303.25
303.269
303.297
303.328
302.595
302.628
302.67
302.706
302.733
302.754
302.768
302.773
302.758
302.693
302.542
302.46
302.444
302.462
302.492
302.527
302.561
302.592
302.621
302.647
302.669
302.688
302.705
302.718
302.729
302.737
302.744
302.749
302.754
302.757
302.759
302.76
302.761
302.762
302.763
302.764
302.765
302.765
302.764
302.766
302.769
302.773
302.778
302.781
302.783
302.787
302.792
302.797
302.802
302.806
302.811
302.815
302.82
302.824
302.828
302.833
302.837
302.842
302.846
302.85
302.854
302.858
302.862
302.866
302.87
302.874
302.877
302.88
302.883
302.886
302.889
302.891
302.893
302.894
302.896
302.899
302.903
302.911
302.924
302.953
303.01
303.068
303.115
303.15
303.176
303.195
303.211
303.23
303.258
303.288
302.57
302.603
302.643
302.679
302.706
302.726
302.739
302.744
302.73
302.666
302.517
302.437
302.422
302.439
302.469
302.503
302.536
302.567
302.595
302.621
302.642
302.661
302.677
302.69
302.7
302.708
302.715
302.72
302.725
302.728
302.73
302.731
302.732
302.732
302.733
302.734
302.735
302.734
302.733
302.734
302.737
302.742
302.747
302.751
302.753
302.758
302.763
302.768
302.774
302.779
302.784
302.788
302.793
302.797
302.802
302.806
302.811
302.816
302.82
302.824
302.828
302.833
302.837
302.841
302.845
302.849
302.852
302.856
302.859
302.862
302.865
302.868
302.87
302.872
302.874
302.877
302.882
302.89
302.905
302.934
302.991
303.048
303.095
303.13
303.157
303.176
303.191
303.21
303.237
303.267
302.545
302.578
302.618
302.653
302.679
302.699
302.712
302.717
302.703
302.64
302.496
302.419
302.404
302.421
302.45
302.483
302.515
302.546
302.573
302.597
302.618
302.636
302.651
302.663
302.672
302.68
302.686
302.691
302.696
302.699
302.701
302.702
302.702
302.702
302.702
302.703
302.704
302.703
302.701
302.702
302.705
302.71
302.716
302.72
302.723
302.728
302.735
302.741
302.747
302.753
302.758
302.762
302.767
302.772
302.777
302.782
302.786
302.791
302.796
302.8
302.804
302.809
302.813
302.817
302.822
302.826
302.83
302.833
302.837
302.84
302.844
302.846
302.849
302.851
302.854
302.858
302.863
302.872
302.887
302.917
302.975
303.033
303.08
303.116
303.142
303.161
303.177
303.195
303.221
303.252
302.521
302.553
302.592
302.627
302.653
302.672
302.685
302.69
302.677
302.62
302.486
302.415
302.402
302.418
302.446
302.477
302.508
302.536
302.561
302.583
302.602
302.618
302.631
302.641
302.649
302.656
302.661
302.665
302.669
302.673
302.675
302.675
302.675
302.675
302.675
302.676
302.676
302.675
302.673
302.674
302.676
302.681
302.687
302.692
302.696
302.702
302.71
302.718
302.725
302.731
302.736
302.741
302.746
302.751
302.757
302.762
302.767
302.771
302.775
302.78
302.784
302.788
302.792
302.796
302.799
302.803
302.807
302.81
302.814
302.817
302.819
302.822
302.824
302.826
302.829
302.832
302.837
302.845
302.859
302.889
302.946
303.004
303.051
303.088
303.114
303.133
303.148
303.166
303.191
303.22
302.497
302.529
302.567
302.601
302.626
302.645
302.658
302.664
302.656
302.613
302.509
302.455
302.447
302.462
302.486
302.512
302.538
302.561
302.582
302.599
302.614
302.626
302.636
302.644
302.65
302.655
302.659
302.663
302.668
302.671
302.674
302.675
302.676
302.675
302.675
302.677
302.679
302.679
302.678
302.679
302.681
302.685
302.689
302.693
302.697
302.703
302.712
302.72
302.727
302.733
302.739
302.744
302.749
302.755
302.76
302.765
302.769
302.773
302.777
302.78
302.783
302.786
302.789
302.792
302.794
302.797
302.8
302.802
302.805
302.807
302.808
302.81
302.811
302.813
302.814
302.817
302.821
302.828
302.841
302.868
302.919
302.971
303.014
303.048
303.073
303.09
303.104
303.12
303.144
303.17
302.474
302.504
302.543
302.576
302.601
302.619
302.632
302.639
302.639
302.625
302.59
302.573
302.574
302.586
302.602
302.618
302.635
302.65
302.663
302.675
302.686
302.694
302.702
302.708
302.713
302.719
302.724
302.729
302.735
302.74
302.745
302.749
302.751
302.752
302.754
302.758
302.763
302.767
302.77
302.772
302.773
302.773
302.773
302.772
302.772
302.777
302.783
302.788
302.792
302.795
302.798
302.801
302.804
302.809
302.813
302.816
302.82
302.823
302.826
302.829
302.832
302.835
302.837
302.84
302.842
302.845
302.848
302.85
302.852
302.854
302.856
302.858
302.859
302.86
302.862
302.865
302.87
302.877
302.889
302.908
302.938
302.968
302.996
303.019
303.037
303.049
303.06
303.073
303.094
303.118
302.45
302.481
302.518
302.551
302.575
302.593
302.606
302.614
302.618
302.618
302.613
302.613
302.62
302.63
302.642
302.654
302.666
302.677
302.688
302.697
302.705
302.712
302.719
302.724
302.729
302.734
302.74
302.745
302.752
302.759
302.765
302.77
302.773
302.776
302.779
302.786
302.796
302.805
302.814
302.817
302.817
302.812
302.806
302.799
302.796
302.797
302.801
302.804
302.806
302.807
302.808
302.81
302.814
302.817
302.821
302.824
302.827
302.83
302.833
302.836
302.839
302.842
302.844
302.847
302.849
302.852
302.855
302.857
302.859
302.861
302.863
302.865
302.866
302.868
302.87
302.873
302.878
302.886
302.897
302.912
302.932
302.952
302.972
302.99
303.004
303.014
303.023
303.035
303.054
303.077
302.427
302.457
302.494
302.526
302.55
302.567
302.58
302.588
302.594
302.598
302.601
302.607
302.615
302.625
302.636
302.647
302.657
302.667
302.677
302.685
302.693
302.699
302.705
302.71
302.715
302.72
302.726
302.731
302.738
302.745
302.751
302.757
302.761
302.765
302.771
302.782
302.798
302.814
302.828
302.834
302.832
302.822
302.807
302.794
302.785
302.783
302.784
302.786
302.787
302.787
302.789
302.791
302.794
302.798
302.801
302.805
302.808
302.811
302.814
302.817
302.82
302.823
302.826
302.829
302.832
302.834
302.837
302.84
302.842
302.844
302.846
302.848
302.85
302.851
302.853
302.857
302.862
302.869
302.88
302.894
302.91
302.928
302.945
302.961
302.973
302.983
302.99
303.001
303.02
303.042
302.404
302.434
302.47
302.501
302.525
302.542
302.554
302.562
302.568
302.573
302.578
302.585
302.594
302.604
302.615
302.625
302.635
302.644
302.653
302.661
302.669
302.675
302.681
302.686
302.691
302.696
302.702
302.707
302.713
302.72
302.726
302.732
302.737
302.742
302.752
302.768
302.791
302.813
302.833
302.842
302.837
302.819
302.795
302.774
302.758
302.751
302.75
302.75
302.75
302.751
302.752
302.754
302.758
302.761
302.765
302.768
302.771
302.775
302.778
302.781
302.784
302.787
302.791
302.793
302.796
302.799
302.802
302.805
302.807
302.81
302.812
302.814
302.815
302.817
302.819
302.822
302.827
302.834
302.845
302.858
302.873
302.889
302.905
302.92
302.932
302.94
302.947
302.956
302.974
302.995
302.382
302.41
302.446
302.477
302.5
302.516
302.528
302.536
302.542
302.547
302.552
302.559
302.568
302.578
302.588
302.598
302.608
302.617
302.626
302.634
302.642
302.648
302.654
302.659
302.664
302.669
302.675
302.68
302.686
302.693
302.699
302.705
302.71
302.717
302.729
302.751
302.78
302.807
302.833
302.843
302.832
302.804
302.768
302.738
302.713
302.7
302.696
302.695
302.694
302.694
302.695
302.698
302.701
302.704
302.707
302.71
302.714
302.717
302.721
302.724
302.728
302.731
302.734
302.738
302.741
302.744
302.747
302.749
302.752
302.754
302.757
302.758
302.76
302.761
302.763
302.766
302.77
302.777
302.787
302.799
302.814
302.829
302.844
302.858
302.868
302.876
302.881
302.89
302.906
302.925
302.359
302.387
302.422
302.452
302.475
302.491
302.502
302.51
302.516
302.52
302.526
302.533
302.542
302.551
302.561
302.571
302.581
302.59
302.598
302.606
302.614
302.62
302.626
302.631
302.636
302.642
302.647
302.653
302.66
302.666
302.673
302.678
302.684
302.691
302.705
302.731
302.764
302.795
302.822
302.828
302.805
302.761
302.71
302.669
302.637
302.619
302.612
302.61
302.609
302.609
302.611
302.613
302.616
302.619
302.623
302.627
302.631
302.636
302.64
302.644
302.649
302.653
302.657
302.661
302.665
302.668
302.671
302.675
302.677
302.68
302.682
302.684
302.685
302.687
302.688
302.691
302.695
302.702
302.711
302.723
302.737
302.752
302.766
302.779
302.79
302.797
302.803
302.811
302.825
302.843
302.337
302.365
302.399
302.429
302.451
302.466
302.477
302.485
302.49
302.495
302.5
302.507
302.515
302.525
302.535
302.545
302.554
302.563
302.571
302.579
302.586
302.593
302.599
302.604
302.609
302.614
302.62
302.626
302.633
302.64
302.647
302.653
302.659
302.666
302.682
302.709
302.743
302.768
302.784
302.772
302.728
302.665
302.601
302.555
302.521
302.503
302.498
302.498
302.5
302.503
302.507
302.512
302.517
302.523
302.529
302.535
302.541
302.548
302.553
302.559
302.564
302.569
302.574
302.579
302.583
302.586
302.59
302.593
302.596
302.599
302.601
302.603
302.604
302.606
302.607
302.61
302.614
302.621
302.63
302.642
302.656
302.671
302.686
302.7
302.711
302.719
302.725
302.733
302.748
302.764
302.317
302.344
302.378
302.407
302.428
302.443
302.454
302.461
302.466
302.47
302.475
302.482
302.49
302.5
302.51
302.519
302.528
302.537
302.545
302.553
302.561
302.567
302.573
302.579
302.583
302.588
302.593
302.599
302.606
302.614
302.622
302.629
302.636
302.645
302.66
302.686
302.715
302.723
302.708
302.658
302.59
302.518
302.454
302.417
302.392
302.384
302.386
302.394
302.403
302.412
302.42
302.429
302.437
302.446
302.454
302.462
302.469
302.475
302.481
302.487
302.492
302.496
302.501
302.505
302.508
302.511
302.514
302.517
302.52
302.522
302.524
302.526
302.527
302.529
302.531
302.534
302.539
302.546
302.556
302.569
302.584
302.6
302.615
302.63
302.642
302.651
302.658
302.667
302.682
302.698
302.298
302.325
302.358
302.387
302.408
302.422
302.433
302.44
302.444
302.448
302.453
302.46
302.468
302.477
302.487
302.497
302.506
302.514
302.522
302.53
302.538
302.544
302.551
302.556
302.56
302.565
302.57
302.576
302.584
302.591
302.599
302.607
302.616
302.627
302.644
302.665
302.676
302.623
302.473
302.356
302.279
302.25
302.281
302.295
302.295
302.3
302.311
302.326
302.34
302.354
302.366
302.377
302.387
302.397
302.405
302.413
302.419
302.424
302.429
302.432
302.436
302.439
302.442
302.444
302.447
302.449
302.451
302.454
302.456
302.458
302.46
302.462
302.464
302.466
302.468
302.472
302.478
302.486
302.497
302.51
302.525
302.542
302.559
302.574
302.587
302.597
302.605
302.615
302.629
302.645
302.283
302.309
302.342
302.37
302.391
302.405
302.415
302.422
302.426
302.43
302.435
302.441
302.449
302.459
302.468
302.478
302.487
302.495
302.503
302.511
302.518
302.525
302.532
302.538
302.543
302.549
302.556
302.562
302.568
302.575
302.581
302.59
302.601
302.616
302.635
302.65
302.632
302.485
302.124
301.929
301.863
301.915
302.126
302.221
302.247
302.261
302.274
302.289
302.305
302.32
302.334
302.347
302.358
302.368
302.376
302.382
302.388
302.391
302.395
302.397
302.399
302.4
302.402
302.403
302.404
302.405
302.407
302.408
302.41
302.412
302.413
302.415
302.417
302.42
302.422
302.427
302.433
302.441
302.452
302.466
302.482
302.499
302.517
302.533
302.546
302.557
302.565
302.575
302.59
302.606
302.271
302.297
302.329
302.357
302.378
302.392
302.402
302.408
302.413
302.416
302.421
302.427
302.436
302.445
302.455
302.464
302.473
302.481
302.489
302.497
302.504
302.512
302.519
302.526
302.534
302.544
302.553
302.56
302.566
302.569
302.572
302.579
302.592
302.612
302.634
302.644
302.599
302.365
301.814
301.555
301.503
301.638
302.024
302.195
302.243
302.258
302.266
302.276
302.289
302.304
302.318
302.331
302.343
302.353
302.362
302.368
302.373
302.377
302.381
302.382
302.383
302.384
302.383
302.383
302.383
302.382
302.382
302.383
302.383
302.384
302.386
302.387
302.389
302.391
302.394
302.398
302.404
302.412
302.424
302.438
302.454
302.471
302.489
302.505
302.519
302.53
302.539
302.549
302.564
302.579
302.264
302.289
302.322
302.349
302.369
302.384
302.393
302.4
302.404
302.408
302.412
302.419
302.427
302.437
302.446
302.456
302.465
302.473
302.481
302.489
302.496
302.504
302.512
302.523
302.536
302.55
302.565
302.574
302.578
302.577
302.573
302.576
302.588
302.611
302.636
302.642
302.58
302.295
301.639
301.343
301.306
301.504
302.009
302.232
302.288
302.296
302.291
302.29
302.296
302.306
302.318
302.329
302.341
302.351
302.36
302.368
302.374
302.379
302.385
302.388
302.389
302.388
302.387
302.385
302.382
302.38
302.378
302.377
302.376
302.376
302.376
302.376
302.377
302.378
302.381
302.384
302.39
302.398
302.41
302.424
302.44
302.457
302.474
302.49
302.504
302.515
302.524
302.534
302.549
302.565
302.26
302.286
302.318
302.345
302.365
302.38
302.389
302.396
302.4
302.404
302.408
302.415
302.423
302.433
302.443
302.452
302.461
302.47
302.478
302.486
302.493
302.502
302.513
302.529
302.548
302.569
302.59
302.601
302.603
302.596
302.585
302.579
302.582
302.603
302.627
302.63
302.561
302.262
301.577
301.272
301.25
301.494
302.087
302.34
302.391
302.382
302.357
302.339
302.332
302.334
302.339
302.347
302.355
302.363
302.37
302.376
302.382
302.39
302.403
302.408
302.41
302.409
302.406
302.403
302.4
302.396
302.392
302.389
302.386
302.384
302.383
302.382
302.381
302.381
302.383
302.385
302.39
302.398
302.409
302.422
302.438
302.455
302.472
302.488
302.501
302.512
302.52
302.531
302.545
302.561
302.259
302.285
302.317
302.345
302.365
302.379
302.388
302.395
302.399
302.403
302.407
302.414
302.422
302.432
302.442
302.452
302.461
302.47
302.478
302.486
302.494
302.504
302.519
302.54
302.568
302.596
302.623
302.637
302.637
302.622
302.6
302.584
302.576
302.589
302.606
302.601
302.528
302.229
301.55
301.25
301.24
301.514
302.162
302.441
302.495
302.481
302.444
302.413
302.395
302.387
302.385
302.385
302.388
302.391
302.394
302.398
302.402
302.41
302.425
302.431
302.433
302.433
302.431
302.428
302.424
302.42
302.416
302.412
302.409
302.405
302.403
302.4
302.398
302.397
302.397
302.399
302.403
302.409
302.419
302.432
302.447
302.463
302.48
302.495
302.508
302.518
302.526
302.536
302.551
302.566
302.261
302.286
302.318
302.346
302.366
302.38
302.39
302.396
302.4
302.404
302.408
302.415
302.423
302.433
302.443
302.453
302.462
302.471
302.479
302.487
302.495
302.507
302.526
302.554
302.589
302.623
302.657
302.674
302.669
302.644
302.609
302.58
302.557
302.556
302.553
302.519
302.409
302.101
301.448
301.163
301.16
301.444
302.107
302.418
302.517
302.523
302.488
302.451
302.426
302.411
302.402
302.398
302.397
302.399
302.401
302.405
302.411
302.42
302.436
302.444
302.447
302.448
302.447
302.445
302.442
302.44
302.436
302.433
302.43
302.428
302.425
302.423
302.421
302.419
302.418
302.419
302.423
302.429
302.438
302.45
302.464
302.479
302.495
302.51
302.522
302.532
302.539
302.549
302.563
302.579
302.262
302.288
302.32
302.348
302.368
302.382
302.392
302.398
302.402
302.406
302.41
302.417
302.425
302.435
302.444
302.454
302.464
302.473
302.481
302.489
302.497
302.51
302.531
302.564
302.604
302.644
302.683
302.7
302.686
302.646
302.594
302.551
302.515
302.494
302.452
302.322
302.021
301.665
301.12
300.888
300.891
301.137
301.722
302.106
302.415
302.517
302.506
302.468
302.437
302.416
302.402
302.394
302.393
302.394
302.397
302.402
302.408
302.419
302.435
302.443
302.447
302.448
302.449
302.448
302.447
302.446
302.445
302.443
302.442
302.44
302.439
302.437
302.436
302.435
302.435
302.436
302.439
302.445
302.454
302.466
302.48
302.496
302.511
302.525
302.538
302.547
302.554
302.563
302.577
302.592
302.264
302.289
302.322
302.349
302.37
302.384
302.394
302.4
302.404
302.408
302.412
302.419
302.427
302.437
302.446
302.456
302.466
302.474
302.483
302.491
302.499
302.512
302.534
302.568
302.609
302.647
302.682
302.69
302.661
302.604
302.539
302.49
302.448
302.414
302.313
301.961
301.118
300.613
300.279
300.146
300.148
300.293
300.651
301.192
302.083
302.429
302.485
302.463
302.436
302.418
302.406
302.4
302.397
302.396
302.398
302.401
302.406
302.415
302.431
302.439
302.442
302.444
302.445
302.446
302.447
302.447
302.447
302.447
302.446
302.446
302.446
302.445
302.444
302.444
302.444
302.446
302.449
302.455
302.464
302.476
302.49
302.506
302.521
302.535
302.547
302.556
302.563
302.572
302.586
302.601
302.264
302.29
302.323
302.35
302.371
302.385
302.394
302.401
302.405
302.409
302.413
302.42
302.428
302.438
302.448
302.458
302.467
302.476
302.485
302.493
302.501
302.513
302.533
302.563
302.598
302.624
302.641
302.623
302.576
302.511
302.444
302.404
302.376
302.349
302.23
301.769
300.672
300.08
299.825
299.738
299.74
299.832
300.102
300.728
301.892
302.373
302.474
302.464
302.44
302.421
302.409
302.401
302.397
302.394
302.394
302.396
302.401
302.409
302.424
302.431
302.435
302.437
302.439
302.441
302.442
302.443
302.444
302.445
302.445
302.446
302.446
302.447
302.447
302.447
302.448
302.449
302.453
302.46
302.469
302.481
302.495
302.511
302.526
302.54
302.552
302.561
302.568
302.576
302.59
302.605
302.264
302.29
302.323
302.35
302.371
302.385
302.394
302.401
302.405
302.409
302.414
302.42
302.429
302.438
302.448
302.458
302.468
302.477
302.485
302.494
302.502
302.513
302.529
302.549
302.561
302.528
302.42
302.337
302.28
302.258
302.292
302.31
302.313
302.306
302.193
301.701
300.521
299.894
299.657
299.584
299.585
299.661
299.908
300.567
301.817
302.348
302.468
302.465
302.441
302.422
302.409
302.401
302.395
302.393
302.393
302.396
302.4
302.408
302.423
302.43
302.433
302.435
302.437
302.438
302.44
302.441
302.443
302.444
302.445
302.446
302.446
302.447
302.447
302.448
302.449
302.451
302.456
302.462
302.472
302.484
302.499
302.514
302.53
302.544
302.556
302.565
302.571
302.58
302.593
302.608
302.264
302.29
302.322
302.35
302.37
302.384
302.394
302.4
302.405
302.408
302.413
302.42
302.428
302.438
302.448
302.457
302.467
302.476
302.485
302.494
302.502
302.511
302.522
302.528
302.503
302.368
302.04
301.872
301.822
301.888
302.118
302.228
302.267
302.276
302.172
301.678
300.476
299.839
299.605
299.536
299.536
299.607
299.851
300.519
301.793
302.339
302.467
302.469
302.448
302.429
302.417
302.408
302.403
302.402
302.403
302.406
302.411
302.42
302.436
302.444
302.446
302.446
302.446
302.446
302.446
302.447
302.448
302.448
302.449
302.449
302.45
302.45
302.451
302.451
302.452
302.455
302.459
302.466
302.476
302.489
302.503
302.519
302.535
302.549
302.561
302.569
302.576
302.584
302.597
302.612
302.264
302.289
302.322
302.349
302.37
302.384
302.393
302.4
302.404
302.408
302.412
302.419
302.427
302.437
302.447
302.457
302.466
302.475
302.484
302.493
302.501
302.509
302.515
302.507
302.443
302.203
301.663
301.416
301.379
301.539
301.966
302.167
302.236
302.251
302.149
301.658
300.46
299.826
299.594
299.526
299.527
299.597
299.839
300.509
301.79
302.341
302.475
302.482
302.464
302.448
302.435
302.427
302.423
302.422
302.424
302.428
302.436
302.448
302.467
302.476
302.477
302.474
302.469
302.466
302.464
302.463
302.462
302.461
302.461
302.46
302.46
302.46
302.46
302.46
302.46
302.463
302.467
302.474
302.484
302.496
302.511
302.526
302.542
302.556
302.568
302.577
302.583
302.591
302.604
302.618
302.263
302.289