/*--------------------------------*- C++ -*----------------------------------*\
| =========                 |                                                 |
| \\      /  F ield         | OpenFOAM: The Open Source CFD Toolbox           |
|  \\    /   O peration     | Version:  v2012                                 |
|   \\  /    A nd           | Website:  www.openfoam.com                      |
|    \\/     M anipulation  |                                                 |
\*---------------------------------------------------------------------------*/
FoamFile
{
    version     2.0;
    format      ascii;
    class       volScalarField;
    location    "300/concrete";
    object      T;
}
// * * * * * * * * * * * * * * * * * * * * * * * * * * * * * * * * * * * * * //

dimensions      [0 0 0 1 0 0 0];


internalField   nonuniform List<scalar> 
1924
(
325.442
325.632
325.839
325.884
325.838
324.659
311.912
310.629
310.518
311.43
322.602
323.305
323.118
322.945
322.775
322.71
322.713
322.755
322.831
322.939
323.069
323.208
323.344
323.475
323.6
323.731
325.375
325.507
325.629
325.575
325.549
324.406
311.95
310.698
310.652
311.759
323.919
324.851
324.612
324.37
324.094
323.91
323.776
323.68
323.628
323.622
323.651
323.7
323.759
323.823
323.896
323.991
325.164
325.156
325.102
324.976
325.114
324.026
311.437
310.157
310.137
311.379
324.162
325.263
324.883
324.67
324.457
324.341
324.251
324.174
324.118
324.083
324.06
324.045
324.039
324.049
324.082
324.168
324.7
324.531
324.273
324.032
323.657
322.578
311.881
310.735
310.72
311.921
323.649
325.215
325.549
325.455
325.099
324.824
324.575
324.415
324.359
324.327
324.258
324.167
324.122
324.224
324.486
324.791
323.937
323.752
323.407
322.004
303.261
300.345
298.541
298.05
298.057
298.587
300.554
303.77
324.501
325.62
325.287
324.92
324.615
324.536
324.54
324.606
324.704
324.809
324.879
324.929
324.98
325.009
323.118
323.192
323.211
321.782
300.484
297.111
296.166
295.894
295.899
296.191
297.203
300.832
323.846
325.488
325.346
325.113
324.938
324.844
324.819
324.833
324.846
324.835
324.795
324.758
324.744
324.739
322.543
322.891
323.196
321.926
299.947
296.429
295.584
295.362
295.365
295.598
296.492
300.241
323.707
325.437
325.352
325.135
324.931
324.775
324.673
324.613
324.565
324.513
324.472
324.449
324.436
324.438
322.323
322.755
323.183
322.054
299.827
296.262
295.428
295.218
295.22
295.44
296.318
300.103
323.683
325.416
325.322
325.06
324.802
324.595
324.443
324.344
324.282
324.25
324.245
324.25
324.259
324.286
322.169
322.584
323.002
321.929
299.778
296.226
295.4
295.194
295.195
295.411
296.286
300.081
323.719
325.47
325.345
325.061
324.776
324.547
324.376
324.269
324.211
324.197
324.207
324.23
324.265
324.318
322.162
322.462
322.732
321.587
299.758
296.266
295.457
295.255
295.255
295.466
296.333
300.125
323.875
325.724
325.561
325.254
324.937
324.689
324.502
324.387
324.333
324.312
324.323
324.365
324.434
324.518
322.58
322.583
322.522
321.196
299.891
296.527
295.754
295.557
295.55
295.745
296.581
300.316
324.17
326.227
326.039
325.546
325.15
324.882
324.706
324.59
324.521
324.494
324.514
324.586
324.701
324.82
323.317
323.027
322.527
320.96
300.895
297.876
297.184
296.987
296.951
297.094
297.813
301.22
324.265
325.961
325.732
325.359
325.061
324.863
324.739
324.663
324.624
324.624
324.678
324.799
324.97
325.13
324.028
323.657
322.972
321.468
308.954
307.328
306.815
306.535
306.346
306.279
306.569
308.358
322.88
324.363
324.529
324.516
324.501
324.509
324.535
324.571
324.615
324.679
324.789
324.965
325.187
325.382
324.499
324.222
323.603
322.019
309.8
308.39
307.999
307.816
307.716
307.713
307.965
309.363
322.162
323.621
323.973
324.133
324.258
324.378
324.493
324.597
324.692
324.795
324.934
325.132
325.369
325.574
324.749
324.587
324.123
322.571
309.901
308.519
308.178
308.029
307.956
307.964
308.188
309.499
322.323
323.76
324.119
324.293
324.427
324.551
324.667
324.773
324.87
324.972
325.102
325.282
325.495
325.658
324.894
324.796
324.461
323.025
310.055
308.677
308.361
308.23
308.171
308.188
308.401
309.676
322.552
323.938
324.269
324.433
324.561
324.681
324.794
324.9
325
325.102
325.221
325.376
325.556
325.69
325.007
324.934
324.68
323.433
311.392
310.122
309.842
309.73
309.684
309.703
309.894
311.059
322.982
324.239
324.529
324.674
324.788
324.893
324.991
325.086
325.178
325.271
325.37
325.483
325.586
325.412
325.106
325.048
324.865
323.921
314.644
313.655
313.44
313.36
313.328
313.345
313.494
314.402
323.616
324.595
324.823
324.939
325.034
325.12
325.202
325.283
325.364
325.446
325.527
325.595
325.587
324.929
325.183
325.142
325.033
324.47
319.092
318.496
318.368
318.326
318.312
318.327
318.426
318.984
324.351
324.959
325.114
325.2
325.272
325.341
325.406
325.472
325.54
325.611
325.677
325.711
325.596
324.484
325.235
325.214
325.17
324.948
323.081
322.844
322.796
322.789
322.793
322.809
322.864
323.103
324.993
325.262
325.35
325.408
325.461
325.514
325.565
325.618
325.674
325.733
325.788
325.803
325.626
324.265
325.272
325.266
325.265
325.255
325.432
325.42
325.424
325.439
325.456
325.473
325.499
325.541
325.404
325.461
325.506
325.547
325.588
325.63
325.673
325.717
325.763
325.812
325.855
325.857
325.659
324.29
325.305
325.306
325.325
325.393
326.139
326.209
326.238
326.264
326.286
326.305
326.319
326.29
325.589
325.571
325.597
325.629
325.664
325.702
325.741
325.78
325.819
325.859
325.892
325.883
325.68
324.328
325.339
325.344
325.368
325.433
325.954
326.02
326.054
326.083
326.108
326.127
326.139
326.115
325.641
325.629
325.652
325.681
325.713
325.749
325.786
325.823
325.859
325.894
325.92
325.904
325.699
324.368
325.377
325.384
325.407
325.448
325.616
325.656
325.687
325.715
325.74
325.761
325.777
325.779
325.659
325.674
325.698
325.726
325.758
325.792
325.828
325.864
325.898
325.929
325.951
325.936
325.748
324.523
325.416
325.424
325.448
325.474
325.457
325.479
325.507
325.534
325.559
325.581
325.602
325.621
325.689
325.721
325.746
325.773
325.803
325.836
325.87
325.905
325.938
325.968
325.989
325.979
325.831
324.845
325.454
325.463
325.488
325.513
325.47
325.488
325.515
325.54
325.565
325.589
325.613
325.639
325.735
325.771
325.795
325.821
325.849
325.88
325.912
325.945
325.977
326.007
326.029
326.03
325.938
325.299
325.487
325.498
325.526
325.555
325.543
325.563
325.589
325.614
325.639
325.665
325.691
325.718
325.784
325.818
325.841
325.865
325.891
325.92
325.95
325.981
326.012
326.041
326.066
326.079
326.043
325.75
325.515
325.529
325.559
325.593
325.606
325.628
325.654
325.678
325.704
325.731
325.758
325.784
325.828
325.86
325.882
325.903
325.927
325.954
325.982
326.012
326.041
326.07
326.097
326.119
326.127
326.079
325.54
325.556
325.589
325.624
325.645
325.667
325.692
325.717
325.743
325.77
325.798
325.825
325.864
325.896
325.917
325.936
325.959
325.983
326.01
326.038
326.066
326.095
326.122
326.15
326.18
326.249
325.562
325.58
325.614
325.65
325.67
325.691
325.716
325.742
325.768
325.795
325.824
325.852
325.894
325.927
325.948
325.967
325.987
326.01
326.035
326.061
326.088
326.116
326.144
326.173
326.211
326.302
325.583
325.602
325.637
325.673
325.69
325.711
325.737
325.764
325.791
325.818
325.846
325.875
325.92
325.954
325.977
325.995
326.014
326.035
326.058
326.083
326.109
326.135
326.163
326.193
326.23
326.304
325.602
325.622
325.658
325.693
325.71
325.732
325.758
325.786
325.813
325.841
325.869
325.898
325.942
325.978
326.002
326.021
326.039
326.059
326.08
326.104
326.128
326.154
326.181
326.21
326.244
326.301
325.618
325.639
325.674
325.708
325.728
325.75
325.778
325.806
325.834
325.862
325.89
325.919
325.961
325.997
326.022
326.043
326.062
326.08
326.101
326.123
326.146
326.171
326.198
326.226
326.258
326.306
325.632
325.652
325.686
325.72
325.742
325.766
325.795
325.824
325.852
325.881
325.909
325.937
325.976
326.011
326.038
326.06
326.08
326.099
326.119
326.14
326.162
326.187
326.212
326.24
326.271
326.318
325.643
325.663
325.696
325.729
325.754
325.78
325.809
325.839
325.868
325.897
325.925
325.953
325.989
326.022
326.05
326.074
326.096
326.115
326.135
326.155
326.178
326.201
326.226
326.253
326.283
326.33
325.654
325.674
325.707
325.739
325.767
325.795
325.825
325.855
325.885
325.914
325.942
325.97
326.004
326.035
326.063
326.088
326.111
326.133
326.153
326.174
326.196
326.219
326.243
326.269
326.298
326.344
325.678
325.7
325.733
325.766
325.796
325.826
325.856
325.887
325.917
325.946
325.975
326.003
326.034
326.064
326.092
326.118
326.142
326.165
326.187
326.208
326.23
326.254
326.277
326.302
326.33
326.371
327.229
327.418
327.621
327.648
327.635
326.797
312.085
311.143
311.04
311.642
324.583
324.936
324.681
324.496
324.323
324.261
324.265
324.311
324.394
324.514
324.658
324.812
324.963
325.108
325.246
325.385
327.165
327.292
327.402
327.316
327.328
326.523
312.174
311.26
311.218
311.999
326.068
326.671
326.368
326.114
325.828
325.633
325.481
325.365
325.299
325.288
325.317
325.37
325.433
325.503
325.581
325.675
326.942
326.919
326.837
326.687
326.954
326.227
311.631
310.666
310.644
311.559
326.383
327.138
326.61
326.378
326.176
326.076
325.99
325.908
325.848
325.812
325.79
325.771
325.759
325.761
325.782
325.848
326.445
326.245
325.953
325.802
326.065
325.408
312.863
311.947
311.925
312.869
326.654
327.876
327.548
327.331
326.926
326.637
326.368
326.163
326.098
326.088
326.041
325.928
325.822
325.859
326.134
326.541
325.609
325.401
325.084
324.147
301.945
299.367
297.776
297.356
297.362
297.814
299.55
302.398
327.085
327.618
327.135
326.697
326.337
326.245
326.244
326.325
326.471
326.649
326.776
326.834
326.893
326.931
324.711
324.802
324.946
324.166
299.477
296.498
295.69
295.458
295.462
295.711
296.577
299.783
326.537
327.512
327.223
326.956
326.77
326.673
326.661
326.7
326.737
326.741
326.696
326.639
326.618
326.602
324.095
324.493
324.967
324.419
299.02
295.914
295.192
295.004
295.007
295.205
295.968
299.277
326.442
327.462
327.225
326.973
326.753
326.589
326.486
326.432
326.393
326.341
326.292
326.261
326.241
326.23
323.888
324.37
324.977
324.603
298.919
295.772
295.06
294.882
294.883
295.07
295.82
299.16
326.432
327.439
327.182
326.87
326.585
326.361
326.2
326.096
326.032
325.999
325.995
326.001
326.006
326.023
323.737
324.198
324.792
324.475
298.877
295.742
295.036
294.861
294.862
295.045
295.793
299.141
326.48
327.501
327.198
326.858
326.538
326.286
326.1
325.985
325.923
325.91
325.922
325.947
325.981
326.024
323.729
324.073
324.504
324.089
298.858
295.776
295.085
294.913
294.913
295.092
295.833
299.18
326.662
327.794
327.44
327.074
326.713
326.437
326.229
326.101
326.046
326.023
326.033
326.075
326.144
326.213
324.193
324.21
324.275
323.628
298.971
295.999
295.338
295.171
295.165
295.331
296.045
299.345
327.006
328.414
328.024
327.421
326.965
326.66
326.464
326.334
326.257
326.224
326.238
326.307
326.418
326.519
325.013
324.702
324.261
323.278
299.866
297.196
296.605
296.437
296.406
296.527
297.14
300.154
327.12
328.13
327.69
327.229
326.882
326.656
326.513
326.425
326.379
326.374
326.419
326.531
326.694
326.832
325.795
325.394
324.726
323.609
309.507
308.287
307.856
307.584
307.379
307.274
307.449
308.786
325.225
326.246
326.304
326.265
326.244
326.253
326.282
326.321
326.369
326.434
326.538
326.702
326.911
327.083
326.299
326.01
325.419
324.156
310.172
309.127
308.813
308.647
308.547
308.525
308.692
309.698
324.32
325.408
325.689
325.843
325.977
326.109
326.235
326.35
326.455
326.563
326.696
326.878
327.096
327.277
326.551
326.395
325.984
324.761
310.195
309.176
308.909
308.776
308.7
308.689
308.833
309.765
324.507
325.585
325.875
326.04
326.178
326.309
326.433
326.547
326.652
326.758
326.881
327.042
327.234
327.378
326.686
326.603
326.336
325.25
310.278
309.258
309.015
308.896
308.835
308.834
308.97
309.876
324.733
325.763
326.025
326.179
326.311
326.437
326.558
326.672
326.781
326.889
327.005
327.145
327.308
327.426
326.788
326.732
326.547
325.628
311.696
310.751
310.535
310.434
310.385
310.388
310.51
311.341
325.136
326.069
326.296
326.432
326.549
326.659
326.764
326.865
326.964
327.063
327.164
327.272
327.375
327.235
326.876
326.835
326.708
326.022
315.302
314.564
314.4
314.328
314.295
314.299
314.394
315.043
325.691
326.419
326.597
326.706
326.803
326.894
326.981
327.067
327.154
327.243
327.33
327.405
327.425
326.915
326.941
326.916
326.843
326.439
320.274
319.833
319.738
319.702
319.689
319.695
319.76
320.159
326.314
326.768
326.892
326.973
327.049
327.121
327.19
327.26
327.333
327.41
327.485
327.536
327.479
326.628
326.981
326.973
326.947
326.794
324.716
324.545
324.514
324.511
324.516
324.529
324.569
324.743
326.846
327.052
327.126
327.183
327.238
327.294
327.348
327.404
327.464
327.529
327.593
327.631
327.533
326.506
327.006
327.01
327.016
327.016
327.29
327.288
327.299
327.317
327.335
327.352
327.376
327.411
327.18
327.232
327.275
327.316
327.359
327.404
327.45
327.497
327.546
327.599
327.651
327.676
327.564
326.577
327.026
327.037
327.058
327.114
328.013
328.071
328.101
328.129
328.154
328.174
328.191
328.177
327.327
327.325
327.354
327.388
327.426
327.466
327.507
327.549
327.592
327.636
327.676
327.69
327.571
326.606
327.048
327.062
327.088
327.142
327.749
327.805
327.839
327.87
327.897
327.918
327.934
327.924
327.367
327.37
327.396
327.428
327.463
327.501
327.541
327.581
327.62
327.658
327.691
327.697
327.574
326.624
327.074
327.09
327.116
327.154
327.339
327.376
327.408
327.438
327.465
327.488
327.506
327.515
327.381
327.404
327.431
327.461
327.495
327.532
327.57
327.609
327.646
327.68
327.709
327.712
327.599
326.724
327.101
327.119
327.145
327.174
327.145
327.17
327.2
327.228
327.255
327.279
327.302
327.322
327.405
327.44
327.467
327.496
327.528
327.563
327.6
327.637
327.673
327.706
327.732
327.738
327.65
326.948
327.126
327.145
327.174
327.203
327.148
327.17
327.198
327.226
327.252
327.279
327.305
327.33
327.441
327.478
327.504
327.532
327.562
327.595
327.629
327.665
327.699
327.731
327.758
327.771
327.72
327.268
327.146
327.167
327.199
327.232
327.217
327.24
327.268
327.294
327.321
327.349
327.377
327.404
327.478
327.513
327.537
327.563
327.591
327.622
327.654
327.687
327.721
327.752
327.781
327.8
327.787
327.586
327.161
327.185
327.219
327.257
327.271
327.295
327.323
327.349
327.376
327.405
327.435
327.462
327.509
327.543
327.566
327.589
327.615
327.643
327.674
327.705
327.737
327.768
327.798
327.823
327.839
327.815
327.174
327.2
327.237
327.276
327.299
327.322
327.35
327.376
327.404
327.433
327.464
327.492
327.533
327.568
327.59
327.61
327.634
327.661
327.689
327.719
327.75
327.78
327.81
327.839
327.87
327.929
327.186
327.213
327.252
327.292
327.312
327.335
327.362
327.39
327.418
327.447
327.478
327.507
327.552
327.588
327.611
327.63
327.652
327.676
327.703
327.731
327.76
327.79
327.819
327.85
327.886
327.96
327.196
327.226
327.265
327.305
327.322
327.345
327.373
327.402
327.43
327.459
327.49
327.52
327.568
327.606
327.629
327.649
327.669
327.691
327.716
327.743
327.77
327.798
327.828
327.858
327.894
327.955
327.205
327.236
327.275
327.314
327.332
327.355
327.384
327.414
327.443
327.472
327.502
327.532
327.581
327.619
327.644
327.664
327.684
327.705
327.728
327.753
327.779
327.806
327.835
327.865
327.899
327.947
327.212
327.243
327.281
327.319
327.339
327.363
327.393
327.424
327.454
327.483
327.513
327.543
327.589
327.627
327.654
327.675
327.696
327.716
327.737
327.761
327.786
327.812
327.84
327.87
327.902
327.944
327.214
327.245
327.283
327.32
327.343
327.369
327.399
327.43
327.461
327.491
327.521
327.55
327.593
327.63
327.658
327.682
327.703
327.723
327.744
327.766
327.79
327.816
327.843
327.872
327.903
327.944
327.215
327.245
327.282
327.318
327.344
327.372
327.403
327.435
327.466
327.496
327.526
327.556
327.595
327.63
327.659
327.685
327.707
327.728
327.749
327.771
327.794
327.82
327.846
327.874
327.904
327.945
327.217
327.246
327.282
327.318
327.347
327.377
327.409
327.441
327.472
327.503
327.533
327.562
327.598
327.632
327.661
327.688
327.713
327.735
327.756
327.778
327.802
327.826
327.852
327.879
327.908
327.948
327.228
327.259
327.295
327.33
327.362
327.393
327.426
327.459
327.49
327.521
327.552
327.581
327.614
327.646
327.675
327.703
327.729
327.753
327.776
327.799
327.822
327.847
327.872
327.898
327.925
327.963
)
;

boundaryField
{
    concrete_to_air
    {
        type            compressible::turbulentTemperatureRadCoupledMixed;
        refValue        nonuniform List<scalar> 
898
(
313.184
313.229
313.257
313.267
313.292
313.314
313.084
312.787
312.466
312.192
312.153
312.128
312.11
312.099
312.093
312.092
312.097
312.107
312.121
312.139
312.162
312.189
312.218
312.25
312.284
312.321
313.137
313.138
313.105
313.049
313.052
313.08
312.926
312.785
312.646
312.515
312.581
312.637
312.673
312.687
312.68
312.655
312.621
312.585
312.553
312.53
312.516
312.512
312.516
312.528
312.549
312.58
313.002
312.938
312.835
312.742
312.767
312.817
312.644
312.491
312.362
312.259
312.397
312.524
312.626
312.709
312.772
312.812
312.827
312.824
312.81
312.795
312.782
312.774
312.773
312.786
312.815
312.869
312.743
312.632
312.511
312.471
312.58
312.715
312.505
312.316
312.174
312.09
312.442
312.757
313.005
313.145
313.192
313.193
313.166
313.127
313.087
313.056
313.038
313.04
313.066
313.127
313.206
313.248
312.388
312.308
312.258
312.345
313.604
313.409
313.281
313.222
313.269
313.282
313.29
313.316
313.374
313.393
313.191
312.854
312.665
312.556
312.047
312.057
312.128
312.358
313.273
313.024
312.907
312.868
312.861
312.859
312.811
312.718
312.59
312.454
312.353
312.264
312.221
312.189
311.785
311.882
312.05
312.42
313.101
312.758
312.578
312.467
312.385
312.318
312.258
312.204
312.152
312.097
312.047
312.016
312
311.989
311.569
311.71
311.94
312.415
313.026
312.636
312.432
312.292
312.186
312.104
312.038
311.987
311.948
311.918
311.902
311.898
311.899
311.904
311.364
311.52
311.766
312.277
313.006
312.586
312.359
312.226
312.119
312.034
311.965
311.919
311.889
311.877
311.877
311.883
311.895
311.911
311.332
311.474
311.688
312.128
313.094
312.659
312.41
312.287
312.169
312.076
312.002
311.956
311.939
311.933
311.938
311.951
311.972
311.998
311.488
311.552
311.674
311.988
313.325
312.986
312.657
312.429
312.267
312.163
312.1
312.065
312.049
312.048
312.06
312.082
312.114
312.153
311.757
311.74
311.75
311.928
313.234
312.789
312.509
312.328
312.214
312.154
312.129
312.126
312.138
312.162
312.195
312.238
312.291
312.349
312.037
311.988
311.928
311.962
311.772
311.546
311.317
311.095
310.89
310.709
310.567
310.513
311.016
311.322
311.533
311.692
311.819
311.926
312.019
312.102
312.179
312.254
312.329
312.407
312.49
312.573
312.272
312.247
312.184
312.136
311.941
311.765
311.607
311.466
311.342
311.233
311.142
311.076
311.282
311.469
311.633
311.778
311.91
312.031
312.143
312.249
312.351
312.45
312.548
312.647
312.747
312.837
312.469
312.478
312.45
312.398
312.192
312.015
311.861
311.725
311.605
311.499
311.408
311.339
311.505
311.669
311.824
311.969
312.106
312.236
312.36
312.479
312.594
312.705
312.814
312.921
313.019
313.079
312.667
312.694
312.699
312.677
312.476
312.296
312.138
311.999
311.876
311.768
311.674
311.6
311.746
311.895
312.041
312.182
312.32
312.453
312.583
312.709
312.83
312.949
313.064
313.171
313.252
313.235
312.872
312.905
312.927
312.932
312.759
312.598
312.454
312.326
312.213
312.114
312.028
311.962
312.093
312.231
312.367
312.502
312.634
312.763
312.888
313.01
313.127
313.24
313.346
313.431
313.464
313.296
313.046
313.083
313.117
313.14
313.021
312.906
312.803
312.711
312.631
312.563
312.507
312.467
312.579
312.697
312.816
312.934
313.049
313.162
313.272
313.378
313.479
313.575
313.664
313.725
313.723
313.49
313.152
313.198
313.242
313.28
313.233
313.184
313.141
313.104
313.075
313.054
313.043
313.044
313.132
313.224
313.317
313.409
313.499
313.588
313.673
313.755
313.833
313.907
313.975
314.015
313.987
313.713
313.193
313.246
313.298
313.348
313.365
313.38
313.394
313.411
313.432
313.457
313.486
313.523
313.589
313.658
313.726
313.793
313.86
313.924
313.987
314.047
314.105
314.16
314.211
314.24
314.204
313.926
313.195
313.253
313.31
313.366
313.422
313.475
313.527
313.579
313.631
313.684
313.738
313.794
313.847
313.901
313.953
314.005
314.056
314.105
314.153
314.2
314.246
314.29
314.332
314.372
314.386
314.308
313.189
313.248
313.306
313.364
313.432
313.498
313.563
313.627
313.69
313.752
313.813
313.874
313.922
313.969
314.016
314.062
314.106
314.15
314.193
314.236
314.277
314.317
314.357
314.395
314.426
314.422
313.187
313.246
313.304
313.361
313.426
313.49
313.553
313.615
313.676
313.736
313.795
313.852
313.9
313.948
313.994
314.039
314.084
314.128
314.171
314.212
314.254
314.294
314.333
314.372
314.407
314.43
313.191
313.249
313.306
313.363
313.422
313.48
313.537
313.594
313.65
313.705
313.76
313.812
313.862
313.911
313.959
314.006
314.051
314.096
314.14
314.184
314.226
314.267
314.308
314.347
314.384
314.412
313.197
313.255
313.312
313.368
313.423
313.478
313.532
313.585
313.638
313.691
313.742
313.792
313.843
313.892
313.941
313.989
314.035
314.081
314.126
314.17
314.213
314.255
314.296
314.336
314.374
314.405
313.203
313.26
313.317
313.374
313.428
313.482
313.535
313.588
313.64
313.691
313.742
313.792
313.842
313.892
313.94
313.988
314.035
314.081
314.126
314.17
314.214
314.256
314.298
314.339
314.378
314.412
313.208
313.265
313.322
313.378
313.433
313.488
313.541
313.594
313.646
313.698
313.748
313.799
313.849
313.898
313.946
313.994
314.041
314.087
314.132
314.176
314.22
314.263
314.304
314.346
314.385
314.423
313.211
313.269
313.326
313.382
313.438
313.492
313.546
313.599
313.652
313.703
313.754
313.805
313.855
313.904
313.952
314
314.046
314.092
314.137
314.182
314.225
314.268
314.311
314.352
314.393
314.432
313.214
313.272
313.329
313.386
313.441
313.496
313.55
313.603
313.655
313.707
313.758
313.809
313.858
313.908
313.956
314.003
314.05
314.096
314.141
314.186
314.229
314.272
314.315
314.356
314.397
314.438
313.217
313.274
313.332
313.388
313.444
313.498
313.552
313.605
313.658
313.709
313.76
313.811
313.861
313.91
313.958
314.006
314.053
314.099
314.144
314.188
314.232
314.275
314.318
314.36
314.401
314.442
313.218
313.276
313.333
313.39
313.445
313.5
313.554
313.607
313.659
313.711
313.762
313.812
313.862
313.912
313.96
314.008
314.055
314.101
314.146
314.191
314.235
314.278
314.321
314.363
314.404
314.446
313.22
313.278
313.335
313.391
313.447
313.501
313.555
313.608
313.661
313.713
313.764
313.814
313.864
313.913
313.962
314.01
314.057
314.103
314.148
314.193
314.237
314.281
314.324
314.366
314.408
314.449
313.221
313.279
313.336
313.392
313.448
313.503
313.556
313.61
313.662
313.714
313.765
313.815
313.865
313.915
313.963
314.011
314.058
314.105
314.15
314.195
314.24
314.283
314.326
314.369
314.411
314.452
313.222
313.28
313.337
313.393
313.449
313.503
313.557
313.61
313.663
313.715
313.766
313.816
313.866
313.916
313.964
314.012
314.06
314.106
314.152
314.197
314.241
314.285
314.328
314.371
314.413
314.455
313.222
313.28
313.337
313.393
313.449
313.504
313.557
313.611
313.663
313.715
313.766
313.817
313.867
313.916
313.965
314.013
314.06
314.107
314.153
314.198
314.243
314.287
314.33
314.373
314.416
314.458
313.222
313.28
313.337
313.394
313.449
313.504
313.558
313.611
313.663
313.715
313.767
313.817
313.867
313.917
313.965
314.013
314.061
314.108
314.154
314.199
314.244
314.288
314.332
314.375
314.418
314.46
313.223
313.281
313.338
313.394
313.45
313.504
313.558
313.612
313.664
313.716
313.767
313.818
313.868
313.918
313.966
314.015
314.062
314.109
314.155
314.201
314.246
314.29
314.334
314.378
314.42
314.463
)
;
        refGradient     nonuniform List<scalar> 
898
(
60.8057
60.8568
61.4112
62.0831
62.9267
66.3123
-2.93073
0.250007
0.762906
-1.02426
77.1019
75.6718
75.4935
75.6222
75.1819
74.622
74.0038
73.3686
72.7349
72.131
71.5624
71.0057
70.4341
69.84
69.2326
68.6088
60.9246
61.2414
62.557
64.2645
65.9154
69.3652
-1.4783
1.35425
1.71149
-0.355119
72.1496
69.6061
68.5795
68.4207
68.2244
68.2524
68.3851
68.5377
68.6516
68.7123
68.7086
68.61
68.4014
68.0948
67.7114
67.2469
61.5493
62.3667
64.7405
67.5625
71.1494
74.4091
-3.14374
-0.846425
-0.479807
-2.1977
74.8517
71.617
68.1043
67.0432
66.3777
66.112
66.0386
66.1002
66.2916
66.5478
66.8042
66.9713
67.0395
67.0248
66.8247
66.2512
63.4678
64.8452
67.7839
70.7881
82.8328
85.3848
13.5476
14.7503
14.9888
13.9071
81.0442
76.5628
63.1604
61.7978
62.444
63.3442
64.2405
64.1684
64.4096
65.4124
66.9314
67.663
67.0093
64.899
62.7356
61.6723
66.632
67.6538
69.4698
72.8415
59.756
57.6082
59.8108
61.5721
63.1029
63.2827
63.2113
63.0482
62.9305
62.7425
62.3381
61.7928
61.6425
61.8213
70.8466
70.4945
70.2609
72.5545
62.4564
58.8863
60.1952
61.3602
62.1372
62.549
62.7028
62.7613
62.8505
62.9976
63.1204
63.1614
63.1994
63.3551
73.4559
71.5574
69.7446
71.0735
62.4479
58.7981
59.8991
61.0534
62.0506
62.8421
63.3611
63.7719
64.1635
64.4934
64.7065
64.7894
64.8137
64.8221
74.1717
71.8037
69.2957
69.9607
62.2389
58.7289
59.8835
61.3101
62.6376
63.7096
64.52
65.0761
65.4422
65.6466
65.7035
65.6934
65.6416
65.5237
74.7444
72.4263
69.8135
70.2699
61.8853
58.3548
59.6727
61.2167
62.7094
63.9287
64.8328
65.374
65.6669
65.7421
65.7393
65.7242
65.6644
65.4857
74.78
73.0155
70.9583
71.7973
61.015
56.9941
58.5556
60.1657
61.8351
63.1843
64.1947
64.745
64.9603
65.0476
65.058
65.0521
65.0166
64.8225
72.7333
72.5537
72.0606
73.7684
59.4953
54.1566
55.812
58.5436
60.669
62.1532
63.1026
63.673
63.9732
64.0847
64.0661
64.0052
63.9374
63.7156
69.0403
70.4792
72.4353
75.5848
58.9811
55.6492
57.4661
59.4777
61.1119
62.2267
62.9231
63.3067
63.4703
63.4487
63.2528
62.9777
62.7302
62.4022
65.6498
67.4392
70.2898
73.8683
-2.04635
0.670219
1.58887
2.30869
2.97196
3.49033
3.48183
0.508995
66.596
63.8677
63.8162
64.0142
64.1358
64.1342
64.0199
63.8271
63.5793
63.2323
62.7138
62.0904
61.5504
61.0691
63.2892
64.5077
66.9003
71.3304
-2.75841
-0.245049
0.313675
0.63608
0.919825
1.15426
1.09973
-1.24784
70.4644
67.2399
66.2976
65.6912
65.1608
64.6578
64.1588
63.672
63.2046
62.6836
61.981
61.1305
60.4039
59.8742
62.1083
62.7264
64.3211
68.7078
-4.22057
-1.54038
-0.988525
-0.732712
-0.50023
-0.294001
-0.398101
-2.83748
69.6586
66.2623
65.2331
64.6134
64.1035
63.6388
63.1869
62.7481
62.3279
61.8535
61.179
60.3067
59.5645
59.2101
61.5467
61.8139
62.7858
66.6371
-5.47184
-2.69694
-2.14923
-1.95035
-1.76349
-1.58543
-1.74035
-4.24444
68.8122
65.5144
64.5756
64.0429
63.5916
63.1527
62.7069
62.2628
61.8328
61.3668
60.7324
59.893
59.1459
58.9273
61.236
61.3568
61.9804
65.1654
-0.71761
1.91338
2.45775
2.65085
2.8181
2.96014
2.76778
0.38528
67.2771
64.2742
63.4571
63.0241
62.6586
62.2845
61.8871
61.4782
61.0744
60.6565
60.1399
59.4683
58.8729
59.5941
61.0253
61.078
61.4732
63.8075
14.0196
16.156
16.6532
16.8554
16.9989
17.0775
16.8607
14.8988
65.2639
62.9139
62.2609
61.9116
61.6134
61.2972
60.9502
60.5834
60.2127
59.8437
59.4525
59.0093
58.6929
60.5146
60.8896
60.8959
61.0991
62.4558
34.784
36.1282
36.4795
36.6345
36.7171
36.7173
36.5068
35.2107
63.0365
61.557
61.0821
60.7958
60.5427
60.2742
59.9793
59.6654
59.3434
59.0251
58.727
58.495
58.5594
61.479
60.8053
60.7732
60.8186
61.3192
52.8581
53.3905
53.5452
53.6051
53.6049
53.5352
53.3534
52.7316
61.1032
60.4301
60.1248
59.8988
59.6871
59.4632
59.2182
58.9562
58.6853
58.4135
58.1614
58.0251
58.3655
61.993
60.7371
60.6762
60.6173
60.5905
62.6329
62.621
62.62
62.5949
62.5298
62.417
62.2641
62.0846
59.8532
59.6846
59.4932
59.3102
59.1289
58.9388
58.7325
58.5109
58.2824
58.0567
57.8501
57.744
58.1375
61.5672
60.657
60.5773
60.4671
60.2488
64.6127
64.394
64.3165
64.2447
64.147
64.0172
63.8791
63.8533
59.268
59.2794
59.1401
58.9824
58.8221
58.6572
58.4813
58.2905
58.0896
57.892
57.7218
57.6543
58.0425
61.3336
60.5591
60.4687
60.3429
60.1327
62.7526
62.5408
62.4463
62.3595
62.2542
62.1254
61.9924
61.944
59.0922
59.088
58.9575
58.8091
58.6584
58.507
58.3502
58.182
58.0028
57.825
57.6774
57.6409
58.054
61.299
60.4488
60.3526
60.226
60.0779
60.6025
60.4536
60.3616
60.2691
60.163
60.0404
59.9089
59.7949
59.0309
58.9587
58.8201
58.6737
58.5276
58.3831
58.2382
58.0873
57.9274
57.767
57.6315
57.595
57.9696
60.9644
60.3304
60.2307
60.1062
59.9994
59.5495
59.4375
59.3438
59.2427
59.1336
59.0162
58.8879
58.7348
58.9391
58.8222
58.675
58.5287
58.3855
58.2449
58.107
57.9681
57.8242
57.6789
57.5524
57.5066
57.7961
60.2046
60.2046
60.1026
59.9793
59.8838
59.3626
59.2515
59.1476
59.0343
58.9186
58.8027
58.6784
58.5186
58.7901
58.661
58.508
58.3607
58.2197
58.082
57.9481
57.8168
57.6844
57.5514
57.4305
57.366
57.5309
59.0843
60.0744
59.9716
59.8492
59.7506
59.4319
59.3047
59.1876
59.0626
58.9394
58.8223
58.7016
58.5501
58.6179
58.4935
58.3372
58.1875
58.0471
57.9116
57.7805
57.6537
57.529
57.4053
57.2888
57.205
57.2439
57.9402
59.9477
59.8457
59.7243
59.6208
59.4331
59.2884
59.16
59.0264
58.8972
58.777
58.6578
58.5153
58.4521
58.3356
58.1774
58.0238
57.8817
57.747
57.6178
57.4936
57.3733
57.2553
57.1418
57.0435
56.9886
57.0781
59.8332
59.7333
59.6128
59.5052
59.3381
59.1804
59.0441
58.9057
58.7724
58.6482
58.5282
58.3908
58.3068
58.1973
58.0392
57.8818
57.7363
57.6006
57.4721
57.3493
57.2309
57.116
57.0049
56.8996
56.7967
56.6042
59.7339
59.6363
59.5155
59.4032
59.2134
59.047
58.9058
58.7654
58.6294
58.5012
58.3785
58.2427
58.1796
58.0759
57.9204
57.7611
57.6116
57.4728
57.3433
57.2204
57.1023
56.9886
56.8791
56.7732
56.6577
56.4167
59.6435
59.5474
59.4241
59.3053
59.0973
58.9254
58.7814
58.6405
58.5027
58.3709
58.2447
58.1086
58.0599
57.9608
57.8106
57.6522
57.4998
57.357
57.2244
57.1
56.9813
56.8677
56.7596
56.6557
56.5444
56.3488
59.5505
59.454
59.3261
59.199
58.9875
58.8129
58.6673
58.5262
58.3874
58.2526
58.1229
57.9857
57.935
57.8381
57.6948
57.5405
57.3873
57.2408
57.1041
56.9767
56.8565
56.7425
56.6349
56.5326
56.4273
56.2776
59.4466
59.3474
59.2131
59.077
58.8709
58.6963
58.5497
58.4083
58.2686
58.1318
57.999
57.8607
57.7979
57.7003
57.5639
57.4159
57.2648
57.1163
56.9757
56.8448
56.7226
56.6078
56.4996
56.397
56.2936
56.1624
59.3339
59.2297
59.0881
58.9433
58.7459
58.5735
58.426
58.284
58.1436
58.0054
57.8704
57.7314
57.6531
57.5516
57.4208
57.2798
57.1334
56.9855
56.8424
56.7085
56.5841
56.4679
56.3584
56.2535
56.1479
56.0156
59.2237
59.1128
58.964
58.8118
58.6238
58.455
58.3067
58.1636
58.0224
57.8834
57.747
57.6079
57.514
57.4064
57.2792
57.1446