/*--------------------------------*- C++ -*----------------------------------*\
| =========                 |                                                 |
| \\      /  F ield         | OpenFOAM: The Open Source CFD Toolbox           |
|  \\    /   O peration     | Version:  v2012                                 |
|   \\  /    A nd           | Website:  www.openfoam.com                      |
|    \\/     M anipulation  |                                                 |
\*---------------------------------------------------------------------------*/
FoamFile
{
    version     2.0;
    format      ascii;
    class       volScalarField;
    location    "600/concrete";
    object      T;
}
// * * * * * * * * * * * * * * * * * * * * * * * * * * * * * * * * * * * * * //

dimensions      [0 0 0 1 0 0 0];


internalField   nonuniform List<scalar> 
1924
(
326.081
326.154
326.219
326.175
326.044
324.812
312.07
310.778
310.669
311.619
322.884
323.727
323.64
323.528
323.41
323.358
323.357
323.392
323.456
323.544
323.65
323.768
323.89
324.011
324.13
324.256
326.008
326.017
325.996
325.853
325.74
324.553
312.099
310.843
310.796
311.927
324.165
325.258
325.172
325.004
324.782
324.607
324.466
324.357
324.28
324.239
324.231
324.249
324.288
324.341
324.407
324.493
325.794
325.661
325.467
325.247
325.299
324.178
311.585
310.3
310.276
311.525
324.351
325.601
325.441
325.321
325.159
325.045
324.951
324.868
324.795
324.737
324.695
324.671
324.664
324.674
324.703
324.761
325.326
325.03
324.634
324.292
323.831
322.708
311.998
310.846
310.831
312.038
323.779
325.456
326.062
326.062
325.766
325.471
325.238
325.074
324.966
324.897
324.855
324.833
324.829
324.845
324.882
324.952
324.562
324.257
323.779
322.276
303.444
300.437
298.595
298.091
298.099
298.649
300.676
304.061
325.178
326.346
325.991
325.626
325.316
325.088
324.964
324.919
324.927
324.964
325.022
325.1
325.202
325.338
323.732
323.706
323.597
322.055
300.659
297.185
296.196
295.908
295.916
296.235
297.319
301.133
324.587
326.332
326.163
325.852
325.584
325.4
325.293
325.261
325.302
325.384
325.478
325.57
325.663
325.764
323.158
323.431
323.613
322.21
300.122
296.493
295.601
295.364
295.371
295.633
296.604
300.541
324.433
326.296
326.204
325.925
325.673
325.486
325.366
325.309
325.305
325.334
325.382
325.439
325.493
325.55
322.957
323.34
323.648
322.355
300.007
296.326
295.443
295.216
295.223
295.473
296.431
300.404
324.398
326.279
326.189
325.873
325.578
325.351
325.196
325.107
325.071
325.07
325.096
325.132
325.169
325.217
322.83
323.223
323.533
322.266
299.974
296.301
295.424
295.201
295.207
295.454
296.41
300.396
324.453
326.366
326.256
325.95
325.629
325.364
325.17
325.051
324.989
324.969
324.972
324.987
325.01
325.05
322.842
323.143
323.329
321.98
299.987
296.372
295.514
295.296
295.302
295.543
296.49
300.475
324.644
326.67
326.546
326.225
325.858
325.547
325.314
325.169
325.088
325.044
325.026
325.025
325.037
325.072
323.275
323.286
323.176
321.666
300.19
296.712
295.898
295.692
295.693
295.918
296.825
300.736
324.949
327.16
327.117
326.518
326.067
325.731
325.5
325.351
325.259
325.207
325.183
325.181
325.195
325.232
324.022
323.735
323.214
321.538
301.356
298.263
297.554
297.362
297.344
297.516
298.287
301.812
325.076
326.839
326.619
326.227
325.891
325.652
325.495
325.402
325.353
325.335
325.339
325.36
325.394
325.446
324.73
324.361
323.679
322.182
309.769
308.182
307.711
307.473
307.326
307.297
307.603
309.368
323.687
325.174
325.34
325.314
325.277
325.263
325.274
325.303
325.345
325.397
325.454
325.516
325.581
325.651
325.213
324.943
324.333
322.765
310.655
309.289
308.94
308.789
308.712
308.72
308.962
310.325
322.976
324.418
324.762
324.914
325.023
325.124
325.224
325.322
325.418
325.51
325.6
325.685
325.763
325.831
325.463
325.308
324.855
323.317
310.737
309.383
309.072
308.949
308.888
308.896
309.108
310.397
323.115
324.538
324.894
325.062
325.181
325.286
325.386
325.484
325.58
325.673
325.763
325.847
325.915
325.929
325.589
325.5
325.173
323.75
310.865
309.507
309.215
309.106
309.055
309.065
309.266
310.527
323.315
324.689
325.019
325.177
325.291
325.393
325.492
325.59
325.687
325.783
325.876
325.958
326.012
325.981
325.665
325.601
325.356
324.122
312.167
310.916
310.654
310.559
310.518
310.529
310.711
311.866
323.707
324.951
325.238
325.375
325.476
325.565
325.652
325.74
325.828
325.917
326.003
326.073
326.077
325.729
325.714
325.665
325.491
324.56
315.36
314.387
314.182
314.11
314.081
314.095
314.241
315.143
324.286
325.252
325.477
325.587
325.672
325.749
325.824
325.899
325.976
326.054
326.129
326.178
326.106
325.301
325.737
325.705
325.603
325.05
319.727
319.143
319.018
318.977
318.965
318.982
319.084
319.64
324.958
325.555
325.708
325.791
325.86
325.924
325.988
326.051
326.116
326.182
326.243
326.269
326.127
324.931
325.739
325.723
325.684
325.47
323.634
323.405
323.357
323.347
323.353
323.374
323.435
323.675
325.539
325.799
325.887
325.946
326
326.053
326.105
326.158
326.213
326.268
326.317
326.326
326.142
324.765
325.729
325.725
325.728
325.724
325.917
325.91
325.913
325.925
325.943
325.967
326
326.046
325.897
325.947
325.993
326.036
326.079
326.124
326.169
326.215
326.261
326.306
326.344
326.341
326.141
324.784
325.716
325.72
325.742
325.814
326.571
326.645
326.671
326.694
326.718
326.743
326.765
326.742
326.035
326.011
326.038
326.072
326.109
326.149
326.189
326.23
326.271
326.31
326.339
326.326
326.121
324.776
325.705
325.713
325.74
325.807
326.34
326.409
326.44
326.466
326.491
326.516
326.537
326.52
326.04
326.023
326.047
326.077
326.111
326.148
326.186
326.224
326.261
326.296
326.32
326.301
326.096
324.776
325.698
325.707
325.733
325.776
325.956
325.999
326.027
326.053
326.078
326.103
326.126
326.136
326.01
326.02
326.046
326.075
326.107
326.142
326.178
326.214
326.25
326.282
326.303
326.285
326.096
324.879
325.693
325.703
325.728
325.755
325.751
325.776
325.802
325.827
325.852
325.878
325.904
325.931
325.99
326.018
326.046
326.075
326.106
326.139
326.173
326.207
326.241
326.272
326.293
326.281
326.131
325.151
325.69
325.701
325.726
325.751
325.719
325.741
325.766
325.792
325.817
325.844
325.872
325.903
325.99
326.023
326.051
326.08
326.109
326.14
326.172
326.205
326.237
326.267
326.289
326.288
326.193
325.555
325.687
325.699
325.726
325.753
325.754
325.778
325.804
325.829
325.856
325.883
325.911
325.941
325.998
326.029
326.057
326.085
326.113
326.142
326.173
326.203
326.234
326.263
326.287
326.298
326.259
325.964
325.686
325.699
325.727
325.757
325.783
325.81
325.836
325.863
325.89
325.918
325.946
325.974
326.007
326.035
326.062
326.09
326.117
326.145
326.174
326.203
326.232
326.261
326.286
326.306
326.309
326.258
325.684
325.699
325.728
325.76
325.793
325.821
325.848
325.876
325.903
325.931
325.959
325.987
326.013
326.041
326.067
326.094
326.12
326.147
326.175
326.203
326.231
326.258
326.284
326.309
326.335
326.398
325.684
325.699
325.729
325.761
325.793
325.821
325.85
325.877
325.905
325.933
325.961
325.989
326.017
326.045
326.071
326.097
326.123
326.15
326.176
326.203
326.23
326.256
326.282
326.309
326.342
326.427
325.684
325.7
325.73
325.762
325.792
325.821
325.85
325.878
325.906
325.934
325.962
325.99
326.02
326.049
326.075
326.101
326.126
326.152
326.178
326.203
326.229
326.255
326.281
326.307
326.339
326.408
325.684
325.701
325.731
325.764
325.793
325.822
325.851
325.88
325.908
325.937
325.965
325.993
326.024
326.052
326.078
326.104
326.129
326.154
326.179
326.204
326.229
326.254
326.28
326.306
326.336
326.386
325.685
325.702
325.733
325.765
325.795
325.824
325.854
325.883
325.912
325.94
325.969
325.997
326.027
326.055
326.081
326.107
326.132
326.157
326.181
326.206
326.23
326.255
326.28
326.305
326.333
326.376
325.686
325.703
325.734
325.766
325.797
325.827
325.857
325.887
325.916
325.944
325.973
326.001
326.03
326.058
326.084
326.11
326.135
326.16
326.184
326.208
326.232
326.256
326.281
326.306
326.333
326.375
325.688
325.705
325.736
325.768
325.799
325.83
325.861
325.891
325.92
325.949
325.977
326.005
326.033
326.061
326.088
326.114
326.139
326.163
326.187
326.211
326.235
326.259
326.283
326.308
326.335
326.378
325.692
325.709
325.741
325.773
325.805
325.836
325.867
325.897
325.927
325.956
325.984
326.012
326.04
326.068
326.094
326.12
326.145
326.17
326.194
326.217
326.241
326.265
326.289
326.313
326.34
326.383
325.709
325.73
325.762
325.795
325.827
325.859
325.89
325.92
325.95
325.979
326.007
326.035
326.063
326.09
326.117
326.143
326.168
326.193
326.217
326.241
326.265
326.289
326.312
326.336
326.362
326.401
327.648
327.737
327.819
327.789
327.747
326.887
312.204
311.261
311.16
311.79
324.804
325.276
325.078
324.931
324.789
324.728
324.726
324.764
324.834
324.931
325.047
325.176
325.309
325.44
325.568
325.697
327.586
327.611
327.603
327.462
327.448
326.634
312.305
311.392
311.347
312.143
326.265
326.996
326.794
326.589
326.334
326.138
325.98
325.854
325.765
325.716
325.703
325.719
325.758
325.812
325.879
325.963
327.369
327.24
327.044
326.837
327.085
326.355
311.767
310.799
310.774
311.692
326.539
327.408
327.034
326.863
326.682
326.569
326.478
326.394
326.319
326.256
326.209
326.179
326.168
326.175
326.201
326.251
326.877
326.569
326.163
325.949
326.197
325.521
312.971
312.052
312.031
312.979
326.762
328.053
327.899
327.728
327.361
327.029
326.776
326.6
326.485
326.411
326.364
326.338
326.331
326.344
326.378
326.44
326.053
325.742
325.31
324.312
302.101
299.445
297.822
297.391
297.398
297.867
299.654
302.646
327.593
328.126
327.597
327.178
326.835
326.588
326.456
326.408
326.419
326.46
326.523
326.606
326.715
326.853
325.151
325.157
325.189
324.328
299.626
296.561
295.715
295.47
295.477
295.748
296.676
300.04
327.116
328.145
327.797
327.432
327.14
326.944
326.831
326.798
326.847
326.941
327.047
327.148
327.247
327.347
324.538
324.874
325.239
324.587
299.168
295.969
295.207
295.005
295.011
295.234
296.064
299.533
327.01
328.118
327.841
327.509
327.235
327.037
326.911
326.851
326.847
326.879
326.93
326.992
327.048
327.1
324.345
324.791
325.294
324.782
299.072
295.827
295.073
294.88
294.885
295.098
295.916
299.417
326.986
328.098
327.819
327.441
327.118
326.874
326.709
326.615
326.578
326.578
326.608
326.647
326.685
326.727
324.213
324.666
325.167
324.686
299.043
295.806
295.057
294.867
294.872
295.082
295.898
299.41
327.045
328.189
327.885
327.522
327.172
326.887
326.681
326.555
326.489
326.468
326.472
326.488
326.511
326.545
324.217
324.571
324.937
324.35
299.052
295.866
295.133
294.948
294.953
295.158
295.967
299.478
327.25
328.525
328.199
327.829
327.429
327.093
326.841
326.687
326.601
326.554
326.534
326.531
326.542
326.57
324.687
324.717
324.751
323.955
299.224
296.157
295.461
295.286
295.287
295.478
296.253
299.703
327.579
329.103
328.89
328.168
327.67
327.303
327.054
326.893
326.793
326.735
326.708
326.703
326.715
326.745
325.507
325.204
324.754
323.691
300.258
297.527
296.921
296.757
296.741
296.887
297.544
300.659
327.711
328.758
328.326
327.859
327.483
327.221
327.05
326.948
326.894
326.873
326.876
326.897
326.931
326.979
326.275
325.883
325.225
324.123
310.155
308.98
308.589
308.354
308.187
308.112
308.297
309.601
325.783
326.815
326.877
326.829
326.791
326.781
326.796
326.83
326.878
326.934
326.996
327.063
327.131
327.2
326.787
326.51
325.935
324.691
310.833
309.831
309.557
309.42
309.34
309.325
309.479
310.449
324.904
325.977
326.252
326.399
326.518
326.63
326.741
326.85
326.954
327.055
327.152
327.243
327.328
327.397
327.039
326.893
326.496
325.291
310.826
309.834
309.597
309.486
309.422
309.409
309.539
310.452
325.074
326.14
326.428
326.587
326.709
326.82
326.927
327.031
327.133
327.233
327.329
327.419
327.495
327.518
327.159
327.086
326.829
325.754
310.882
309.88
309.66
309.564
309.51
309.501
309.623
310.519
325.275
326.296
326.557
326.705
326.822
326.929
327.034
327.139
327.243
327.346
327.446
327.537
327.604
327.585
327.229
327.184
327.006
326.099
312.267
311.339
311.141
311.057
311.013
311.008
311.12
311.943
325.644
326.566
326.791
326.919
327.021
327.115
327.207
327.3
327.394
327.489
327.582
327.664
327.697
327.416
327.273
327.243
327.123
326.449
315.816
315.093
314.939
314.876
314.845
314.845
314.938
315.582
326.15
326.866
327.041
327.144
327.23
327.311
327.39
327.47
327.552
327.636
327.719
327.784
327.764
327.14
327.293
327.276
327.21
326.816
320.711
320.281
320.188
320.154
320.141
320.15
320.218
320.617
326.716
327.16
327.282
327.361
327.432
327.5
327.566
327.633
327.703
327.774
327.843
327.889
327.817
326.907
327.292
327.288
327.267
327.12
325.076
324.913
324.881
324.875
324.882
324.9
324.946
325.122
327.196
327.393
327.467
327.525
327.581
327.636
327.692
327.748
327.806
327.865
327.923
327.954
327.851
326.819
327.279
327.285
327.295
327.3
327.591
327.594
327.602
327.617
327.636
327.66
327.691
327.731
327.487
327.531
327.575
327.618
327.664
327.711
327.759
327.807
327.856
327.906
327.951
327.97
327.854
326.877
327.264
327.277
327.301
327.36
328.271
328.333
328.359
328.384
328.409
328.436
328.461
328.454
327.598
327.589
327.619
327.655
327.694
327.736
327.779
327.822
327.866
327.908
327.945
327.954
327.832
326.872
327.253
327.269
327.296
327.353
327.973
328.031
328.062
328.089
328.116
328.143
328.167
328.165
327.602
327.599
327.626
327.658
327.695
327.733
327.774
327.814
327.855
327.892
327.923
327.925
327.8
326.859
327.245
327.263
327.291
327.33
327.529
327.568
327.596
327.623
327.65
327.677
327.703
327.719
327.578
327.596
327.624
327.656
327.69
327.726
327.765
327.804
327.842
327.877
327.904
327.904
327.789
326.92
327.24
327.259
327.287
327.316
327.301
327.328
327.354
327.381
327.408
327.435
327.463
327.491
327.565
327.595
327.625
327.656
327.689
327.723
327.759
327.796
327.832
327.866
327.892
327.895
327.805
327.106
327.236
327.257
327.286
327.313
327.272
327.296
327.323
327.35
327.377
327.405
327.434
327.466
327.567
327.6
327.63
327.66
327.692
327.724
327.758
327.793
327.828
327.86
327.887
327.897
327.843
327.391
327.234
327.255
327.286
327.316
327.313
327.34
327.368
327.395
327.423
327.452
327.482
327.512
327.576
327.607
327.636
327.666
327.696
327.727
327.759
327.792
327.825
327.856
327.883
327.901
327.884
327.681
327.232
327.254
327.286
327.319
327.347
327.375
327.404
327.432
327.46
327.49
327.52
327.55
327.584
327.614
327.643
327.671
327.7
327.73
327.761
327.792
327.823
327.853
327.881
327.904
327.916
327.887
327.231
327.254
327.287
327.321
327.357
327.387
327.416
327.445
327.474
327.504
327.534
327.563
327.59
327.619
327.648
327.676
327.704
327.733
327.762
327.791
327.821
327.85
327.878
327.905
327.931
327.985
327.23
327.255
327.288
327.323
327.357
327.387
327.417
327.446
327.476
327.505
327.536
327.565
327.594
327.624
327.652
327.679
327.707
327.735
327.763
327.791
327.82
327.848
327.876
327.903
327.935
328.003
327.231
327.255
327.289
327.324
327.355
327.386
327.417
327.447
327.476
327.506
327.536
327.566
327.598
327.628
327.656
327.683
327.71
327.737
327.765
327.792
327.819
327.847
327.874
327.901
327.932
327.988
327.231
327.256
327.291
327.325
327.356
327.387
327.418
327.449
327.479
327.509
327.539
327.569
327.601
327.631
327.659
327.687
327.713
327.74
327.766
327.793
327.819
327.846
327.873
327.9
327.929
327.972
327.232
327.257
327.292
327.327
327.358
327.39
327.421
327.452
327.483
327.513
327.543
327.573
327.604
327.634
327.663
327.69
327.716
327.743
327.768
327.794
327.82
327.846
327.873
327.899
327.928
327.964
327.233
327.259
327.293
327.328
327.36
327.393
327.424
327.456
327.487
327.517
327.547
327.577
327.607
327.637
327.666
327.693
327.719
327.745
327.771
327.796
327.822
327.848
327.874
327.9
327.928
327.964
327.234
327.26
327.295
327.33
327.363
327.395
327.428
327.459
327.491
327.521
327.551
327.581
327.611
327.64
327.669
327.696
327.723
327.749
327.774
327.799
327.824
327.85
327.876
327.901
327.929
327.966
327.237
327.264
327.298
327.333
327.367
327.4
327.433
327.465
327.496
327.527
327.557
327.586
327.616
327.645
327.674
327.701
327.728
327.754
327.779
327.804
327.83
327.855
327.88
327.906
327.933
327.97
327.248
327.277
327.312
327.348
327.382
327.416
327.449
327.481
327.512
327.543
327.573
327.603
327.632
327.661
327.689
327.717
327.744
327.77
327.796
327.821
327.846
327.871
327.897
327.922
327.948
327.982
)
;

boundaryField
{
    concrete_to_air
    {
        type            compressible::turbulentTemperatureRadCoupledMixed;
        refValue        nonuniform List<scalar> 
898
(
313.313
313.36
313.388
313.396
313.42
313.441
313.208
312.907
312.581
312.302
312.26
312.236
312.219
312.211
312.209
312.212
312.22
312.231
312.245
312.261
312.279
312.299
312.32
312.341
312.364
312.386
313.261
313.263
313.228
313.169
313.171
313.199
313.046
312.905
312.766
312.635
312.702
312.76
312.799
312.818
312.816
312.796
312.764
312.726
312.688
312.655
312.628
312.608
312.596
312.591
312.592
312.597
313.121
313.055
312.949
312.852
312.876
312.925
312.753
312.602
312.474
312.372
312.511
312.64
312.746
312.833
312.901
312.946
312.967
312.968
312.953
312.93
312.904
312.879
312.858
312.844
312.836
312.835
312.853
312.739
312.613
312.572
312.681
312.816
312.607
312.419
312.278
312.195
312.545
312.858
313.094
313.239
313.312
313.336
313.33
313.304
313.268
313.228
313.189
313.153
313.124
313.103
313.092
313.091
312.487
312.405
312.353
312.442
313.991
313.715
313.511
313.4
313.335
313.333
313.347
313.358
313.357
313.356
313.36
313.372
313.389
313.409
312.137
312.149
312.222
312.454
313.621
313.298
313.117
313.022
312.975
312.959
312.958
312.969
312.989
312.996
312.983
312.945
312.934
312.927
311.875
311.977
312.149
312.521
313.436
313.051
312.845
312.717
312.632
312.573
312.533
312.509
312.496
312.488
312.484
312.485
312.492
312.501
311.662
311.81
312.044
312.523
313.333
312.923
312.701
312.546
312.438
312.358
312.301
312.265
312.244
312.236
312.237
312.245
312.257
312.271
311.466
311.631
311.883
312.397
313.327
312.877
312.644
312.511
312.4
312.306
312.235
312.19
312.164
312.154
312.154
312.161
312.173
312.188
311.439
311.589
311.81
312.254
313.431
312.99
312.734
312.614
312.482
312.368
312.279
312.226
312.199
312.186
312.183
312.189
312.202
312.219
311.597
311.667
311.796
312.116
313.669
313.356
313.102
312.769
312.584
312.455
312.371
312.321
312.294
312.283
312.285
312.296
312.316
312.341
311.874
311.858
311.873
312.06
313.654
313.168
312.833
312.621
312.486
312.41
312.373
312.361
312.366
312.382
312.408
312.441
312.481
312.526
312.165
312.115
312.056
312.097
311.916
311.705
311.492
311.29
311.107
310.949
310.825
310.78
311.261
311.56
311.767
311.923
312.048
312.153
312.243
312.324
312.398
312.469
312.539
312.61
312.683
312.755
312.411
312.385
312.322
312.276
312.089
311.922
311.773
311.643
311.529
311.431
311.349
311.29
311.495
311.681
311.845
311.991
312.124
312.247
312.36
312.466
312.567
312.664
312.759
312.853
312.946
313.027
312.612
312.624
312.597
312.546
312.347
312.177
312.029
311.901
311.789
311.691
311.607
311.544
311.712
311.879
312.036
312.184
312.324
312.456
312.581
312.7
312.814
312.924
313.03
313.132
313.224
313.276
312.809
312.841
312.85
312.831
312.636
312.462
312.31
312.178
312.062
311.96
311.872
311.804
311.953
312.105
312.254
312.399
312.54
312.677
312.808
312.935
313.058
313.176
313.287
313.387
313.46
313.432
313.007
313.046
313.074
313.084
312.918
312.764
312.626
312.505
312.399
312.306
312.226
312.165
312.3
312.44
312.579
312.717
312.851
312.982
313.109
313.231
313.348
313.459
313.56
313.639
313.664
313.481
313.172
313.215
313.254
313.284
313.172
313.065
312.967
312.882
312.808
312.746
312.695
312.661
312.776
312.897
313.018
313.138
313.255
313.37
313.48
313.586
313.687
313.783
313.867
313.924
313.915
313.666
313.268
313.319
313.368
313.412
313.371
313.329
313.292
313.261
313.237
313.222
313.215
313.221
313.311
313.406
313.501
313.594
313.686
313.776
313.862
313.945
314.024
314.098
314.164
314.201
314.169
313.881
313.298
313.356
313.413
313.467
313.49
313.51
313.529
313.551
313.576
313.605
313.639
313.678
313.748
313.819
313.889
313.959
314.027
314.094
314.158
314.22
314.28
314.336
314.389
314.417
314.379
314.091
313.29
313.352
313.413
313.473
313.533
313.591
313.647
313.703
313.758
313.815
313.872
313.931
313.988
314.043
314.098
314.152
314.205
314.257
314.308
314.357
314.405
314.451
314.496
314.537
314.552
314.469
313.273
313.336
313.397
313.459
313.531
313.601
313.669
313.736
313.802
313.867
313.932
313.995
314.046
314.096
314.145
314.194
314.241
314.288
314.333
314.378
314.422
314.465
314.507
314.548
314.581
314.578
313.261
313.323
313.384
313.445
313.513
313.58
313.646
313.711
313.775
313.838
313.899
313.959
314.01
314.06
314.109
314.157
314.204
314.25
314.295
314.34
314.384
314.427
314.469
314.51
314.549
314.575
313.254
313.315
313.375
313.435
313.496
313.557
313.618
313.677
313.736
313.794
313.85
313.906
313.958
314.009
314.059
314.108
314.157
314.204
314.25
314.296
314.341
314.384
314.427
314.469
314.509
314.54
313.25
313.31
313.37
313.428
313.486
313.543
313.6
313.656
313.711
313.766
313.819
313.872
313.925
313.976
314.027
314.077
314.126
314.173
314.221
314.267
314.312
314.356
314.4
314.442
314.483
314.517
313.247
313.306
313.365
313.423
313.48
313.536
313.591
313.646
313.7
313.754
313.806
313.858
313.911
313.962
314.013
314.062
314.111
314.159
314.206
314.252
314.298
314.342
314.386
314.429
314.471
314.507
313.243
313.303
313.361
313.419
313.476
313.532
313.587
313.642
313.696
313.749
313.801
313.853
313.905
313.956
314.006
314.055
314.104
314.152
314.198
314.245
314.29
314.335
314.378
314.421
314.463
314.503
313.24
313.299
313.358
313.415
313.472
313.528
313.583
313.638
313.692
313.745
313.798
313.849
313.901
313.951
314.001
314.05
314.098
314.145
314.192
314.238
314.283
314.328
314.372
314.415
314.458
314.499
313.238
313.297
313.355
313.412
313.468
313.524
313.579
313.634
313.687
313.74
313.793
313.845
313.895
313.946
313.995
314.044
314.092
314.139
314.186
314.232
314.277
314.322
314.365
314.409
314.451
314.493
313.236
313.294
313.352
313.409
313.465
313.521
313.576
313.63
313.683
313.736
313.788
313.84
313.89
313.94
313.99
314.038
314.086
314.133
314.18
314.226
314.271
314.315
314.359
314.402
314.445
314.488
313.234
313.292
313.35
313.407
313.463
313.518
313.573
313.626
313.68
313.732
313.784
313.835
313.886
313.936
313.985
314.033
314.081
314.128
314.175
314.22
314.266
314.31
314.354
314.397
314.44
314.482
313.232
313.29
313.348
313.404
313.46
313.515
313.57
313.624
313.677
313.729
313.781
313.832
313.882
313.932
313.981
314.029
314.077
314.124
314.17
314.216
314.261
314.305
314.349
314.392
314.435
314.477
313.231
313.289
313.346
313.403
313.458
313.513
313.568
313.621
313.674
313.726
313.778
313.829
313.879
313.929
313.978
314.026
314.073
314.12
314.167
314.212
314.257
314.302
314.345
314.389
314.431
314.473
313.229
313.288
313.345
313.401
313.457
313.512
313.566
313.619
313.672
313.724
313.775
313.826
313.876
313.926
313.975
314.023
314.07
314.117
314.163
314.209
314.254
314.298
314.342
314.385
314.428
314.47
313.228
313.286
313.343
313.4
313.455
313.51
313.564
313.617
313.67
313.722
313.773
313.824
313.874
313.923
313.972
314.02
314.068
314.115
314.161
314.206
314.251
314.295
314.339
314.382
314.425
314.467
313.228
313.285
313.342
313.399
313.454
313.509
313.563
313.616
313.669
313.721
313.772
313.822
313.872
313.922
313.97
314.018
314.066
314.113
314.159
314.204
314.249
314.293
314.337
314.38
314.423
314.465
313.227
313.285
313.342
313.398
313.454
313.508
313.562
313.615
313.668
313.72
313.771
313.822
313.872
313.921
313.97
314.018
314.065
314.112
314.158
314.203
314.248
314.293
314.336
314.379
314.422
314.464
)
;
        refGradient     nonuniform List<scalar> 
898
(
58.4642
58.8678
59.6425
60.6035
62.253
65.8747
-3.27598
-0.0539663
0.425288
-1.51923
76.2232
74.6687
74.043
73.8661
73.2503
72.7131
72.17
71.5835
70.9705
70.3719
69.7965
69.2358
68.6803
68.127
67.5761
67.0128
58.662
59.4446
61.0297
63.0512
65.5229
69.195
-1.58339
1.27476
1.6154
-0.631258
71.3521
68.3823
66.7389
66.2625
65.8535
65.9282
66.1889
66.4709
66.7004
66.853
66.9138
66.8734
66.7317
66.4993
66.1903
65.7991
59.3356
60.6499
63.2708
66.4102
70.8088
74.2373
-3.23439
-0.90973
-0.518359
-2.28294
74.4473
70.6642
66.3397
64.9687
64.0753
63.8472
63.8815
64.0463
64.2691
64.4962
64.6822
64.7961
64.8214
64.7568
64.6028
64.3469
61.3591
63.2176
66.3575
69.6769
82.5222
85.2188
13.4498
14.6718
14.9254
13.855
80.9331
76.0281
61.6434
60.0142
60.4202
61.4292
62.2951
62.9364
63.3755
63.6701
63.8532
63.9452
63.9534
63.8765
63.709
63.4302
64.7864
66.254
68.2018
71.8443
57.7733
55.8176
58.2969
60.2067
61.7725
62.9237
63.4942
63.6634
63.5798
63.378
63.0843
62.692
62.1785
61.5284
69.2643
69.3046
69.1233
71.5975
60.2508
56.4367
57.7786
59.2549
60.4837
61.2943
61.7349
61.8091
61.5193
61.0427
60.5198
60.0439
59.5778
59.1234
72.0199
70.4676
68.6765
70.0854
60.4579
56.5246
57.5476
58.8373
59.9701
60.7935
61.3091
61.5252
61.4946
61.3243
61.0671
60.7735
60.5225
60.3077
72.6969
70.6585
68.2283
68.9471
60.3559
56.5559
57.6208
59.1396
60.4987
61.5463
62.2597
62.6485
62.7856
62.7545
62.5951
62.4022
62.224
62.0465
73.1627
71.1053
68.6596
69.2218
59.9482
56.0263
57.2426
58.684
60.1591
61.4012
62.3224
62.8808
63.1569
63.2217
63.1762
63.0846
62.9713
62.8268
73.0815
71.4625
69.6304
70.691
58.9287
54.2888
55.6302
57.1091
58.8334
60.3218
61.4689
62.1695
62.5485
62.7422
62.8148
62.8082
62.7467
62.6294
70.8685
70.7626
70.4837
72.5455
57.3209
51.2339
51.9793
55.327
57.5639
59.2103
60.3447
61.0877
61.549
61.807
61.9194
61.9305
61.8696
61.7425
66.9767
68.4799
70.5721
74.046
56.3758
52.6803
54.6302
56.71
58.3752
59.5286
60.285
60.7508
61.0039
61.0992
61.0791
60.9787
60.8224
60.6171
63.3635
65.2643
68.2392
71.9176
-3.09809
-0.276802
0.608792
1.20856
1.71009
2.05008
1.84273
-1.31957
64.1449
61.4328
61.3928
61.5875
61.6786
61.6447
61.5181
61.3279
61.0914
60.8188
60.5196
60.2063
59.8908
59.5834
60.952
62.2641
64.7976
69.3454
-4.1799
-1.57173
-0.957991
-0.649234
-0.418335
-0.271598
-0.459875
-2.94484
68.3436
65.1333
64.1684
63.5257
62.924
62.3382
61.7754
61.2409
60.7341
60.2522
59.7941
59.3661
58.9817
58.6713
59.8081
60.4683
62.1295
66.5813
-5.93938
-3.2174
-2.60603
-2.3272
-2.12224
-1.99184
-2.19525
-4.69202
67.4803
64.1058
63.0853
62.4513
61.883
61.3417
60.8235
60.3265
59.8474
59.3852
58.943
58.5363
58.2026
58.1003
59.3077
59.5981
60.5882
64.4413
-7.35421
-4.56129
-3.95203
-3.69939
-3.52157
-3.41617
-3.64915
-6.16898
66.6167
63.3365
62.409
61.855
61.3417
60.8272
60.3173
59.8173
59.3279
58.85
58.3912
57.9783
57.6819
57.7955
59.0454
59.1852
59.8106
62.9788
-2.64416
-0.00487573
0.581323
0.819226
0.978418
1.06029
0.814613
-1.56957
65.0703
62.0698
61.2558
60.795
60.3725
59.9376
59.4937
59.0484
58.6038
58.162
57.7349
57.3723
57.2438
58.4635
58.8825
58.9515
59.3456
61.6659
12.0735
14.2098
14.7119
14.9219
15.0513
15.0981
14.8624
12.9071
63.0779
60.7171
60.0633
59.6909
59.3514
58.9952
58.6204
58.2345
57.8413
57.4438
57.0593
56.7608
56.8261
59.2518
58.8162
58.8318
59.0332
60.3801
32.827
34.1662
34.4972
34.6334
34.7012
34.6951
34.4893
33.2034
60.9107
59.4122
58.9372
58.6396
58.3663
58.0795
57.7729
57.4507
57.1172
56.7766
56.4471
56.2222
56.4709
59.8766
58.8344
58.8035
58.8455
59.3373
50.9422
51.4698
51.5985
51.6336
51.6231
51.5605
51.3922
50.781
59.0841
58.3864
58.0815
57.8534
57.6363
57.4081
57.1608
56.8952
56.6155
56.3275
56.0491
55.881
56.2325
60.0244
58.8975
58.8328
58.7697
58.7341
60.8258
60.8116
60.7868
60.7392
60.6676
60.5666
60.4299
60.2625
57.9789
57.7813
57.5888
57.406
57.2235
57.0324
56.826
56.6028
56.3667
56.1262
55.903
55.7801
56.1448
59.5267
58.9638
58.8795
58.7659
58.5392
62.954
62.7338
62.633
62.5397
62.436
62.3183
62.1984
62.1892
57.5526
57.5334
57.3912
57.2321
57.0686
56.8999
56.7211
56.5291
56.325
56.1168
55.9279
55.8414
56.2186
59.5005
59.0143
58.9204
58.7925
58.5735
61.2472
61.0321
60.9129
60.8044
60.6918
60.5729
60.4587
60.4323
57.5302
57.4972
57.3638
57.2126
57.0565
56.8981
56.7351
56.5642
56.3847
56.203
56.0418
55.9809
56.3628
59.5704
59.0479
58.9494
58.8214
58.662
59.238
59.0838
58.9671
58.855
58.7412
58.6246
58.5093
58.4205
57.6107
57.514
57.375
57.2264
57.0743
56.9219
56.7692
56.6136
56.4532
56.292
56.1494
56.096
56.4446
59.4029
59.0707
58.969
58.842
58.7195
58.3157
58.1984
58.0832
57.968
57.8526
57.7368
57.6191
57.4911
57.6543
57.5179
57.3751
57.2291
57.081
56.9335
56.7881
56.6435
56.4979
56.3531
56.2233
56.1652
56.4317
58.8068
59.0871
58.9825
58.8537
58.7371
58.2585
58.1449
58.0253
57.9045
57.785
57.6672
57.5472
57.4095
57.6405
57.496
57.3536
57.2108
57.0671
56.9241
56.7839
56.6469
56.5118
56.3788
56.2564
56.1835
56.3299
57.8556
59.0993
58.9918
58.8597
58.735
58.4594
58.335
58.2084
58.0814
57.9572
57.8363
57.7149
57.5811
57.6034
57.4655
57.3262
57.187
57.0475
56.9088
56.7729
56.6411
56.513
56.3882
56.2702
56.18
56.2039
56.8787
59.1083
58.9983
58.8627
58.7295
58.5884
58.4533
58.3206
58.1887
58.0604
57.9364
57.8135
57.6843
57.5675
57.4367
57.3004
57.1642
57.0282
56.8932
56.7607
56.6324
56.5087
56.3887
56.2731
56.169
56.1018
56.1745
59.1147
59.0027
58.8641
58.7256
58.6096
58.4683
58.3314
58.1962
58.0649
57.9383
57.8139
57.6864
57.5405
57.4136
57.2798
57.1459
57.0129
56.8811
56.7517
56.626
56.5048
56.3876
56.2737
56.1628
56.049
55.8426
59.1194
59.0056
58.8644
58.7225
58.5873
58.4426
58.3032
58.166
58.0327
57.9038
57.7776
57.6497
57.5193
57.394
57.2623
57.1305
56.9996
56.8703
56.7433
56.6195
56.4996
56.384
56.2718
56.1602
56.0346
55.7812
59.1227
59.0073
58.8635
58.7187
58.5663
58.4195
58.2784
58.14
58.0052
57.8744
57.7465
57.6176
57.5009
57.3766
57.2468
57.1168
56.9878
56.8604
56.7351
56.6127
56.4939
56.3795
56.2691
56.1598
56.039
55.8319
59.1251
59.008
58.8616
58.7137
58.5556
58.4072
58.2648
58.1256
57.9897
57.8573
57.7278
57.5982
57.4838
57.3602
57.2322
57.104
56.9765
56.8504
56.7264
56.605
56.4873
56.3739
56.2652
56.1585
56.0449
55.8848
59.1266
59.0077
58.8587
58.7078
58.5499
58.4002
58.2568
58.1169
57.9801
57.8466
57.7158
57.5856
57.4679
57.3446
57.2182
57.0918
56.9658
56.8407
56.7175
56.5971
56.4805
56.3683
56.2608
56.1557
56.0461
55.9061
59.1273
59.0063
58.8547
58.7011
58.5442
58.3937
58.2494
58.1088
57.9713
57.8369
57.7051
57.5745
57.4531
57.3297
57.2045
57.0796
56.955
56.8309
56.7085
56.5891
56.4736
56.3627
56.2558
56.1511
56.0423
55.9038
59.1262
59.0027
58.8487
58.6927
58.5363
58.3853
58.2401
58.0988
57.9607
57.8255
57.6931
57.5622