/*--------------------------------*- C++ -*----------------------------------*\
| =========                 |                                                 |
| \\      /  F ield         | OpenFOAM: The Open Source CFD Toolbox           |
|  \\    /   O peration     | Version:  v2012                                 |
|   \\  /    A nd           | Website:  www.openfoam.com                      |
|    \\/     M anipulation  |                                                 |
\*---------------------------------------------------------------------------*/
FoamFile
{
    version     2.0;
    format      ascii;
    class       volScalarField;
    location    "650/soil2";
    object      T;
}
// * * * * * * * * * * * * * * * * * * * * * * * * * * * * * * * * * * * * * //

dimensions      [0 0 0 1 0 0 0];


internalField   nonuniform List<scalar> 
10496
(
328.374
329.045
329.662
330.194
330.652
331.051
331.4
331.709
331.984
332.231
332.454
332.657
332.842
333.011
333.168
333.312
333.447
333.572
333.69
333.8
333.904
334.002
334.095
334.183
334.268
334.348
334.425
334.499
334.569
334.638
334.703
334.767
334.828
334.888
334.946
335.002
335.056
335.11
335.162
335.213
335.262
335.311
335.359
335.406
335.452
335.497
335.542
335.586
335.629
335.672
335.714
335.755
335.796
335.836
335.876
335.915
335.954
335.992
336.03
336.067
336.104
336.14
336.176
336.211
336.246
336.28
336.314
336.348
336.381
336.414
336.447
336.479
336.511
336.542
336.574
336.605
336.636
336.667
336.697
336.728
336.759
336.791
336.823
336.857
336.894
336.933
336.977
337.039
337.174
337.576
328.118
328.771
329.372
329.889
330.333
330.719
331.056
331.354
331.619
331.855
332.069
332.262
332.439
332.6
332.748
332.885
333.012
333.13
333.24
333.344
333.441
333.533
333.619
333.701
333.779
333.854
333.925
333.992
334.058
334.12
334.18
334.238
334.294
334.348
334.4
334.451
334.5
334.549
334.596
334.642
334.686
334.729
334.772
334.815
334.856
334.897
334.936
334.975
335.014
335.052
335.089
335.126
335.163
335.199
335.234
335.269
335.303
335.337
335.371
335.404
335.436
335.468
335.5
335.531
335.562
335.593
335.623
335.653
335.682
335.711
335.74
335.768
335.797
335.824
335.852
335.88
335.907
335.934
335.962
335.989
336.016
336.044
336.073
336.104
336.137
336.172
336.213
336.274
336.422
336.869
327.85
328.493
329.085
329.594
330.031
330.411
330.742
331.035
331.295
331.527
331.737
331.926
332.099
332.257
332.402
332.535
332.659
332.775
332.882
332.983
333.077
333.166
333.25
333.33
333.406
333.478
333.546
333.612
333.675
333.735
333.793
333.849
333.903
333.954
334.004
334.052
334.1
334.146
334.192
334.235
334.277
334.318
334.359
334.399
334.439
334.477
334.515
334.552
334.588
334.624
334.66
334.695
334.729
334.763
334.796
334.829
334.861
334.893
334.925
334.956
334.987
335.017
335.047
335.076
335.105
335.134
335.162
335.19
335.217
335.244
335.271
335.297
335.324
335.35
335.376
335.401
335.427
335.452
335.477
335.503
335.529
335.555
335.582
335.611
335.642
335.677
335.717
335.779
335.932
336.381
327.583
328.217
328.801
329.303
329.735
330.109
330.436
330.725
330.981
331.211
331.417
331.604
331.775
331.93
332.073
332.205
332.327
332.44
332.546
332.645
332.738
332.826
332.909
332.987
333.061
333.132
333.199
333.264
333.325
333.384
333.441
333.496
333.548
333.599
333.648
333.694
333.74
333.786
333.83
333.872
333.914
333.953
333.992
334.032
334.07
334.107
334.144
334.18
334.215
334.25
334.285
334.318
334.352
334.384
334.417
334.449
334.48
334.511
334.542
334.572
334.601
334.631
334.66
334.688
334.716
334.744
334.771
334.798
334.825
334.851
334.877
334.903
334.928
334.953
334.978
335.003
335.028
335.053
335.078
335.103
335.128
335.154
335.181
335.21
335.242
335.277
335.317
335.38
335.533
335.979
327.318
327.944
328.52
329.016
329.442
329.811
330.135
330.419
330.673
330.899
331.103
331.288
331.456
331.609
331.75
331.88
332.001
332.113
332.217
332.315
332.406
332.493
332.574
332.652
332.725
332.795
332.861
332.924
332.985
333.043
333.099
333.152
333.204
333.254
333.301
333.347
333.391
333.436
333.479
333.521
333.561
333.599
333.637
333.676
333.713
333.749
333.785
333.82
333.854
333.888
333.921
333.954
333.986
334.018
334.049
334.08
334.11
334.14
334.169
334.198
334.227
334.255
334.283
334.31
334.337
334.364
334.39
334.416
334.442
334.467
334.491
334.516
334.54
334.564
334.588
334.612
334.636
334.659
334.683
334.707
334.731
334.756
334.782
334.81
334.84
334.874
334.913
334.973
335.12
335.554
327.057
327.674
328.243
328.733
329.153
329.518
329.837
330.119
330.369
330.592
330.793
330.975
331.141
331.293
331.432
331.56
331.679
331.79
331.893
331.99
332.08
332.166
332.246
332.322
332.395
332.463
332.529
332.591
332.651
332.708
332.763
332.816
332.866
332.915
332.962
333.007
333.05
333.093
333.135
333.175
333.214
333.252
333.288
333.325
333.361
333.396
333.43
333.463
333.496
333.528
333.56
333.591
333.621
333.651
333.681
333.71
333.738
333.766
333.794
333.821
333.848
333.874
333.899
333.925
333.949
333.973
333.997
334.021
334.043
334.066
334.088
334.11
334.131
334.152
334.172
334.193
334.213
334.232
334.252
334.272
334.292
334.312
334.333
334.356
334.382
334.41
334.443
334.494
334.623
335.022
326.799
327.408
327.97
328.453
328.869
329.229
329.544
329.822
330.069
330.289
330.487
330.666
330.829
330.979
331.116
331.243
331.361
331.471
331.573
331.669
331.758
331.843
331.923
331.998
332.069
332.137
332.202
332.264
332.322
332.379
332.432
332.484
332.533
332.581
332.626
332.67
332.712
332.753
332.792
332.83
332.868
332.904
332.938
332.972
333.005
333.037
333.068
333.098
333.128
333.156
333.184
333.212
333.239
333.265
333.29
333.315
333.34
333.364
333.387
333.41
333.432
333.454
333.475
333.495
333.515
333.534
333.553
333.571
333.588
333.605
333.621
333.636
333.651
333.665
333.679
333.692
333.704
333.717
333.728
333.74
333.751
333.763
333.776
333.79
333.806
333.826
333.85
333.889
333.992
334.329
326.545
327.145
327.7
328.178
328.588
328.944
329.255
329.53
329.772
329.987
330.177
330.35
330.509
330.657
330.793
330.919
331.037
331.146
331.249
331.345
331.435
331.519
331.599
331.674
331.746
331.813
331.877
331.938
331.996
332.051
332.103
332.153
332.2
332.245
332.289
332.332
332.371
332.406
332.441
332.475
332.508
332.541
332.572
332.599
332.626
332.653
332.679
332.705
332.729
332.752
332.775
332.796
332.817
332.837
332.856
332.875
332.892
332.909
332.925
332.94
332.955
332.968
332.981
332.993
333.004
333.014
333.024
333.033
333.041
333.048
333.055
333.061
333.066
333.071
333.075
333.078
333.081
333.084
333.086
333.089
333.094
333.098
333.104
333.111
333.121
333.136
333.156
333.187
333.262
333.513
326.294
326.886
327.434
327.906
328.311
328.663
328.97
329.24
329.477
329.678
329.835
329.985
330.133
330.276
330.412
330.541
330.663
330.778
330.887
330.989
331.085
331.175
331.259
331.339
331.413
331.482
331.546
331.606
331.663
331.716
331.767
331.813
331.857
331.898
331.938
331.978
332.014
332.042
332.068
332.097
332.126
332.156
332.183
332.202
332.221
332.243
332.263
332.282
332.3
332.316
332.332
332.347
332.361
332.374
332.387
332.399
332.41
332.42
332.429
332.438
332.446
332.453
332.459
332.465
332.47
332.474
332.478
332.481
332.483
332.485
332.487
332.488
332.488
332.488
332.488
332.487
332.486
332.486
332.486
332.49
332.502
332.515
332.527
332.538
332.551
332.57
332.596
332.63
332.697
332.895
326.047
326.631
327.172
327.637
328.038
328.385
328.688
328.953
329.176
329.325
329.216
329.224
329.309
329.437
329.587
329.746
329.907
330.064
330.216
330.359
330.493
330.618
330.733
330.838
330.933
331.019
331.097
331.167
331.231
331.291
331.346
331.398
331.445
331.488
331.529
331.572
331.61
331.635
331.66
331.689
331.719
331.753
331.784
331.801
331.818
331.841
331.861
331.88
331.897
331.913
331.927
331.941
331.954
331.966
331.976
331.986
331.993
332
332.005
332.009
332.013
332.014
332.015
332.015
332.014
332.011
332.008
332.003
331.998
331.992
331.985
331.978
331.969
331.961
331.951
331.941
331.931
331.922
331.915
331.925
332.01
332.088
332.146
332.188
332.221
332.254
332.293
332.342
332.423
332.625
325.804
326.379
326.913
327.373
327.768
328.111
328.41
328.668
328.866
328.812
326.019
325.464
325.563
325.875
326.251
326.633
326.996
327.331
327.633
327.901
328.137
328.34
328.513
328.658
328.778
328.875
328.953
329.015
329.066
329.107
329.142
329.173
329.2
329.225
329.251
329.281
329.308
329.321
329.333
329.356
329.381
329.413
329.444
329.458
329.474
329.499
329.523
329.545
329.566
329.585
329.603
329.62
329.634
329.647
329.656
329.663
329.668
329.67
329.669
329.665
329.658
329.648
329.636
329.62
329.601
329.579
329.555
329.527
329.497
329.463
329.428
329.39
329.349
329.307
329.263
329.217
329.169
329.12
329.075
329.091
330.067
330.811
331.327
331.676
331.912
332.077
332.203
332.321
332.471
332.754
325.564
326.131
326.658
327.112
327.502
327.841
328.136
328.389
328.574
328.477
325.539
324.931
325.021
325.343
325.736
326.136
326.518
326.871
327.19
327.474
327.722
327.937
328.119
328.27
328.394
328.493
328.571
328.631
328.676
328.711
328.74
328.764
328.786
328.808
328.834
328.869
328.903
328.92
328.939
328.973
329.014
329.067
329.122
329.154
329.19
329.241
329.291
329.342
329.395
329.448
329.502
329.557
329.612
329.666
329.72
329.773
329.825
329.876
329.926
329.973
330.019
330.062
330.102
330.138
330.17
330.198
330.221
330.239
330.251
330.256
330.256
330.249
330.235
330.215
330.188
330.155
330.116
330.073
330.031
330.055
330.846
331.453
331.875
332.161
332.355
332.491
332.602
332.725
332.92
333.299
325.327
325.886
326.407
326.854
327.24
327.574
327.866
328.114
328.295
328.19
325.272
324.661
324.746
325.064
325.453
325.851
326.231
326.582
326.9
327.183
327.431
327.644
327.824
327.973
328.093
328.188
328.261
328.315
328.354
328.381
328.4
328.416
328.429
328.442
328.46
328.491
328.521
328.527
328.533
328.559
328.592
328.64
328.692
328.712
328.735
328.777
328.819
328.862
328.906
328.951
328.998
329.044
329.09
329.136
329.181
329.226
329.271
329.316
329.361
329.406
329.451
329.496
329.541
329.587
329.632
329.678
329.724
329.77
329.815
329.861
329.906
329.951
329.995
330.039
330.081
330.121
330.16
330.197
330.239
330.342
331.108
331.675
332.062
332.326
332.513
332.656
332.783
332.938
333.194
333.688
325.094
325.644
326.158
326.6
326.981
327.311
327.599
327.845
328.022
327.916
325.035
324.429
324.511
324.825
325.209
325.602
325.978
326.326
326.641
326.921
327.166
327.376
327.554
327.701
327.819
327.913
327.985
328.037
328.074
328.098
328.113
328.124
328.133
328.143
328.159
328.19
328.221
328.221
328.219
328.242
328.272
328.319
328.373
328.386
328.402
328.441
328.479
328.518
328.559
328.6
328.64
328.68
328.716
328.75
328.783
328.814
328.844
328.873
328.9
328.926
328.951
328.974
328.996
329.017
329.036
329.054
329.07
329.085
329.099
329.111
329.122
329.132
329.141
329.149
329.157
329.163
329.168
329.172
329.178
329.228
329.992
330.545
330.914
331.167
331.352
331.5
331.642
331.815
332.079
332.519
324.863
325.406
325.913
326.35
326.726
327.052
327.336
327.578
327.754
327.649
324.806
324.208
324.289
324.598
324.977
325.365
325.736
326.08
326.391
326.667
326.909
327.117
327.293
327.437
327.554
327.646
327.718
327.771
327.808
327.831
327.844
327.852
327.858
327.865
327.88
327.914
327.947
327.943
327.936
327.958
327.987
328.038
328.097
328.108
328.119
328.159
328.199
328.242
328.286
328.329
328.371
328.411
328.448
328.485
328.522
328.558
328.593
328.626
328.659
328.689
328.718
328.745
328.771
328.796
328.82
328.843
328.865
328.885
328.905
328.923
328.941
328.956
328.971
328.984
328.995
329.005
329.012
329.018
329.023
329.07
329.801
330.324
330.668
330.898
331.059
331.187
331.311
331.468
331.717
332.17
324.637
325.171
325.672
326.103
326.474
326.796
327.076
327.316
327.489
327.386
324.582
323.992
324.072
324.377
324.751
325.134
325.5
325.839
326.146
326.419
326.658
326.863
327.036
327.178
327.293
327.384
327.456
327.51
327.55
327.574
327.586
327.591
327.593
327.598
327.613
327.648
327.685
327.68
327.669
327.691
327.721
327.775
327.84
327.851
327.861
327.904
327.95
327.999
328.049
328.098
328.142
328.183
328.223
328.263
328.305
328.346
328.387
328.426
328.465
328.503
328.54
328.577
328.614
328.65
328.687
328.723
328.76
328.797
328.834
328.872
328.91
328.949
328.989
329.029
329.07
329.112
329.155
329.2
329.252
329.366
330.103
330.638
330.994
331.233
331.404
331.542
331.676
331.844
332.116
332.641
324.413
324.939
325.434
325.859
326.225
326.543
326.82
327.057
327.228
327.127
324.361
323.78
323.859
324.16
324.53
324.908
325.27
325.604
325.907
326.176
326.412
326.614
326.784
326.923
327.035
327.124
327.195
327.251
327.293
327.321
327.334
327.337
327.336
327.338
327.351
327.387
327.427
327.422
327.407
327.43
327.461
327.517
327.589
327.601
327.611
327.66
327.713
327.771
327.829
327.881
327.927
327.969
328.01
328.054
328.099
328.145
328.19
328.234
328.278
328.32
328.363
328.405
328.447
328.49
328.532
328.575
328.617
328.661
328.704
328.747
328.791
328.834
328.878
328.92
328.962
329.002
329.041
329.079
329.121
329.221
329.94
330.462
330.805
331.029
331.179
331.29
331.39
331.515
331.735
332.183
324.192
324.711
325.199
325.618
325.98
326.294
326.567
326.801
326.971
326.874
324.149
323.578
323.659
323.956
324.32
324.693
325.049
325.378
325.675
325.939
326.17
326.367
326.532
326.666
326.773
326.857
326.925
326.98
327.024
327.054
327.069
327.071
327.066
327.061
327.068
327.101
327.141
327.133
327.113
327.133
327.162
327.218
327.294
327.308
327.319
327.375
327.437
327.503
327.566
327.618
327.66
327.698
327.737
327.778
327.821
327.864
327.904
327.943
327.979
328.014
328.048
328.081
328.113
328.144
328.173
328.202
328.229
328.255
328.28
328.302
328.323
328.341
328.357
328.37
328.379
328.385
328.386
328.383
328.38
328.431
329.146
329.666
330.007
330.229
330.377
330.483
330.57
330.67
330.839
331.194
323.975
324.485
324.967
325.382
325.738
326.048
326.318
326.55
326.721
326.633
323.963
323.411
323.494
323.788
324.146
324.51
324.857
325.176
325.461
325.712
325.929
326.11
326.259
326.377
326.467
326.535
326.588
326.631
326.667
326.693
326.705
326.701
326.686
326.668
326.662
326.684
326.717
326.701
326.672
326.686
326.711
326.766
326.846
326.866
326.885
326.954
327.032
327.112
327.182
327.235
327.276
327.312
327.349
327.387
327.424
327.457
327.485
327.508
327.527
327.542
327.555
327.565
327.573
327.579
327.583
327.586
327.587
327.586
327.583
327.578
327.571
327.562
327.55
327.536
327.519
327.499
327.475
327.444
327.406
327.407
328.15
328.709
329.092
329.353
329.536
329.668
329.772
329.872
330.016
330.313
323.762
324.264
324.74
325.148
325.501
325.806
326.074
326.304
326.481
326.435
323.964
323.476
323.568
323.847
324.179
324.511
324.819
325.093
325.33
325.529
325.692
325.821
325.92
325.993
326.043
326.078
326.104
326.127
326.151
326.171
326.183
326.179
326.161
326.137
326.122
326.137
326.165
326.146
326.113
326.123
326.146
326.198
326.282
326.308
326.339
326.426
326.525
326.623
326.706
326.77
326.822
326.869
326.917
326.962
327.002
327.031
327.047
327.052
327.049
327.04
327.027
327.011
326.993
326.975
326.955
326.935
326.915
326.893
326.872
326.849
326.826
326.802
326.777
326.751
326.723
326.694
326.663
326.629
326.594
326.602
327.435
328.067
328.507
328.809
329.019
329.166
329.275
329.368
329.483
329.73
323.551
324.045
324.515
324.918
325.266
325.568
325.832
326.063
326.258
326.391
326.333
326.386
326.501
326.636
326.775
326.909
327.036
327.154
327.264
327.364
327.456
327.539
327.615
327.682
327.742
327.796
327.848
327.904
327.966
328.031
328.09
328.132
328.152
328.157
328.167
328.208
328.266
328.266
328.241
328.259
328.281
328.325
328.396
328.389
328.38
328.433
328.492
328.54
328.567
328.574
328.576
328.584
328.603
328.629
328.654
328.676
328.694
328.709
328.721
328.731
328.74
328.746
328.751
328.755
328.758
328.76
328.761
328.761
328.76
328.759
328.757
328.755
328.752
328.748
328.744
328.74
328.735
328.73
328.728
328.738
328.815
328.886
328.941
328.982
329.014
329.041
329.065
329.096
329.161
329.365
323.343
323.829
324.292
324.69
325.034
325.332
325.593
325.823
326.025
326.197
326.334
326.468
326.6
326.727
326.846
326.958
327.062
327.16
327.25
327.335
327.414
327.488
327.557
327.622
327.68
327.734
327.786
327.84
327.903
327.974
328.043
328.098
328.131
328.144
328.155
328.194
328.254
328.256
328.232
328.25
328.27
328.308
328.377
328.369
328.358
328.411
328.465
328.502
328.513
328.508
328.504
328.512
328.532
328.558
328.584
328.608
328.628
328.646
328.663
328.679
328.693
328.705
328.717
328.727
328.736
328.743
328.75
328.756
328.76
328.764
328.767
328.77
328.772
328.773
328.774
328.774
328.774
328.773
328.774
328.777
328.788
328.801
328.813
328.824
328.836
328.847
328.861
328.884
328.947
329.163
323.135
323.614
324.071
324.464
324.803
325.097
325.355
325.583
325.785
325.964
326.124
326.269
326.404
326.529
326.644
326.752
326.852
326.945
327.032
327.114
327.191
327.263
327.332
327.396
327.456
327.511
327.563
327.615
327.674
327.743
327.815
327.879
327.923
327.943
327.954
327.988
328.045
328.047
328.021
328.037
328.051
328.082
328.15
328.145
328.138
328.194
328.244
328.274
328.279
328.275
328.278
328.297
328.327
328.36
328.392
328.421
328.447
328.472
328.495
328.517
328.538
328.556
328.573
328.589
328.603
328.616
328.627
328.638
328.647
328.655
328.663
328.669
328.675
328.68
328.684
328.688
328.692
328.696
328.699
328.703
328.709
328.716
328.725
328.734
328.746
328.758
328.773
328.799
328.876
329.136
322.929
323.399
323.851
324.239
324.573
324.863
325.118
325.343
325.543
325.723
325.884
326.031
326.166
326.289
326.404
326.509
326.608
326.7
326.786
326.866
326.942
327.013
327.082
327.147
327.208
327.266
327.319
327.37
327.425
327.489
327.56
327.627
327.678
327.705
327.718
327.748
327.8
327.799
327.774
327.783
327.786
327.803
327.857
327.85
327.841
327.89
327.931
327.948
327.946
327.941
327.949
327.972
328.002
328.033
328.062
328.089
328.114
328.138
328.161
328.182
328.2
328.217
328.231
328.244
328.256
328.265
328.274
328.281
328.287
328.292
328.297
328.301
328.304
328.308
328.312
328.316
328.32
328.325
328.33
328.336
328.344
328.353
328.365
328.38
328.396
328.414
328.436
328.47
328.56
328.832
322.724
323.186
323.632
324.014
324.344
324.63
324.882
325.104
325.302
325.48
325.64
325.786
325.919
326.042
326.155
326.26
326.357
326.448
326.533
326.613
326.688
326.759
326.827
326.892
326.956
327.017
327.075
327.129
327.183
327.243
327.309
327.377
327.431
327.463
327.477
327.504
327.55
327.545
327.496
327.484
327.459
327.442
327.482
327.455
327.427
327.456
327.475
327.472
327.456
327.445
327.447
327.459
327.474
327.487
327.498
327.508
327.519
327.528
327.536
327.542
327.547
327.55
327.554
327.556
327.559
327.563
327.566
327.571
327.576
327.582
327.588
327.596
327.605
327.616
327.627
327.639
327.653
327.668
327.683
327.7
327.719
327.739
327.761
327.786
327.813
327.842
327.874
327.922
328.021
328.275
322.521
322.975
323.415
323.792
324.117
324.4
324.648
324.868
325.063
325.239
325.398
325.542
325.674
325.795
325.907
326.011
326.108
326.198
326.283
326.363
326.437
326.508
326.575
326.64
326.704
326.769
326.833
326.894
326.952
327.012
327.076
327.142
327.197
327.231
327.244
327.267
327.308
327.297
327.294
327.221
327.105
326.987
326.865
326.769
326.685
326.666
326.642
326.603
326.559
326.525
326.506
326.493
326.482
326.474
326.472
326.477
326.486
326.5
326.515
326.532
326.551
326.571
326.592
326.615
326.639
326.664
326.689
326.715
326.742
326.769
326.796
326.824
326.852
326.881
326.91
326.939
326.969
326.999
327.029
327.06
327.092
327.124
327.158
327.193
327.23
327.268
327.311
327.368
327.47
327.7
322.324
322.77
323.204
323.576
323.897
324.176
324.421
324.638
324.831
325.005
325.162
325.304
325.435
325.555
325.666
325.769
325.865
325.955
326.039
326.119
326.194
326.264
326.33
326.394
326.458
326.524
326.593
326.662
326.729
326.794
326.86
326.926
326.984
327.019
327.031
327.049
327.084
327.032
326.623
326.316
325.943
325.621
325.621
325.445
325.31
325.269
325.241
325.216
325.2
325.201
325.214
325.236
325.265
325.303
325.35
325.405
325.463
325.522
325.58
325.637
325.692
325.746
325.799
325.851
325.901
325.95
325.998
326.045
326.091
326.136
326.18
326.224
326.266
326.308
326.349
326.389
326.43
326.469
326.509
326.549
326.589
326.63
326.671
326.713
326.755
326.8
326.849
326.912
327.014
327.224
322.138
322.577
323.006
323.373
323.689
323.965
324.207
324.421
324.612
324.783
324.939
325.08
325.209
325.328
325.438
325.541
325.636
325.726
325.81
325.889
325.964
326.035
326.102
326.165
326.227
326.292
326.362
326.436
326.51
326.583
326.655
326.725
326.789
326.833
326.85
326.864
326.891
326.8
326.921
326.073
325.27
324.718
323.852
323.715
323.692
323.781
323.883
323.983
324.085
324.187
324.287
324.382
324.476
324.571
324.669
324.765
324.858
324.945
325.026
325.102
325.174
325.242
325.307
325.37
325.429
325.487
325.543
325.597
325.65
325.701
325.751
325.8
325.848
325.895
325.94
325.985
326.03
326.074
326.118
326.161
326.205
326.249
326.293
326.337
326.382
326.43
326.484
326.551
326.652
326.85
321.971
322.403
322.827
323.19
323.503
323.775
324.014
324.226
324.415
324.584
324.738
324.878
325.006
325.124
325.234
325.336
325.431
325.52
325.604
325.684
325.76
325.831
325.899
325.962
326.024
326.086
326.152
326.224
326.302
326.38
326.457
326.534
326.608
326.668
326.704
326.723
326.721
326.325
323.872
322.448
321.653
321.403
322.22
322.446
322.647
322.916
323.162
323.382
323.58
323.754
323.904
324.035
324.156
324.271
324.381
324.483
324.577
324.661
324.739
324.812
324.882
324.949
325.014
325.076
325.137
325.196
325.253
325.308
325.362
325.414
325.465
325.514
325.562
325.61
325.656
325.702
325.746
325.791
325.835
325.88
325.924
325.968
326.012
326.056
326.101
326.15
326.206
326.274
326.373
326.563
321.832
322.259
322.679
323.038
323.348
323.618
323.855
324.064
324.251
324.42
324.572
324.711
324.838
324.955
325.064
325.165
325.26
325.349
325.434
325.514
325.591
325.663
325.732
325.798
325.859
325.919
325.981
326.048
326.121
326.2
326.28
326.36
326.443
326.524
326.586
326.616
326.576
325.757
318.562
317.122
316.557
316.713
321.457
322.024
322.282
322.576
322.838
323.082
323.305
323.501
323.672
323.824
323.962
324.088
324.203
324.306
324.4
324.485
324.565
324.639
324.71
324.778
324.843
324.906
324.966
325.025
325.081
325.135
325.188
325.239
325.288
325.337
325.384
325.43
325.475
325.52
325.564
325.608
325.651
325.695
325.738
325.781
325.825
325.868
325.913
325.962
326.019
326.086
326.182
326.368
321.729
322.151
322.568
322.925
323.233
323.501
323.737
323.945
324.132
324.299
324.451
324.589
324.716
324.833
324.941
325.042
325.136
325.225
325.31
325.39
325.467
325.541
325.612
325.679
325.742
325.802
325.862
325.925
325.993
326.069
326.149
326.231
326.319
326.413
326.499
326.537
326.469
325.316
314.195
312.823
312.486
312.987
321.061
321.9
322.168
322.438
322.671
322.897
323.109
323.302
323.477
323.639
323.788
323.926
324.053
324.169
324.275
324.372
324.463
324.548
324.626
324.699
324.768
324.833
324.895
324.953
325.009
325.062
325.114
325.163
325.212
325.259
325.306
325.351
325.396
325.44
325.483
325.526
325.569
325.612
325.655
325.698
325.741
325.784
325.83
325.88
325.937
326.005
326.1
326.282
321.664
322.083
322.498
322.854
323.161
323.428
323.663
323.872
324.059
324.227
324.379
324.518
324.646
324.763
324.872
324.973
325.068
325.157
325.241
325.322
325.399
325.473
325.545
325.614
325.678
325.74
325.8
325.862
325.929
326.004
326.084
326.165
326.245
326.342
326.434
326.454
326.361
325.083
312.367
311.039
310.829
311.531
321.172
322.131
322.359
322.56
322.718
322.882
323.047
323.206
323.362
323.514
323.663
323.809
323.948
324.078
324.2
324.316
324.432
324.531
324.62
324.702
324.776
324.845
324.91
324.97
325.027
325.082
325.134
325.185
325.235
325.284
325.332
325.378
325.424
325.469
325.514
325.558
325.601
325.645
325.688
325.732
325.776
325.821
325.868
325.921
325.981
326.052
326.151
326.335
321.633
322.051
322.466
322.82
323.127
323.394
323.629
323.838
324.025
324.195
324.349
324.489
324.619
324.738
324.849
324.952
325.049
325.139
325.225
325.307
325.386
325.461
325.534
325.604
325.67
325.733
325.793
325.854
325.921
325.995
326.074
326.142
324.502
324.613
324.706
324.789
324.867
324.939
325.006
325.071
325.132
325.191
325.248
325.304
325.36
325.414
325.466
325.518
325.569
325.619
325.669
325.718
325.766
325.814
325.862
325.91
325.959
326.009
326.062
326.119
326.185
326.263
326.368
326.557
321.629
322.047
322.46
322.815
323.121
323.387
323.622
323.831
324.018
324.188
324.342
324.484
324.614
324.736
324.849
324.955
325.055
325.149
325.238
325.324
325.406
325.486
325.563
325.637
325.708
325.773
325.837
325.894
325.954
326.017
326.077
326.119
324.722
324.812
324.889
324.963
325.036
325.108
325.18
325.25
325.32
325.389
325.457
325.524
325.589
325.653
325.715
325.776
325.835
325.893
325.951
326.008
326.064
326.12
326.177
326.233
326.291
326.35
326.413
326.48
326.556
326.648
326.774
326.997
321.638
322.057
322.471
322.825
323.131
323.397
323.631
323.839
324.025
324.194
324.347
324.488
324.618
324.739
324.852
324.959
325.06
325.157
325.249
325.339
325.426
325.511
325.595
325.677
325.755
325.826
325.873
325.922
325.961
325.992
326.022
326
324.969
325.042
325.107
325.176
325.248
325.324
325.402
325.482
325.564
325.647
325.73
325.814
325.898
325.981
326.063
326.143
326.223
326.302
326.379
326.455
326.53
326.607
326.686
326.767
326.849
326.934
327.021
327.112
327.213
327.332
327.499
327.792
321.652
322.071
322.485
322.84
323.146
323.412
323.646
323.854
324.04
324.207
324.359
324.499
324.627
324.747
324.859
324.965
325.066
325.162
325.255
325.346
325.435
325.524
325.612
325.699
325.783
325.859
325.971
325.991
325.973
325.923
325.786
325.656
325.173
325.265
325.351
325.442
325.538
325.637
325.739
325.847
325.959
326.075
326.194
326.313
326.431
326.548
326.662
326.772
326.876
326.973
327.062
327.145
327.219
327.282
327.335
327.381
327.422
327.461
327.5
327.544
327.598
327.675
327.801
328.052
321.661
322.08
322.495
322.85
323.156
323.423
323.658
323.866
324.052
324.22
324.372
324.512
324.64
324.76
324.872
324.978
325.078
325.175
325.268
325.36
325.45
325.54
325.631
325.721
325.805
325.855
325.618
325.503
325.322
325.124
325.139
324.931
325.604
325.75
325.887
326.022
326.153
326.279
326.393
326.491
326.574
326.643
326.703
326.754
326.798
326.836
326.869
326.897
326.922
326.943
326.961
326.976
326.99
327.004
327.017
327.031
327.048
327.068
327.093
327.126
327.172
327.239
327.344
327.548
321.663
322.083
322.497
322.852
323.159
323.426
323.66
323.869
324.055
324.223
324.376
324.517
324.646
324.766
324.879
324.986
325.087
325.185
325.28
325.374
325.467
325.56
325.655
325.747
325.827
325.867
326.343
325.901
325.388
324.974
324.075
323.916
325.963
326.048
326.111
326.165
326.211
326.252
326.286
326.316
326.341
326.363
326.383
326.401
326.417
326.432
326.446
326.46
326.473
326.487
326.5
326.513
326.527
326.542
326.559
326.578
326.6
326.626
326.656
326.694
326.742
326.807
326.9
327.078
321.66
322.079
322.494
322.848
323.155
323.422
323.656
323.864
324.051
324.219
324.372
324.512
324.641
324.762
324.875
324.982
325.084
325.183
325.279
325.374
325.47
325.566
325.664
325.755
325.796
325.553
323.701
322.64
322.03
321.892
322.774
323.031
325.737
325.784
325.812
325.834
325.854
325.873
325.891
325.908
325.925
325.942
325.96
325.977
325.995
326.012
326.029
326.046
326.063
326.081
326.099
326.118
326.138
326.159
326.182
326.207
326.234
326.264
326.299
326.341
326.392
326.455
326.54
326.706
321.654
322.073
322.487
322.842
323.148
323.415
323.649
323.857
324.043
324.211
324.364
324.504
324.634
324.754
324.867
324.974
325.077
325.176
325.273
325.369
325.465
325.562
325.658
325.738
325.712
325.023
318.263
317.033
316.591
316.875
322.036
322.702
325.407
325.448
325.47
325.489
325.505
325.521
325.538
325.555
325.572
325.591
325.609
325.628
325.648
325.668
325.688
325.709
325.731
325.753
325.776
325.8
325.825
325.85
325.877
325.906
325.937
325.97
326.008
326.052
326.103
326.162
326.243
326.405
321.648
322.066
322.481
322.835
323.141
323.408
323.642
323.85
324.036
324.204
324.357
324.497
324.626
324.746
324.859
324.966
325.068
325.167
325.264
325.36
325.456
325.552
325.645
325.711
325.622
324.541
313.579
312.276
312.019
312.671
321.524
322.521
325.241
325.276
325.294
325.308
325.319
325.331
325.342
325.355
325.368
325.383
325.399
325.416
325.433
325.452
325.472
325.493
325.515
325.538
325.562
325.587
325.613
325.64
325.668
325.697
325.728
325.763
325.802
325.846
325.895
325.949
326.025
326.182
321.644
322.062
322.477
322.831
323.137
323.404
323.638
323.846
324.032
324.2
324.352
324.492
324.621
324.741
324.854
324.96
325.062
325.16
325.255
325.35
325.444
325.539
325.627
325.681
325.554
324.281
311.462
310.12
309.966
310.831
321.429
322.569
325.261
325.292
325.304
325.31
325.311
325.312
325.312
325.313
325.315
325.319
325.325
325.333
325.344
325.356
325.37
325.386
325.404
325.423
325.444
325.466
325.49
325.515
325.541
325.57
325.6
325.634
325.672
325.714
325.76
325.81
325.884
326.04
321.642
322.061
322.475
322.83
323.136
323.402
323.637
323.845
324.031
324.198
324.351
324.491
324.619
324.739
324.851
324.957
325.057
325.154
325.248
325.34
325.432
325.523
325.605
325.648
325.505
324.221
311.027
309.639
309.534
310.569
322.237
323.265
325.422
325.45
325.456
325.45
325.437
325.42
325.402
325.385
325.37
325.358
325.35
325.344
325.342
325.344
325.349
325.356
325.367
325.38
325.396
325.413
325.433
325.455
325.479
325.505
325.533
325.566
325.603
325.642
325.685
325.733
325.807
325.964
321.643
322.062
322.476
322.831
323.137
323.404
323.638
323.846
324.032
324.199
324.352
324.491
324.62
324.739
324.851
324.956
325.055
325.15
325.243
325.333
325.422
325.508
325.584
325.619
325.467
324.191
310.967
309.571
309.486
310.646
323.171
324.201
325.646
325.672
325.665
325.638
325.595
325.552
325.509
325.469
325.433
325.403
325.379
325.361
325.348
325.339
325.336
325.337
325.342
325.351
325.363
325.378
325.396
325.416
325.439
325.464
325.493
325.526
325.562
325.601
325.642
325.69
325.767
325.93
321.646
322.065
322.479
322.833
323.139
323.406
323.64
323.848
324.034
324.201
324.354
324.493
324.621
324.74
324.851
324.955
325.053
325.147
325.238
325.326
325.412
325.494
325.565
325.594
325.441
324.186
311.034
309.666
309.599
310.812
323.776
324.911
325.829
325.831
325.779
325.7
325.624
325.538
325.46
325.394
325.34
325.298
325.266
325.244
325.23