/*--------------------------------*- C++ -*----------------------------------*\
| =========                 |                                                 |
| \\      /  F ield         | OpenFOAM: The Open Source CFD Toolbox           |
|  \\    /   O peration     | Version:  v2012                                 |
|   \\  /    A nd           | Website:  www.openfoam.com                      |
|    \\/     M anipulation  |                                                 |
\*---------------------------------------------------------------------------*/
FoamFile
{
    version     2.0;
    format      ascii;
    class       volScalarField;
    location    "350/air";
    object      alphat;
}
// * * * * * * * * * * * * * * * * * * * * * * * * * * * * * * * * * * * * * //

dimensions      [1 -1 -1 0 0 0 0];


internalField   nonuniform List<scalar> 
287104
(
0.00647909
0.0060022
0.00563539
0.00534291
0.0051041
0.00490563
0.00473831
0.00459558
0.00447256
0.00436561
0.0042719
0.00418924
0.00411587
0.0040504
0.00399168
0.00393877
0.0038909
0.00384742
0.00380777
0.00377151
0.00373823
0.0037076
0.00367932
0.00365314
0.00362885
0.00360625
0.00358518
0.00356548
0.00354702
0.0035297
0.0035134
0.00349802
0.00348349
0.00346973
0.00345667
0.00344423
0.00343237
0.00342103
0.00341016
0.00339971
0.00338965
0.00337993
0.00337052
0.00336138
0.0033525
0.00334383
0.00333537
0.00332709
0.00331896
0.00331099
0.00330315
0.00329544
0.00328784
0.00328035
0.00327296
0.00326567
0.00325848
0.00325137
0.00324436
0.00323743
0.00323059
0.00322384
0.00321717
0.00321057
0.00320406
0.00319763
0.00319127
0.00318497
0.00317875
0.00317258
0.00316646
0.00316039
0.00315435
0.00314834
0.00314235
0.00313636
0.00313036
0.00312432
0.00311823
0.00311206
0.00310578
0.00309934
0.0030927
0.00308576
0.0030784
0.00307042
0.00306155
0.00305084
0.00303858
0.0030124
0.00647904
0.00600208
0.0056352
0.00534265
0.00510379
0.00490527
0.00473791
0.00459514
0.0044721
0.00436513
0.00427141
0.00418874
0.00411538
0.00404992
0.00399122
0.00393833
0.00389049
0.00384704
0.00380744
0.00377121
0.00373797
0.00370738
0.00367914
0.00365301
0.00362877
0.00360622
0.0035852
0.00356557
0.00354718
0.00352992
0.0035137
0.00349841
0.00348397
0.0034703
0.00345734
0.00344502
0.00343328
0.00342206
0.00341132
0.00340101
0.00339108
0.0033815
0.00337223
0.00336324
0.00335449
0.00334596
0.00333763
0.00332947
0.00332147
0.00331361
0.00330588
0.00329827
0.00329076
0.00328336
0.00327604
0.00326882
0.00326168
0.00325463
0.00324766
0.00324077
0.00323396
0.00322723
0.00322057
0.00321399
0.00320748
0.00320104
0.00319467
0.00318836
0.00318212
0.00317592
0.00316977
0.00316366
0.00315759
0.00315153
0.00314548
0.00313943
0.00313335
0.00312724
0.00312106
0.00311479
0.0031084
0.00310185
0.00309508
0.003088
0.00308051
0.00307239
0.00306338
0.00305256
0.00304019
0.00301412
0.00647907
0.00600211
0.00563523
0.00534267
0.00510379
0.00490526
0.00473788
0.0045951
0.00447204
0.00436505
0.00427133
0.00418866
0.0041153
0.00404985
0.00399116
0.0039383
0.00389048
0.00384705
0.00380747
0.00377127
0.00373806
0.0037075
0.0036793
0.0036532
0.003629
0.00360649
0.00358552
0.00356593
0.00354759
0.0035304
0.00351424
0.00349902
0.00348466
0.00347109
0.00345822
0.003446
0.00343436
0.00342326
0.00341263
0.00340244
0.00339264
0.00338319
0.00337406
0.0033652
0.00335659
0.0033482
0.00334001
0.00333199
0.00332413
0.00331641
0.00330882
0.00330135
0.00329398
0.00328671
0.00327954
0.00327246
0.00326546
0.00325855
0.00325173
0.00324499
0.00323833
0.00323175
0.00322525
0.00321883
0.00321249
0.00320622
0.00320003
0.0031939
0.00318784
0.00318183
0.00317588
0.00316997
0.0031641
0.00315825
0.00315242
0.00314659
0.00314074
0.00313485
0.00312891
0.00312288
0.00311673
0.00311043
0.0031039
0.00309709
0.00308988
0.00308206
0.00307339
0.00306298
0.00305108
0.00302602
0.0064791
0.00600213
0.00563522
0.00534264
0.00510372
0.00490513
0.00473771
0.00459487
0.00447177
0.00436475
0.00427099
0.0041883
0.00411493
0.00404948
0.0039908
0.00393795
0.00389014
0.00384673
0.00380716
0.00377097
0.00373777
0.00370722
0.00367903
0.00365295
0.00362876
0.00360628
0.00358533
0.00356577
0.00354747
0.00353032
0.00351421
0.00349905
0.00348476
0.00347126
0.00345848
0.00344635
0.00343481
0.00342382
0.00341331
0.00340324
0.00339356
0.00338424
0.00337523
0.0033665
0.00335802
0.00334975
0.00334168
0.00333377
0.00332602
0.00331841
0.00331091
0.00330352
0.00329624
0.00328905
0.00328194
0.00327493
0.00326799
0.00326114
0.00325436
0.00324766
0.00324104
0.0032345
0.00322803
0.00322164
0.00321532
0.00320907
0.00320289
0.00319677
0.00319071
0.00318471
0.00317875
0.00317283
0.00316694
0.00316106
0.00315519
0.00314931
0.0031434
0.00313744
0.0031314
0.00312526
0.00311898
0.00311251
0.00310581
0.00309881
0.00309139
0.00308336
0.00307448
0.00306387
0.00305181
0.00302671
0.00647914
0.00600217
0.00563525
0.00534264
0.00510369
0.00490507
0.0047376
0.00459472
0.00447157
0.0043645
0.0042707
0.004188
0.00411462
0.00404917
0.0039905
0.00393766
0.00388987
0.00384648
0.00380693
0.00377076
0.00373758
0.00370704
0.00367887
0.00365281
0.00362864
0.00360618
0.00358526
0.00356574
0.00354748
0.00353038
0.00351433
0.00349925
0.00348503
0.00347162
0.00345894
0.00344692
0.00343551
0.00342464
0.00341427
0.00340434
0.00339482
0.00338564
0.00337679
0.00336821
0.00335988
0.00335176
0.00334383
0.00333607
0.00332846
0.00332098
0.00331361
0.00330635
0.00329918
0.0032921
0.00328511
0.0032782
0.00327136
0.00326461
0.00325792
0.00325132
0.00324479
0.00323833
0.00323194
0.00322563
0.00321938
0.0032132
0.00320708
0.00320102
0.00319501
0.00318904
0.00318311
0.00317721
0.00317132
0.00316543
0.00315954
0.00315361
0.00314763
0.00314157
0.0031354
0.0031291
0.00312261
0.00311591
0.00310893
0.00310161
0.00309384
0.00308545
0.00307622
0.00306527
0.00305289
0.00302759
0.00647917
0.0060022
0.00563526
0.00534262
0.00510362
0.00490494
0.00473741
0.00459446
0.00447124
0.00436411
0.00427029
0.00418757
0.00411421
0.00404878
0.00399013
0.00393732
0.00388955
0.00384617
0.00380663
0.00377047
0.00373729
0.00370676
0.00367859
0.00365253
0.00362838
0.00360593
0.00358504
0.00356555
0.00354734
0.0035303
0.00351433
0.00349933
0.00348522
0.00347193
0.00345939
0.00344752
0.00343628
0.0034256
0.00341542
0.00340571
0.0033964
0.00338745
0.00337883
0.00337049
0.0033624
0.00335453
0.00334685
0.00333933
0.00333196
0.00332472
0.00331759
0.00331057
0.00330363
0.00329679
0.00329003
0.00328334
0.00327674
0.00327022
0.00326377
0.0032574
0.0032511
0.00324489
0.00323874
0.00323268
0.00322668
0.00322075
0.00321489
0.00320908
0.00320333
0.00319762
0.00319194
0.0031863
0.00318066
0.00317503
0.00316938
0.0031637
0.00315796
0.00315215
0.00314622
0.00314015
0.00313388
0.00312739
0.00312064
0.00311358
0.00310613
0.00309813
0.00308941
0.00307916
0.00306764
0.00304396
0.0064792
0.00600223
0.00563527
0.00534259
0.00510354
0.0049048
0.00473718
0.00459413
0.00447079
0.00436355
0.00426963
0.00418686
0.00411348
0.00404806
0.00398943
0.00393664
0.0038889
0.00384554
0.00380602
0.00376988
0.00373671
0.00370619
0.00367804
0.003652
0.00362786
0.00360545
0.00358461
0.00356518
0.00354706
0.00353012
0.00351428
0.00349943
0.00348551
0.00347242
0.00346011
0.00344851
0.00343756
0.00342719
0.00341735
0.00340799
0.00339906
0.00339051
0.00338229
0.00337436
0.00336667
0.00335919
0.00335191
0.00334481
0.00333785
0.00333103
0.00332433
0.00331773
0.00331124
0.00330483
0.00329852
0.00329229
0.00328614
0.00328008
0.0032741
0.00326821
0.00326241
0.00325669
0.00325106
0.00324551
0.00324005
0.00323468
0.00322939
0.00322418
0.00321904
0.00321399
0.003209
0.00320409
0.00319923
0.00319443
0.00318966
0.00318493
0.0031802
0.00317546
0.00317067
0.00316579
0.00316077
0.00315558
0.00315021
0.00314464
0.00313882
0.00313265
0.00312597
0.00311809
0.00310926
0.00309033
0.00647923
0.00600226
0.00563528
0.00534256
0.00510344
0.00490462
0.0047369
0.00459372
0.00447026
0.0043629
0.00426893
0.0041862
0.00411288
0.00404753
0.00398896
0.00393621
0.00388846
0.00384508
0.00380551
0.0037693
0.00373605
0.00370544
0.00367719
0.00365107
0.00362688
0.00360443
0.00358357
0.00356417
0.00354611
0.00352928
0.00351359
0.00349895
0.00348525
0.00347243
0.00346041
0.00344915
0.00343856
0.00342859
0.00341917
0.00341024
0.00340175
0.00339364
0.00338586
0.00337837
0.00337112
0.00336407
0.00335721
0.00335051
0.00334395
0.0033375
0.00333117
0.00332496
0.00331884
0.00331283
0.00330692
0.00330111
0.00329541
0.00328981
0.00328431
0.00327892
0.00327364
0.00326847
0.0032634
0.00325843
0.00325357
0.00324881
0.00324415
0.00323958
0.0032351
0.0032307
0.00322637
0.0032221
0.00321789
0.00321372
0.00320958
0.00320545
0.0032013
0.00319711
0.00319285
0.00318844
0.00318384
0.003179
0.00317395
0.00316868
0.00316315
0.00315732
0.00315118
0.00314449
0.00313842
0.00312698
0.00647926
0.00600229
0.00563528
0.0053425
0.00510331
0.00490436
0.00473647
0.00459305
0.00446922
0.00436141
0.00426766
0.00418589
0.00411387
0.00404976
0.00399211
0.00393983
0.00389211
0.00384834
0.00380803
0.00377084
0.00373647
0.00370468
0.00367526
0.00364804
0.00362286
0.00359958
0.00357806
0.00355816
0.00353976
0.00352275
0.00350699
0.0034924
0.00347888
0.00346634
0.0034547
0.00344386
0.00343375
0.00342429
0.00341536
0.00340689
0.00339881
0.00339106
0.00338359
0.00337635
0.00336931
0.00336244
0.00335574
0.00334919
0.0033428
0.00333654
0.0033304
0.00332438
0.00331847
0.00331266
0.00330697
0.00330138
0.0032959
0.00329053
0.00328527
0.00328013
0.00327509
0.00327016
0.00326534
0.00326063
0.00325602
0.00325151
0.0032471
0.00324278
0.00323855
0.0032344
0.00323032
0.0032263
0.00322235
0.00321843
0.00321456
0.0032107
0.00320685
0.00320297
0.00319902
0.00319488
0.00319042
0.0031857
0.00318081
0.00317576
0.00317052
0.00316505
0.00315933
0.00315323
0.00314781
0.00313933
0.0064793
0.00600232
0.00563527
0.00534244
0.00510317
0.0049041
0.00473605
0.0045924
0.00446824
0.0043602
0.00432645
0.00430888
0.00428295
0.00424419
0.00419475
0.00413838
0.00407853
0.0040179
0.00395839
0.0039013
0.00384745
0.0037973
0.00375108
0.00370883
0.00367049
0.00363588
0.00360472
0.00357667
0.00355132
0.00352824
0.00350697
0.00348697
0.00347005
0.00345571
0.00344335
0.00343249
0.00342275
0.00341385
0.00340558
0.00339778
0.00339032
0.00338311
0.00337608
0.00336923
0.00336272
0.00335662
0.00335091
0.00334555
0.00334048
0.00333567
0.00333106
0.00332663
0.00332235
0.00331821
0.0033142
0.00331032
0.00330655
0.0033029
0.00329935
0.00329591
0.00329258
0.00328933
0.00328619
0.00328313
0.00328015
0.00327726
0.00327444
0.0032717
0.00326903
0.00326642
0.00326389
0.00326141
0.00325898
0.00325659
0.00325423
0.00325189
0.00324955
0.00324718
0.00324477
0.00324217
0.00323263
0.00322154
0.00321068
0.00320054
0.00319117
0.0031824
0.00317407
0.00316581
0.00315842
0.00314821
0.00647933
0.00600234
0.00563526
0.00534237
0.00510298
0.00490372
0.00473532
0.00459102
0.00446506
0.00436349
0.00768945
0.0084107
0.00839795
0.00814002
0.00781605
0.00749377
0.00719788
0.00693605
0.00670921
0.00651573
0.00635312
0.00621866
0.00610951
0.00602286
0.00595586
0.00590562
0.00586931
0.00584416
0.00582756
0.00581714
0.00581089
0.00580707
0.00580517
0.00580511
0.00580636
0.00580829
0.00581038
0.00581231
0.0058139
0.00581513
0.00581607
0.00581685
0.00581732
0.00581754
0.00581752
0.00581746
0.0058177
0.00581856
0.00582035
0.00582331
0.00582757
0.00583323
0.00584037
0.00584902
0.00585915
0.00587078
0.00588395
0.00589868
0.00591496
0.00593278
0.00595209
0.00597284
0.00599498
0.00601842
0.00604309
0.0060689
0.00609572
0.00612343
0.00615191
0.00618106
0.00621076
0.00624092
0.0062714
0.00630215
0.00633315
0.00636448
0.00639657
0.00643049
0.00647152
0.00651512
0.00521517
0.00444852
0.0039747
0.00367274
0.00347655
0.00334732
0.00326122
0.00320267
0.00316275
0.00312964
0.00647936
0.00600237
0.00563526
0.00534231
0.00510284
0.00490348
0.00473491
0.0045904
0.00446413
0.00436224
0.00769
0.00841304
0.00839859
0.00813643
0.00780674
0.00747783
0.00717485
0.00690581
0.00667188
0.00647166
0.00630285
0.00616289
0.00604913
0.00595887
0.00588934
0.00583772
0.00580114
0.00577672
0.00576171
0.00575355
0.00574993
0.00574889
0.00574882
0.00574848
0.00574697
0.00574363
0.00573804
0.00572991
0.00571909
0.00570552
0.00568923
0.00567034
0.00564936
0.0056265
0.00560195
0.005576
0.00554897
0.00552114
0.0054927
0.00546386
0.00543483
0.00540584
0.00537708
0.00534877
0.00532125
0.00529465
0.00526917
0.00524504
0.00522251
0.00520186
0.00518334
0.00516723
0.0051538
0.00514333
0.00513609
0.00513233
0.00513225
0.00513605
0.00514385
0.00515573
0.00517169
0.0051917
0.00521569
0.00524356
0.00527522
0.00531063
0.00535003
0.00539367
0.00544664
0.00549928
0.00458571
0.00402554
0.00366683
0.00343052
0.00327235
0.00316564
0.00309332
0.00304289
0.00300659
0.00296821
0.00647939
0.0060024
0.00563526
0.00534226
0.00510271
0.00490323
0.00473449
0.00458973
0.0044631
0.00436073
0.00768331
0.00840698
0.00839424
0.00813368
0.00780514
0.00747688
0.00717408
0.00690489
0.00667063
0.00647007
0.00630109
0.00616128
0.00604813
0.00595909
0.00589148
0.00584251
0.0058093
0.00578893
0.00577856
0.00577552
0.00577741
0.00578216
0.00578806
0.0057938
0.00579841
0.00580122
0.00580179
0.00579988
0.00579535
0.00578818
0.0057784
0.0057661
0.00575143
0.0057346
0.00571583
0.00569535
0.00567342
0.00565031
0.00562624
0.00560146
0.00557617
0.00555052
0.00552463
0.00549855
0.00547218
0.00544556
0.00541866
0.00539142
0.00536373
0.00533551
0.00530666
0.0052771
0.00524674
0.00521551
0.00518337
0.00515029
0.00511626
0.00508133
0.00504557
0.00500911
0.00497214
0.00493492
0.00489781
0.00486124
0.00482579
0.00479218
0.00476148
0.00473461
0.00471607
0.00469546
0.00394131
0.00349191
0.00321114
0.00302863
0.00290653
0.00282307
0.00276508
0.00272235
0.00269011
0.00264916
0.00647942
0.00600243
0.00563527
0.00534224
0.00510263
0.00490307
0.00473424
0.00458938
0.00446262
0.00436013
0.00768147
0.00840546
0.00839315
0.00813282
0.00780427
0.00747581
0.0071727
0.00690313
0.0066685
0.0064676
0.00629837
0.00615842
0.0060453
0.00595645
0.00588923
0.00584087
0.00580849
0.00578917
0.00578004
0.00577843
0.00578189
0.00578836
0.0057961
0.00580381
0.00581048
0.00581544
0.00581822
0.00581854
0.00581624
0.00581121
0.00580348
0.0057931
0.00578023
0.00576509
0.00574795
0.00572917
0.0057091
0.00568814
0.00566664
0.00564494
0.00562333
0.00560205
0.00558173
0.00556279
0.00554515
0.00552861
0.005513
0.00549819
0.00548406
0.00547055
0.00545765
0.00544538
0.00543372
0.00542257
0.00541182
0.00540132
0.00539093
0.00538051
0.0053699
0.00535892
0.00534739
0.0053351
0.00532186
0.00530752
0.00529198
0.00527524
0.00525769
0.00524011
0.00522734
0.00522272
0.00441415
0.0039506
0.0036638
0.00347198
0.00334362
0.00325086
0.00317733
0.00311198
0.0030493
0.0029661
0.00647945
0.00600246
0.00563529
0.00534222
0.00510258
0.00490296
0.00473405
0.0045891
0.00446223
0.00435961
0.00767902
0.00840271
0.00839049
0.00813032
0.00780192
0.00747354
0.00717042
0.00690076
0.00666599
0.00646494
0.00629557
0.00615553
0.00604239
0.00595364
0.00588663
0.00583859
0.00580666
0.0057879
0.00577945
0.00577859
0.0057829
0.00579028
0.00579901
0.00580777
0.00581556
0.00582166
0.00582559
0.00582701
0.00582568
0.00582144
0.00581423
0.00580402
0.00579094
0.0057752
0.00575713
0.00573711
0.00571556
0.00569295
0.00566968
0.00564614
0.00562266
0.00559951
0.00557689
0.00555496
0.00553381
0.00551352
0.00549414
0.00547568
0.00545852
0.00544281
0.00542838
0.00541504
0.00540263
0.00539107
0.00538028
0.0053703
0.0053612
0.00535305
0.00534588
0.00533974
0.0053347
0.00533086
0.00532831
0.00532717
0.00532762
0.00532994
0.0053347
0.00534278
0.00535891
0.00538538
0.00455177
0.00408724
0.00381329
0.00364249
0.00352931
0.00344888
0.00338682
0.00333321
0.00328
0.0032075
0.00647948
0.00600249
0.00563531
0.00534223
0.00510255
0.0049029
0.00473396
0.00458896
0.00446204
0.00435936
0.00767753
0.00840077
0.00838826
0.00812784
0.00779919
0.00747057
0.00716722
0.00689737
0.00666243
0.00646126
0.00629182
0.00615177
0.0060387
0.00595008
0.00588328
0.00583553
0.00580393
0.00578554
0.00577749
0.00577706
0.0057818
0.00578964
0.00579887
0.00580818
0.00581656
0.00582331
0.00582791
0.00582997
0.00582916
0.00582521
0.0058179
0.00580714
0.00579296
0.00577558
0.00575538
0.0057328
0.0057084
0.00568271
0.00565625
0.00562947
0.00560273
0.00557634
0.0055505
0.00552538
0.00550107
0.00547763
0.00545502
0.00543322
0.0054122
0.00539191
0.00537232
0.00535335
0.00533497
0.00531711
0.00529971
0.00528275
0.00526617
0.00524998
0.00523418
0.00521877
0.00520377
0.00518923
0.00517522
0.00516185
0.00514925
0.00513766
0.00512758
0.00511954
0.0051196
0.00513406
0.00436304
0.00393126
0.00367421
0.00351167
0.00340207
0.00332266
0.00326004
0.00320436
0.00315055
0.00309052
0.00647951
0.00600253
0.00563535
0.00534225
0.00510257
0.00490291
0.00473396
0.00458896
0.00446205
0.00435938
0.00767707
0.00839977
0.00838662
0.00812553
0.00779623
0.00746701
0.00716315
0.00689288
0.00665766
0.00645633
0.00628685
0.0061469
0.00603404
0.00594572
0.00587929
0.00583193
0.0058007
0.00578264
0.00577483
0.00577455
0.00577938
0.00578726
0.00579656
0.00580599
0.00581464
0.00582182
0.005827
0.00582972
0.00582955
0.005826
0.00581865
0.00580721
0.00579161
0.00577205
0.00574898
0.00572299
0.00569478
0.00566506
0.00563444
0.00560346
0.00557256
0.00554206
0.00551215
0.00548299
0.0054546
0.00542701
0.00540017
0.00537402
0.00534842
0.00532328
0.00529848
0.0052739
0.00524944
0.00522497
0.00520041
0.00517565
0.00515062
0.00512525
0.00509951
0.00507335
0.00504679
0.00501982
0.0049925
0.0049649
0.00493712
0.00490936
0.00488198
0.00485517
0.00483207
0.00480334
0.00404911
0.00361602
0.00335594
0.00319143
0.0030805
0.00299967
0.00293553
0.00287865
0.00282531
0.00275172
0.00647954
0.00600257
0.00563538
0.00534229
0.0051026
0.00490295
0.00473401
0.00458902
0.00446213
0.00435946
0.00767574
0.00839718
0.00838299
0.0081212
0.00779149
0.00746208
0.00715822
0.0068881
0.00665313
0.00645219
0.00628325
0.00614401
0.00603206
0.00594484
0.00587965
0.00583361
0.00580372
0.00578693
0.00578029
0.0057811
0.005787
0.00579606
0.00580675
0.00581797
0.00582887
0.00583882
0.00584724
0.00585352
0.00585687
0.00585639
0.00585121
0.00584065
0.00582449
0.00580301
0.00577692
0.00574719
0.00571491
0.00568115
0.00564681
0.00561264
0.00557919
0.0055468
0.00551569
0.0054859
0.00545743
0.00543018
0.00540402
0.00537878
0.00535431
0.00533046
0.00530709
0.00528404
0.00526119
0.00523839
0.00521553
0.00519252
0.00516927
0.00514574
0.0051219
0.00509775
0.00507332
0.00504866
0.0050239
0.00499917
0.00497472
0.00495087
0.00492821
0.00490721
0.00489158
0.00487121
0.00409687
0.0036443
0.00336674
0.00318797
0.00306672
0.00297988
0.00291395
0.00285919
0.00281139
0.00274879
0.00647957
0.00600261
0.00563543
0.00534234
0.00510268
0.00490308
0.00473423
0.0045894
0.00446277
0.00436046
0.0076796
0.00839963
0.00838323
0.00811936
0.00778808
0.00745787
0.0071542
0.00688548
0.00665335
0.00645687
0.00629414
0.00616282
0.0060603
0.00598367
0.00592975
0.00589519
0.00587655
0.00587051
0.00587402
0.00588446
0.00589965
0.00591792
0.005938
0.00595897
0.0059801
0.00600067
0.00601986
0.00603655
0.00604926
0.00605612
0.00605532
0.00604553
0.00602632
0.0059983
0.00596289
0.00592205
0.00587791
0.0058325
0.00578759
0.00574459
0.00570448
0.00566787
0.00563504
0.00560602
0.00558062
0.00555854
0.00553941
0.00552288
0.0055086
0.00549624
0.00548543
0.00547582
0.0054671
0.00545903
0.0054514
0.00544408
0.00543699
0.00543011
0.00542347
0.00541713
0.00541118
0.00540579
0.00540111
0.0053974
0.00539495
0.00539415
0.00539572
0.00540047
0.00541305
0.00542549
0.00454105
0.0040169
0.00368872
0.00347375
0.00332714
0.00322506
0.00315147
0.00309523
0.00305013
0.00299954
0.0064796
0.00600265
0.00563548
0.0053424
0.00510276
0.0049032
0.00473442
0.00458971
0.00446327
0.00436108
0.00767467
0.00839178
0.00837679
0.0081167
0.00779338
0.00747703
0.00719419
0.0069536
0.0067564
0.00660039
0.0064818
0.00639603
0.00633819
0.00630338
0.00628697
0.00628477
0.00629319
0.00630925
0.00633065
0.00635564
0.00638298
0.00641185
0.00644172
0.00647224
0.00650309
0.00653386
0.00656381
0.0065917
0.00661556
0.00663259
0.00663957
0.00663375
0.0066135
0.00657874
0.0065308
0.00647209
0.00640564
0.00633474
0.00626266
0.00619242
0.00612665
0.00606748
0.00601645
0.00597451
0.00594198
0.00591868
0.0059039
0.00589747
0.00589858
0.00590545
0.0059162
0.00592922
0.00594336
0.00595782
0.00597212
0.00598602
0.00599941
0.00601232
0.00602482
0.00603705
0.00604915
0.0060613
0.00607369
0.00608655
0.00610016
0.00611492
0.00613159
0.00615148
0.00618013
0.00621495
0.00505424
0.00437402
0.00395431
0.00368518
0.00350736
0.00338672
0.00330265
0.00324171
0.00319584
0.00315232
0.00647963
0.00600269
0.00563553
0.00534248
0.0051029
0.00490345
0.00473495
0.00459079
0.00446607
0.00435734
0.00428081
0.00421421
0.00414601
0.00408245
0.00402297
0.00396736
0.00391557
0.00386752
0.00382315
0.0037823
0.00374484
0.00371057
0.00367931
0.00365086
0.00362504
0.00360164
0.00358049
0.0035614
0.00354423
0.00352884
0.00351511
0.00350295
0.00349231
0.00348315
0.00347548
0.00346933
0.00346471
0.00346161
0.00345994
0.00345943
0.00345963
0.00345997
0.00345989
0.00345891
0.00345672
0.0034531
0.00344798
0.00344149
0.0034338
0.00342517
0.00341586
0.00340613
0.00339623
0.00338641
0.00337685
0.00336773
0.00335917
0.00335126
0.00334404
0.00333753
0.0033317
0.0033265
0.00332188
0.00331774
0.00331403
0.00331065
0.00330753
0.0033046
0.0033018
0.00329907
0.00329636
0.00329364
0.00329086
0.003288
0.00328504
0.00328196
0.00327874
0.00327536
0.0032718
0.00326791
0.00325818
0.00324695
0.00323574
0.00322497
0.00321471
0.00320483
0.00319525
0.00318557
0.00317658
0.00316377
0.00647966
0.00600273
0.00563558
0.00534254
0.00510298
0.00490357
0.00473513
0.00459107
0.00446653
0.00435792
0.00426275
0.00417891
0.00410452
0.00403805
0.00397831
0.00392432
0.0038753
0.00383061
0.00378973
0.00375223
0.00371774
0.00368598
0.00365668
0.00362964
0.00360468
0.00358166
0.00356044
0.00354092
0.00352302
0.00350666
0.00349179
0.0034784
0.00346649
0.00345608
0.00344727
0.00344016
0.00343489
0.00343155
0.00343012
0.00343032
0.00343154
0.00343301
0.00343397
0.00343381
0.00343219
0.00342898
0.00342423
0.00341806
0.00341069
0.00340235
0.0033933
0.00338376
0.00337395
0.00336405
0.00335422
0.00334459
0.00333528
0.00332637
0.00331792
0.00330998
0.00330257
0.00329568
0.00328932
0.00328345
0.00327804
0.00327305
0.00326843
0.00326412
0.00326009
0.00325628
0.00325263
0.00324912
0.0032457
0.00324233
0.00323897
0.0032356
0.00323219
0.00322869
0.00322507
0.00322121
0.00321697
0.00321242
0.00320762
0.00320262
0.00319741
0.00319195
0.00318623
0.00318007
0.00317436
0.00316495
0.00647969
0.00600277
0.00563562
0.00534259
0.00510305
0.00490368
0.00473532
0.00459141
0.00446711
0.00435882
0.00426382
0.00417995
0.0041054
0.00403871
0.00397872
0.00392447
0.00387517
0.0038302
0.00378901
0.00375117
0.00371631
0.00368413
0.00365438
0.00362685
0.00360136
0.00357777
0.00355596
0.00353582
0.00351728
0.00350028
0.00348477
0.00347076
0.00345826
0.00344736
0.0034382
0.00343098
0.00342601
0.00342355
0.00342381
0.00342647
0.00343064
0.00343515
0.00343885
0.00344087
0.00344076
0.00343841
0.0034339
0.00342745
0.00341937
0.00340998
0.00339969
0.00338877
0.00337749
0.00336602
0.0033546
0.00334346
0.00333275
0.00332261
0.00331313
0.00330435
0.00329632
0.00328902
0.00328244
0.00327656
0.00327132
0.00326666
0.00326254
0.00325889
0.00325564
0.00325272
0.00325007
0.00324763
0.00324535
0.00324317
0.00324104
0.0032389
0.00323672
0.00323444
0.00323201
0.00322934
0.00322638
0.00322307
0.00321944
0.00321547
0.00321112
0.00320633
0.00320102
0.00319481
0.00318817
0.00317485
0.00647972
0.0060028
0.00563566
0.00534262
0.00510307
0.0049037
0.00473534
0.00459142
0.00446711
0.00435876
0.00426363
0.00417953
0.0041047
0.00403771
0.00397742
0.00392286
0.00387327
0.00382798
0.00378648
0.00374831
0.00371311
0.00368058
0.00365047
0.00362256
0.00359669
0.0035727
0.00355049
0.00352995
0.003511
0.00349359
0.00347767
0.00346324
0.00345033
0.00343906
0.00342962
0.00342236
0.00341778
0.00341652
0.00341928
0.0034259
0.00343514
0.00344515
0.00345393
0.00346013
0.00346314
0.00346287
0.00345952
0.0034535
0.00344525
0.00343541
0.00342449
0.00341287
0.0034009
0.00338889
0.00337709
0.00336573
0.00335501
0.00334507
0.00333603
0.00332794
0.00332085
0.00331476
0.00330964
0.00330542
0.00330201
0.00329933
0.00329724
0.00329561
0.00329432
0.00329322
0.00329221
0.00329115
0.00328994
0.0032885
0.00328673
0.00328459
0.00328201
0.00327896
0.0032754
0.00327129
0.0032666
0.0032613
0.0032554
0.00324889
0.00324176
0.00323394
0.00322536
0.00321552
0.00320468
0.00318572
0.00647975
0.00600284
0.00563569
0.00534264
0.00510308
0.00490369
0.00473531
0.00459137
0.00446704
0.00435866
0.00426344
0.00417919
0.00410415
0.00403691
0.00397632
0.00392143
0.00387146
0.00382578
0.00378386
0.00374526
0.00370961
0.00367662
0.00364603
0.00361765
0.0035913
0.00356684
0.00354416
0.00352316
0.00350375
0.00348586
0.00346946
0.00345451
0.00344105
0.00342919
0.00341916
0.00341146
0.00340685
0.00340667
0.00341331
0.00342806
0.00344967
0.00347435
0.00349751
0.00351636
0.0035298
0.00353776
0.00354076
0.00353959
0.00353511
0.00352833
0.00352086
0.00351329
0.00350609
0.00349961
0.00349413
0.00348982
0.00348675
0.00348492
0.00348423
0.00348451
0.00348554
0.00348707
0.00348882
0.00349052
0.00349192
0.00349279
0.00349295
0.00349224
0.00349054
0.0034878
0.00348396
0.00347903
0.00347301
0.00346596
0.00345793
0.00344898
0.00343917
0.00342859
0.00341728
0.00340532
0.00339274
0.00337959
0.00336591
0.00335171
0.00333701
0.00332175
0.00330584
0.00328878
0.00327078
0.00324481
0.00647978
0.00600287
0.00563571
0.00534264
0.00510305
0.00490362
0.00473519
0.00459119
0.00446676
0.00435826
0.00426287
0.0041784
0.0041031
0.00403556
0.00397463
0.00391938
0.00386902
0.00382293
0.00378057
0.00374151
0.00370537
0.00367188
0.00364077
0.00361186
0.00358498
0.00356
0.0035368
0.00351528
0.00349535
0.00347693
0.00345996
0.00344438
0.0034302
0.0034175
0.00340648
0.00339779
0.00339245
0.00339323
0.00341059
0.00345458
0.00352368
0.00360304
0.00367741
0.00374085
0.0037918
0.00383113
0.00386069
0.00388246
0.00389826
0.0039094
0.0039178
0.0039254
0.00393176
0.00393648
0.00393926
0.00393993
0.00393845
0.00393485
0.00392925
0.0039218
0.00391265
0.00390196
0.00388988
0.00387653
0.00386203
0.00384649
0.00383001
0.00381267
0.00379458
0.0037758
0.00375643
0.00373654
0.00371621
0.00369552
0.00367454
0.00365333
0.00363196
0.00361048
0.00358894
0.00356736
0.00354577
0.00352418
0.0035026
0.00348101
0.00345938
0.00343761
0.00341559
0.00339281
0.0033693
0.00333894
0.00647981
0.0060029
0.00563572
0.00534263
0.005103
0.00490353
0.00473503
0.00459095
0.00446643
0.00435779
0.00426224
0.00417757
0.00410201
0.00403418
0.00397291
0.00391728
0.0038665
0.00381994
0.00377707
0.00373746
0.00370075
0.00366664
0.00363491
0.00360536
0.00357784
0.00355223
0.0035284
0.00350627
0.00348572
0.00346668
0.00344903
0.00343269
0.00341758
0.00340368
0.00339104
0.00338034
0.00337264
0.00337425
0.00344253
0.0036244
0.00388646
0.00414772
0.00436101
0.0045214
0.0046333
0.00470553
0.00474671
0.00476422
0.00476414
0.00475136
0.00472832
0.00469764
0.00466101
0.00462018
0.00457671
0.00453193
0.00448683
0.00444214
0.00439832
0.00435565
0.00431424
0.00427412
0.00423524
0.00419752
0.00416087
0.00412518
0.00409036
0.00405635
0.00402307
0.00399049
0.00395856
0.00392728
0.00389662
0.00386658
0.00383716
0.00380835
0.00378016
0.00375259
0.00372562
0.00369924
0.00367342
0.00364815
0.00362339
0.0035991
0.00357516
0.00355156
0.00352813
0.00350442
0.00348018
0.0034508
0.00647984
0.00600293
0.00563573
0.00534261
0.00510294
0.0049034
0.00473483
0.00459065
0.004466
0.00435721
0.00426146
0.00417655
0.00410071
0.00403255
0.00397091
0.00391486
0.00386361
0.00381654
0.0037731
0.00373288
0.00369551
0.00366071
0.00362825
0.00359796
0.00356969
0.00354334
0.00351879
0.00349596
0.00347473
0.003455
0.00343665
0.00341955
0.00340354
0.00338848
0.00337411
0.00336101
0.00334962
0.00335872
0.00369423
0.00437827
0.00507835
0.00557346
0.00585087
0.00596849
0.00597617
0.00591533
0.00581554
0.00569659
0.00557082
0.00544532
0.00532365
0.00520712
0.0050979
0.0049969
0.00490423
0.00481948
0.00474197
0.0046709
0.00460545
0.00454486
0.00448842
0.00443555
0.00438574
0.00433855
0.00429365
0.00425077
0.00420969
0.00417025
0.00413233
0.00409584
0.0040607
0.00402689
0.00399439
0.00396317
0.00393319
0.00390443
0.00387687
0.00385045
0.0038252
0.00380108
0.00377788
0.00375545
0.00373365
0.00371237
0.00369148
0.0036707
0.00364973
0.0036284
0.00360662
0.00358143
0.00647986
0.00600295
0.00563574
0.00534258
0.00510286
0.00490325
0.0047346
0.00459031
0.00446552
0.00435657
0.00426062
0.00417546
0.00409934
0.00403084
0.00396881
0.00391231
0.00386055
0.0038129
0.00376882
0.00372789
0.00368975
0.00365412
0.00362079
0.00358961
0.00356044
0.0035332
0.00350781
0.00348417
0.00346216
0.00344168
0.00342259
0.00340474
0.00338791
0.0033718
0.00335559
0.0033393
0.00332029
0.00336346
0.00460817
0.00604628
0.00697157
0.00736161
0.00737652
0.00718352
0.00689712
0.00658576
0.00628578
0.00601355
0.00577435
0.00556773
0.00539084
0.00523983
0.00511069
0.00499948
0.00490283
0.00481823
0.00474455
0.00467843
0.00461771
0.0045611
0.00450783
0.00445738
0.0044094
0.00436368
0.00432005
0.00427841
0.00423872
0.00420095
0.0041651
0.00413117
0.00409916
0.00406899
0.00404062
0.004014
0.00398905
0.00396566
0.00394371
0.00392306
0.00390355
0.00388501
0.0038673
0.00385026
0.00383375
0.00381764
0.00380177
0.003786
0.0037699
0.00375313
0.00373348
0.00371083
0.00647988
0.00600297
0.00563574
0.00534254
0.00510277
0.00490309
0.00473434
0.00458994
0.004465
0.00435587
0.0042597
0.00417429
0.00409786
0.00402899
0.00396654
0.00390954
0.00385722
0.00380893
0.00376412
0.00372238
0.00368334
0.00364674
0.00361238
0.00358013
0.0035499
0.00352162
0.00349524
0.00347068
0.00344783
0.00342658
0.00340683
0.00338856
0.0033717
0.00335621
0.00334138
0.00332726
0.00330994
0.00335778
0.00470839
0.00623846
0.00721038
0.00758052
0.0075762
0.0073624
0.00704776
0.00670323
0.00636882
0.00606379
0.00579535
0.00556424
0.00536799
0.00520286
0.00506532
0.00495238
0.00485695
0.0047743
0.00470121
0.00463537
0.00457515
0.00451939
0.00446725
0.00441815
0.00437168
0.00432755
0.00428561
0.00424577
0.00420803