/*--------------------------------*- C++ -*----------------------------------*\
| =========                 |                                                 |
| \\      /  F ield         | OpenFOAM: The Open Source CFD Toolbox           |
|  \\    /   O peration     | Version:  v2012                                 |
|   \\  /    A nd           | Website:  www.openfoam.com                      |
|    \\/     M anipulation  |                                                 |
\*---------------------------------------------------------------------------*/
FoamFile
{
    version     2.0;
    format      ascii;
    class       volScalarField;
    location    "350/air";
    object      epsilon;
}
// * * * * * * * * * * * * * * * * * * * * * * * * * * * * * * * * * * * * * //

dimensions      [0 2 -3 0 0 0 0];


internalField   nonuniform List<scalar> 
287104
(
0.0965287
0.0769507
0.0638409
0.0545275
0.0476344
0.0423707
0.0382489
0.0349533
0.0322714
0.0300559
0.0282015
0.0266318
0.0252897
0.0241319
0.0231251
0.0222434
0.0214662
0.0207771
0.0201627
0.0196123
0.0191168
0.0186689
0.0182624
0.0178922
0.0175537
0.0172433
0.0169577
0.0166943
0.0164505
0.0162242
0.0160137
0.0158173
0.0156336
0.0154613
0.0152993
0.0151465
0.0150019
0.0148649
0.0147346
0.0146103
0.0144914
0.0143773
0.0142676
0.0141618
0.0140594
0.0139601
0.0138637
0.0137697
0.013678
0.0135884
0.0135007
0.0134147
0.0133304
0.0132475
0.0131661
0.0130861
0.0130073
0.0129299
0.0128536
0.0127786
0.0127047
0.012632
0.0125604
0.0124899
0.0124204
0.012352
0.0122845
0.012218
0.0121523
0.0120875
0.0120233
0.0119598
0.0118968
0.0118342
0.0117719
0.0117098
0.0116476
0.0115852
0.0115224
0.0114588
0.0113941
0.0113279
0.0112596
0.0111882
0.0111126
0.0110305
0.0109393
0.010829
0.0107031
0.0104335
0.0965229
0.0769403
0.0638273
0.0545119
0.0476175
0.042353
0.0382306
0.0349346
0.0322525
0.0300369
0.0281826
0.026613
0.0252711
0.0241137
0.0231074
0.0222262
0.0214495
0.0207609
0.0201471
0.0195971
0.0191022
0.0186548
0.0182489
0.0178792
0.0175413
0.0172314
0.0169465
0.0166837
0.0164406
0.0162151
0.0160054
0.01581
0.0156272
0.015456
0.0152951
0.0151435
0.0150003
0.0148646
0.0147357
0.0146128
0.0144954
0.0143828
0.0142746
0.0141702
0.0140693
0.0139715
0.0138764
0.0137837
0.0136932
0.0136047
0.013518
0.013433
0.0133494
0.0132673
0.0131865
0.013107
0.0130286
0.0129515
0.0128755
0.0128006
0.0127268
0.012654
0.0125824
0.0125117
0.012442
0.0123732
0.0123054
0.0122385
0.0121723
0.0121069
0.0120421
0.0119779
0.0119142
0.0118509
0.0117877
0.0117247
0.0116615
0.011598
0.011534
0.0114691
0.011403
0.0113353
0.0112654
0.0111924
0.0111152
0.0110314
0.0109386
0.0108268
0.0106998
0.0104313
0.0965205
0.0769358
0.0638215
0.0545051
0.0476099
0.0423446
0.0382217
0.0349253
0.0322428
0.0300269
0.0281725
0.026603
0.0252612
0.024104
0.0230979
0.022217
0.0214406
0.0207524
0.0201388
0.0195893
0.0190947
0.0186476
0.0182421
0.0178727
0.0175352
0.0172259
0.0169414
0.0166791
0.0164366
0.0162118
0.0160029
0.0158082
0.0156264
0.0154561
0.0152962
0.0151457
0.0150036
0.0148692
0.0147416
0.01462
0.014504
0.0143929
0.0142861
0.0141832
0.0140837
0.0139873
0.0138937
0.0138025
0.0137134
0.0136264
0.0135411
0.0134574
0.0133752
0.0132945
0.013215
0.0131369
0.0130599
0.0129841
0.0129095
0.0128361
0.0127637
0.0126924
0.0126222
0.0125531
0.0124849
0.0124178
0.0123516
0.0122863
0.0122219
0.0121582
0.0120953
0.0120329
0.0119711
0.0119097
0.0118485
0.0117875
0.0117263
0.0116649
0.0116029
0.0115402
0.0114762
0.0114107
0.0113429
0.0112722
0.0111973
0.0111161
0.0110261
0.0109179
0.0107949
0.0105353
0.0965182
0.076931
0.0638147
0.0544966
0.0476
0.0423335
0.0382095
0.0349122
0.0322289
0.0300124
0.0281577
0.026588
0.0252463
0.0240892
0.0230834
0.0222028
0.0214268
0.0207388
0.0201255
0.0195762
0.0190818
0.018635
0.0182296
0.0178604
0.0175232
0.0172141
0.0169299
0.016668
0.016426
0.0162017
0.0159934
0.0157995
0.0156184
0.0154491
0.0152902
0.0151409
0.015
0.0148669
0.0147406
0.0146205
0.0145059
0.0143962
0.0142909
0.0141894
0.0140914
0.0139964
0.0139041
0.0138141
0.0137262
0.0136402
0.013556
0.0134732
0.0133919
0.0133119
0.0132331
0.0131555
0.0130791
0.0130038
0.0129296
0.0128564
0.0127843
0.0127133
0.0126433
0.0125743
0.0125063
0.0124392
0.012373
0.0123077
0.0122431
0.0121793
0.0121162
0.0120535
0.0119914
0.0119295
0.0118678
0.0118061
0.0117442
0.0116819
0.0116188
0.0115547
0.0114892
0.0114219
0.0113523
0.0112795
0.0112024
0.011119
0.0110269
0.0109167
0.0107921
0.0105323
0.096516
0.0769268
0.0638089
0.0544895
0.0475916
0.042324
0.038199
0.0349006
0.0322165
0.0299992
0.028144
0.0265741
0.0252325
0.0240756
0.0230701
0.0221899
0.0214142
0.0207266
0.0201137
0.0195646
0.0190705
0.0186239
0.0182188
0.0178499
0.0175129
0.0172042
0.0169204
0.0166589
0.0164174
0.0161938
0.0159862
0.0157931
0.015613
0.0154448
0.0152871
0.0151391
0.0149997
0.014868
0.0147433
0.0146249
0.014512
0.0144041
0.0143005
0.0142008
0.0141045
0.0140111
0.0139204
0.0138319
0.0137456
0.013661
0.013578
0.0134965
0.0134164
0.0133375
0.0132598
0.0131832
0.0131077
0.0130333
0.01296
0.0128876
0.0128163
0.012746
0.0126767
0.0126083
0.0125409
0.0124743
0.0124086
0.0123437
0.0122794
0.0122158
0.0121528
0.0120901
0.0120277
0.0119655
0.0119033
0.0118408
0.011778
0.0117144
0.0116498
0.0115837
0.0115159
0.0114459
0.0113731
0.0112968
0.0112159
0.0111287
0.0110327
0.010919
0.0107912
0.0105295
0.0965139
0.0769224
0.0638027
0.0544816
0.0475822
0.0423131
0.0381866
0.0348869
0.0322016
0.0299835
0.0281278
0.0265581
0.0252169
0.0240606
0.0230558
0.0221761
0.0214009
0.0207136
0.0201009
0.019552
0.019058
0.0186115
0.0182064
0.0178376
0.0175008
0.0171923
0.0169088
0.0166478
0.0164069
0.016184
0.0159773
0.0157854
0.0156066
0.0154398
0.0152839
0.0151377
0.0150003
0.0148709
0.0147486
0.0146326
0.0145223
0.0144171
0.0143162
0.0142192
0.0141256
0.014035
0.013947
0.0138612
0.0137774
0.0136954
0.013615
0.013536
0.0134582
0.0133817
0.0133063
0.0132321
0.0131589
0.0130867
0.0130156
0.0129456
0.0128765
0.0128085
0.0127415
0.0126754
0.0126103
0.0125461
0.0124826
0.01242
0.0123581
0.0122967
0.0122358
0.0121754
0.0121151
0.012055
0.0119948
0.0119344
0.0118734
0.0118117
0.0117488
0.0116844
0.011618
0.0115493
0.0114779
0.0114032
0.0113245
0.0112401
0.0111481
0.0110401
0.0109194
0.0106714
0.0965118
0.0769182
0.0637966
0.0544738
0.0475727
0.0423018
0.0381733
0.0348715
0.0321841
0.029964
0.028107
0.0265368
0.0251957
0.02404
0.0230358
0.0221569
0.0213824
0.0206957
0.0200835
0.019535
0.0190413
0.0185951
0.0181903
0.0178218
0.0174854
0.0171774
0.0168946
0.0166345
0.0163946
0.0161731
0.0159681
0.015778
0.0156015
0.0154373
0.0152842
0.0151412
0.0150072
0.0148815
0.0147632
0.0146514
0.0145454
0.0144446
0.0143483
0.0142558
0.0141665
0.01408
0.0139961
0.0139144
0.0138347
0.0137568
0.0136805
0.0136055
0.0135319
0.0134595
0.0133882
0.0133181
0.013249
0.0131811
0.0131143
0.0130485
0.0129839
0.0129203
0.0128579
0.0127965
0.0127362
0.0126769
0.0126187
0.0125614
0.012505
0.0124496
0.012395
0.0123412
0.0122881
0.0122356
0.0121836
0.0121319
0.0120803
0.0120284
0.0119761
0.0119227
0.0118678
0.0118109
0.0117521
0.0116911
0.0116273
0.0115599
0.0114866
0.0114003
0.0113041
0.0110993
0.0965097
0.0769139
0.0637904
0.0544656
0.0475626
0.0422896
0.0381589
0.0348548
0.0321649
0.029943
0.0280856
0.0265165
0.0251771
0.024023
0.02302
0.0221418
0.0213675
0.0206806
0.0200678
0.0195184
0.0190236
0.0185762
0.0181702
0.0178007
0.0174634
0.0171549
0.0168721
0.0166123
0.0163733
0.0161531
0.01595
0.0157625
0.0155886
0.0154273
0.0152774
0.0151379
0.0150078
0.014886
0.0147718
0.0146641
0.0145623
0.0144655
0.014373
0.0142842
0.0141986
0.0141157
0.0140351
0.0139565
0.0138797
0.0138045
0.0137306
0.0136581
0.0135868
0.0135167
0.0134479
0.0133803
0.0133139
0.0132487
0.0131848
0.0131221
0.0130606
0.0130004
0.0129414
0.0128835
0.0128269
0.0127714
0.012717
0.0126637
0.0126113
0.0125598
0.0125091
0.0124591
0.0124096
0.0123606
0.0123119
0.0122632
0.0122144
0.0121651
0.0121149
0.0120631
0.012009
0.0119525
0.0118936
0.0118323
0.0117685
0.0117015
0.0116315
0.0115561
0.0114897
0.0113668
0.0965076
0.0769096
0.063784
0.0544571
0.0475515
0.0422756
0.038141
0.0348318
0.032135
0.0299048
0.028053
0.0265032
0.025188
0.0240557
0.023068
0.022197
0.0214221
0.020728
0.0201031
0.0195384
0.0190265
0.0185616
0.0181387
0.0177537
0.0174029
0.0170828
0.0167907
0.0165238
0.0162798
0.0160564
0.0158517
0.0156638
0.0154912
0.0153323
0.0151859
0.0150506
0.014925
0.0148081
0.0146983
0.0145946
0.014496
0.0144016
0.0143109
0.0142231
0.0141378
0.0140547
0.0139736
0.0138944
0.013817
0.0137412
0.0136671
0.0135944
0.013523
0.013453
0.0133843
0.0133169
0.0132509
0.0131862
0.0131229
0.0130609
0.0130002
0.0129409
0.0128828
0.0128261
0.0127705
0.0127162
0.012663
0.0126109
0.0125598
0.0125096
0.0124603
0.0124118
0.0123639
0.0123166
0.0122697
0.012223
0.0121764
0.0121295
0.0120819
0.0120321
0.0119787
0.0119225
0.0118645
0.0118049
0.0117434
0.0116795
0.0116134
0.0115434
0.0114823
0.0113893
0.0965056
0.0769053
0.0637776
0.0544485
0.0475405
0.0422617
0.0381235
0.0348097
0.0321064
0.0298725
0.0292216
0.028904
0.028422
0.0276934
0.0267714
0.0257394
0.0246697
0.0236147
0.0226079
0.0216688
0.0208069
0.0200253
0.0193228
0.0186956
0.0181386
0.0176456
0.0172099
0.0168242
0.0164811
0.0161731
0.0158929
0.0156324
0.0154148
0.0152332
0.0150787
0.0149446
0.0148257
0.0147178
0.0146183
0.0145249
0.0144358
0.0143499
0.014266
0.0141842
0.0141065
0.0140338
0.0139658
0.013902
0.0138416
0.0137842
0.0137292
0.0136761
0.0136247
0.0135747
0.0135261
0.0134788
0.0134326
0.0133877
0.0133438
0.0133009
0.0132591
0.0132182
0.0131782
0.013139
0.0131007
0.0130632
0.0130264
0.0129903
0.0129549
0.0129202
0.0128861
0.0128526
0.0128195
0.0127868
0.0127544
0.0127222
0.0126898
0.012657
0.0126238
0.0125881
0.0124713
0.0123371
0.0122064
0.0120849
0.0119729
0.0118685
0.0117701
0.0116736
0.0115885
0.0114746
0.0965036
0.076901
0.0637711
0.0544394
0.0475281
0.0422446
0.0380986
0.0347711
0.0320308
0.029934
0.164218
0.215469
0.215066
0.196371
0.174294
0.153992
0.136786
0.12267
0.111256
0.102104
0.0948178
0.0890673
0.0845818
0.0811379
0.0785483
0.0766531
0.0753126
0.0744046
0.0738213
0.0734698
0.073273
0.0731657
0.0731266
0.0731539
0.0732291
0.0733294
0.0734358
0.0735359
0.0736237
0.0736983
0.0737625
0.0738214
0.0738687
0.0739067
0.0739348
0.073961
0.0739975
0.0740566
0.0741505
0.0742873
0.0744725
0.0747102
0.0750039
0.0753544
0.0757614
0.0762259
0.0767502
0.0773356
0.0779828
0.0786915
0.0794613
0.080291
0.0811791
0.0821237
0.0831224
0.0841725
0.0852702
0.0864111
0.0875914
0.0888077
0.0900559
0.0913315
0.0926306
0.0939505
0.0952916
0.0966573
0.0980689
0.0995755
0.101422
0.10336
0.0529396
0.0328153
0.0233791
0.0184243
0.0156092
0.0139174
0.0128577
0.0121661
0.0117082
0.0113391
0.0965016
0.0768969
0.0637649
0.0544311
0.0475175
0.0422311
0.0380815
0.0347497
0.0320035
0.029901
0.164204
0.215572
0.215028
0.196025
0.17359
0.152938
0.135412
0.121014
0.109359
0.100003
0.0925467
0.0866593
0.0820688
0.0785519
0.075921
0.0740154
0.0726946
0.0718336
0.0713209
0.0710582
0.0709603
0.0709549
0.0709836
0.0710014
0.0709756
0.0708831
0.0707078
0.07044
0.0700747
0.069611
0.0690512
0.0684017
0.0676827
0.0669014
0.0660671
0.0651911
0.0642857
0.0633614
0.0624256
0.0614857
0.0605493
0.0596237
0.0587154
0.0578316
0.0569812
0.0561682
0.0553976
0.0546757
0.0540092
0.0534046
0.0528683
0.0524071
0.0520279
0.0517374
0.0515424
0.0514491
0.0514634
0.0515905
0.0518346
0.0521983
0.0526838
0.053292
0.0540235
0.0548784
0.0558578
0.0569645
0.0582115
0.0596133
0.0613472
0.0630927
0.0365398
0.024684
0.0186282
0.0152306
0.0131993
0.0119318
0.0111164
0.010567
0.0101809
0.00978572
0.0964997
0.0768929
0.0637589
0.054423
0.047507
0.0422177
0.0380643
0.0347275
0.0319743
0.0298628
0.163731
0.215038
0.214617
0.195747
0.173408
0.152807
0.135299
0.120901
0.109236
0.0998692
0.0924106
0.0865335
0.0819708
0.0785024
0.0759435
0.0741348
0.0729355
0.0722195
0.071873
0.0717944
0.0718951
0.0720998
0.0723464
0.0725862
0.0727838
0.0729143
0.0729616
0.0729154
0.0727711
0.0725282
0.0721888
0.0717575
0.0712409
0.0706467
0.0699841
0.0692633
0.0684951
0.0676896
0.0668564
0.0660046
0.0651418
0.0642739
0.0634049
0.0625366
0.0616664
0.0607957
0.0599241
0.0590492
0.0581683
0.0572788
0.0563784
0.0554649
0.0545364
0.0535918
0.0526305
0.0516527
0.0506595
0.049653
0.0486364
0.0476142
0.0465927
0.0455796
0.0445845
0.0436191
0.0426979
0.0418382
0.0410653
0.0403997
0.039952
0.0394528
0.0233384
0.016228
0.0126141
0.0105769
0.00934185
0.00855326
0.00803028
0.00765754
0.00738576
0.00704954
0.0964978
0.076889
0.0637533
0.0544157
0.0474979
0.0422068
0.0380513
0.0347123
0.0319568
0.0298433
0.163568
0.214853
0.214457
0.195607
0.173274
0.15267
0.135153
0.120743
0.109068
0.0996949
0.0922328
0.0863566
0.0817998
0.0783429
0.0758017
0.0740174
0.0728495
0.0721718
0.0718706
0.0718437
0.0720021
0.0722696
0.072584
0.0728967
0.0731713
0.0733823
0.0735121
0.0735488
0.0734859
0.073321
0.0730548
0.0726908
0.0722353
0.0716964
0.0710856
0.070417
0.0697055
0.0689655
0.0682108
0.0674534
0.0667041
0.0659714
0.0652738
0.0646274
0.0640291
0.0634716
0.0629481
0.0624535
0.0619839
0.0615362
0.0611097
0.0607044
0.0603193
0.0599513
0.0595959
0.0592481
0.0589034
0.0585571
0.0582041
0.0578388
0.0574553
0.0570481
0.0566116
0.0561411
0.0556347
0.0550937
0.0545312
0.0539714
0.053562
0.0533878
0.0322395
0.0231132
0.0184359
0.0157052
0.014032
0.0128943
0.012033
0.0112974
0.0106171
0.00976001
0.0964959
0.0768853
0.0637479
0.0544089
0.0474896
0.042197
0.0380398
0.034699
0.0319414
0.0298257
0.163367
0.214575
0.214177
0.195351
0.173044
0.152459
0.134956
0.120554
0.108884
0.0995128
0.0920528
0.0861795
0.0816275
0.0781781
0.0756475
0.0738771
0.0727268
0.0720703
0.0717935
0.0717944
0.0719835
0.0722848
0.072636
0.0729882
0.0733049
0.0735595
0.0737332
0.0738119
0.0737865
0.0736517
0.0734048
0.073047
0.0725832
0.0720214
0.0713747
0.0706597
0.0698934
0.0690932
0.0682749
0.0674526
0.0666383
0.0658412
0.0650684
0.0643242
0.0636118
0.0629331
0.0622894
0.0616804
0.061117
0.0606039
0.060135
0.0597032
0.0593032
0.0589314
0.0585855
0.0582658
0.057974
0.0577121
0.0574809
0.0572814
0.0571156
0.0569862
0.0568961
0.0568486
0.0568492
0.0569064
0.0570388
0.0572735
0.057762
0.0585649
0.0353311
0.0255575
0.0207357
0.0180543
0.0164061
0.0152936
0.0144675
0.0137771
0.0131154
0.0122534
0.0964941
0.0768817
0.0637429
0.0544027
0.0474824
0.0421888
0.0380307
0.0346888
0.0319304
0.0298135
0.163227
0.21436
0.213932
0.195096
0.172788
0.152207
0.134709
0.120313
0.108648
0.099284
0.0918313
0.0859663
0.0814235
0.0779844
0.0754654
0.0737077
0.072571
0.0719289
0.0716672
0.0716837
0.0718889
0.0722073
0.072577
0.0729499
0.0732895
0.0735695
0.0737699
0.0738742
0.0738699
0.0737471
0.0734984
0.0731211
0.072618
0.071997
0.0712734
0.0704673
0.0696003
0.0686934
0.0677662
0.0668353
0.0659138
0.065012
0.064137
0.0632939
0.0624855
0.0617121
0.0609723
0.060265
0.0595886
0.0589408
0.0583199
0.0577235
0.0571495
0.0565958
0.0560603
0.0555413
0.0550376
0.0545487
0.0540742
0.0536141
0.0531691
0.0527404
0.0523298
0.0519401
0.0515756
0.0512428
0.0509565
0.0507365
0.050783
0.0512249
0.0314207
0.0229752
0.0187497
0.0163641
0.0148743
0.0138525
0.0130809
0.0124197
0.0117848
0.0111148
0.0964924
0.0768782
0.0637383
0.0543972
0.0474762
0.0421822
0.0380238
0.034682
0.0319237
0.0298069
0.163154
0.214218
0.213732
0.194855
0.172518
0.15192
0.134412
0.120015
0.108354
0.0989981
0.0915574
0.085707
0.0811809
0.0777597
0.0752587
0.0735183
0.072397
0.0717677
0.0715154
0.071538
0.0717467
0.0720672
0.0724397
0.0728182
0.0731687
0.073466
0.0736901
0.0738218
0.0738437
0.0737386
0.0734907
0.0730905
0.0725367
0.0718373
0.0710113
0.0700846
0.0690852
0.0680402
0.0669735
0.065905
0.0648497
0.0638183
0.0628179
0.0618522
0.0609223
0.0600276
0.0591664
0.058335
0.0575294
0.0567453
0.0559789
0.0552264
0.054484
0.0537485
0.0530168
0.0522864
0.0515552
0.0508218
0.0500853
0.0493454
0.0486022
0.0478564
0.0471095
0.0463637
0.0456224
0.0448903
0.0441774
0.0434886
0.0429065
0.0421823
0.0252943
0.0180359
0.0144336
0.0124258
0.0111839
0.0103334
0.00969004
0.00914203
0.00864704
0.00799531
0.0964906
0.0768749
0.0637339
0.0543921
0.0474707
0.0421765
0.0380183
0.0346768
0.0319188
0.0298017
0.163026
0.213954
0.213382
0.19447
0.172132
0.151551
0.13407
0.119703
0.108074
0.0987502
0.0913439
0.085531
0.0810462
0.0776703
0.0752177
0.0735269
0.0724545
0.0718714
0.0716622
0.0717255
0.071975
0.0723406
0.0727674
0.0732146
0.0736522
0.0740569
0.0744066
0.0746753
0.0748328
0.0748451
0.0746781
0.074308
0.0737281
0.07295
0.0720038
0.0709309
0.0697754
0.0685781
0.0673734
0.0661877
0.0650394
0.06394
0.0628949
0.0619053
0.060969
0.0600814
0.0592371
0.0584297
0.0576532
0.0569021
0.0561711
0.0554552
0.0547496
0.0540502
0.0533534
0.0526563
0.0519568
0.0512535
0.0505458
0.049834
0.0491191
0.0484032
0.0476893
0.0469821
0.0462879
0.0456153
0.04498
0.0443935
0.0439542
0.0433875
0.0258164
0.0181697
0.0143221
0.012154
0.0108131
0.0099132
0.00926163
0.00874029
0.00830055
0.00774817
0.096489
0.0768717
0.0637299
0.0543878
0.0474667
0.0421734
0.0380171
0.0346786
0.0319258
0.0298156
0.163229
0.214078
0.213329
0.194265
0.171836
0.151226
0.133779
0.119502
0.108021
0.0989019
0.0917546
0.0862513
0.0821189
0.079127
0.0770771
0.0757948
0.0751259
0.0749347
0.0751042
0.0755359
0.0761502
0.0768854
0.0776949
0.0785444
0.0794065
0.0802544
0.0810546
0.0817594
0.0823059
0.0826177
0.0826185
0.0822548
0.0815123
0.0804191
0.079041
0.0774654
0.0757826
0.0740752
0.0724108
0.0708392
0.0693932
0.0680902
0.0669355
0.0659251
0.0650488
0.0642929
0.0636415
0.0630798
0.0625946
0.0621733
0.061803
0.0614718
0.061169
0.0608859
0.0606161
0.060355
0.0601004
0.0598514
0.0596091
0.0593758
0.0591549
0.0589515
0.0587714
0.0586225
0.0585146
0.0584606
0.0584836
0.0586098
0.0589906
0.0593629
0.0347969
0.0240669
0.0186218
0.0155415
0.0136572
0.0124357
0.0115983
0.0109813
0.0105009
0.00997831
0.0964873
0.0768686
0.0637259
0.0543835
0.0474626
0.0421701
0.0380152
0.034679
0.0319298
0.0298217
0.162876
0.213422
0.212776
0.19401
0.172116
0.152314
0.13594
0.122971
0.112984
0.105486
0.100024
0.0962058
0.0937017
0.092234
0.0915711
0.0915214
0.091929
0.0926696
0.0936474
0.0947909
0.096049
0.0973871
0.0987832
0.100223
0.101693
0.103176
0.104637
0.106015
0.107211
0.108086
0.108477
0.108246
0.107317
0.105694
0.103459
0.100753
0.0977386
0.0945838
0.0914419
0.088444
0.0856938
0.0832666
0.0812089
0.0795416
0.0782624
0.0773516
0.0767742
0.0765073
0.0765244
0.0767623
0.0771508
0.0776297
0.0781539
0.0786927
0.0792275
0.079748
0.0802504
0.0807351
0.0812053
0.081666
0.0821235
0.0825851
0.083059
0.0835545
0.0840834
0.0846623
0.0853239
0.0861225
0.0872913
0.0886998
0.0476866
0.030899
0.0228242
0.0184682
0.0159157
0.0143228
0.013276
0.0125481
0.0120176
0.0115286
0.0964857
0.0768657
0.0637224
0.0543801
0.0474603
0.0421703
0.0380213
0.034697
0.0319833
0.0297372
0.0282284
0.0269597
0.025698
0.024558
0.0235225
0.0225814
0.021728
0.0209563
0.0202604
0.0196341
0.0190716
0.0185671
0.0181153
0.0177112
0.0173501
0.0170278
0.0167405
0.0164847
0.0162575
0.0160563
0.015879
0.0157239
0.0155899
0.015476
0.0153822
0.0153087
0.0152556
0.0152226
0.0152083
0.0152092
0.0152194
0.0152315
0.0152382
0.0152329
0.0152115
0.0151711
0.0151108
0.015032
0.0149376
0.0148307
0.0147148
0.0145937
0.0144705
0.0143485
0.0142301
0.0141174
0.0140118
0.0139144
0.0138256
0.0137456
0.0136739
0.0136099
0.0135528
0.0135016
0.0134552
0.0134126
0.013373
0.0133355
0.0132992
0.0132635
0.0132279
0.0131918
0.0131548
0.0131167
0.0130772
0.013036
0.0129931
0.012948
0.0129007
0.0128492
0.0127291
0.0125923
0.0124563
0.0123263
0.0122028
0.0120847
0.0119707
0.0118567
0.0117521
0.0116072
0.0964841
0.0768627
0.0637185
0.0543759
0.0474562
0.0421669
0.0380193
0.034697
0.0319868
0.0297428
0.0278658
0.0262804
0.024926
0.0237568
0.0227383
0.0218441
0.0210534
0.0203501
0.0197211
0.0191561
0.0186466
0.0181859
0.0177681
0.0173888
0.017044
0.0167303
0.0164452
0.0161862
0.0159516
0.0157399
0.0155498
0.0153806
0.0152318
0.0151035
0.0149965
0.0149121
0.0148517
0.0148164
0.0148056
0.0148158
0.014839
0.0148655
0.0148852
0.0148902
0.0148758
0.0148407
0.0147852
0.0147113
0.0146217
0.0145197
0.0144084
0.0142913
0.014171
0.0140499
0.01393
0.013813
0.0137002
0.0135926
0.0134909
0.0133955
0.0133066
0.0132241
0.0131479
0.0130775
0.0130125
0.0129523
0.0128962
0.0128438
0.0127943
0.0127472
0.0127018
0.0126578
0.0126145
0.0125717
0.0125288
0.0124856
0.0124418
0.0123968
0.0123503
0.0123008
0.0122471
0.0121897
0.0121298
0.0120678
0.0120037
0.011937
0.0118679
0.0117944
0.0117274
0.0116214
0.0964825
0.0768596
0.0637147
0.0543717
0.0474521
0.0421636
0.0380176
0.0346981
0.0319926
0.0297545
0.0278804
0.0262935
0.0249354
0.0237617
0.0227385
0.0218396
0.0210443
0.0203363
0.0197026
0.0191326
0.0186178
0.0181514
0.0177276
0.0173418
0.0169902
0.0166694
0.0163769
0.0161103
0.0158681
0.0156486
0.015451
0.0152745
0.015119
0.0149852
0.0148744
0.0147894
0.0147333
0.0147098
0.0147211
0.0147632
0.0148249
0.0148913
0.0149474
0.0149815
0.0149878
0.0149648
0.0149136
0.0148372
0.0147398
0.0146259
0.0145008
0.0143681
0.0142314
0.014093
0.0139557
0.0138224
0.013695
0.013575
0.0134634
0.0133606
0.0132669
0.0131821
0.013106
0.0130381
0.0129776
0.0129239
0.0128763
0.0128338
0.0127957
0.0127612
0.0127296
0.0127001
0.012672
0.0126448
0.0126178
0.0125905
0.0125625
0.012533
0.0125015
0.0124672
0.0124293
0.0123874
0.0123417
0.012292
0.0122382
0.0121794
0.0121152
0.0120413
0.0119646
0.0118155
0.0964809
0.0768565
0.0637105
0.0543667
0.0474467
0.0421578
0.0380116
0.034692
0.0319861
0.029747
0.0278701
0.026279
0.0249161
0.0237376
0.0227097
0.0218064
0.0210068
0.0202945
0.0196566
0.0190823
0.0185633
0.0180925
0.0176642
0.0172738
0.0169176
0.0165921
0.016295
0.0160238
0.0157769
0.0155527
0.0153503
0.015169
0.015009
0.014871
0.0147573
0.0146721
0.0146214
0.0146133
0.0146566
0.0147495
0.0148766
0.0150143
0.0151368
0.0152257
0.0152726
0.0152762
0.0152391
0.0151667
0.0150652
0.0149434
0.014808
0.0146642
0.0145168
0.0143695
0.0142259
0.0140885
0.0139598
0.0138412
0.0137339
0.0136386
0.0135556
0.0134846
0.0134251
0.0133763
0.0133369
0.0133057
0.0132812
0.0132619
0.0132461
0.0132323
0.0132191
0.0132051
0.013189
0.0131699
0.0131469
0.0131192
0.0130864
0.0130481
0.0130037
0.0129531
0.0128958
0.0128316
0.0127606
0.012683
0.0125985
0.0125065
0.0124062
0.0122922
0.0121677
0.0119528
0.0964793
0.0768533
0.0637061
0.0543615
0.0474407
0.0421513
0.0380047
0.0346846
0.0319783
0.0297384
0.0278599
0.0262662
0.0248997
0.023717
0.0226844
0.0217759
0.0209709
0.0202531
0.0196094
0.0190293
0.0185043
0.0180275
0.0175933
0.0171971
0.016835
0.016504
0.0162014
0.015925
0.0156728
0.0154434
0.0152354
0.0150483
0.0148818
0.014737
0.0146164
0.0145261
0.0144754
0.0144809
0.014573
0.0147693
0.015056
0.0153863
0.0157006
0.0159601
0.0161479
0.0162615
0.016307
0.0162949
0.0162372
0.0161483
0.0160501
0.0159508
0.0158564
0.015772
0.015701
0.0156456
0.0156067
0.015584
0.0155762
0.0155808
0.015595
0.0156153
0.015638
0.0156596
0.0156767
0.0156863
0.0156859
0.0156735
0.0156479
0.015608
0.0155537
0.015485
0.0154024
0.0153066
0.0151985
0.0150793
0.01495
0.0148117
0.0146655
0.0145122
0.0143526
0.0141874
0.0140171
0.0138423
0.013663
0.0134787
0.0132885
0.0130866
0.0128761
0.0125751
0.0964777
0.0768501
0.0637016
0.0543558
0.0474339
0.0421434
0.0379955
0.0346741
0.0319661
0.0297239
0.0278425
0.026245
0.0248743
0.0236868
0.0226493
0.0217355
0.020925
0.0202015
0.0195519
0.0189658
0.0184346
0.0179515
0.017511
0.0171084
0.0167401
0.016403
0.0160945
0.0158122
0.0155543
0.0153189
0.0151046
0.0149104
0.0147356
0.014581
0.0144486
0.0143465
0.0142868
0.0143039
0.0145296
0.0151009
0.0160234
0.0171262
0.018203
0.0191549
0.0199416
0.0205624
0.0210362
0.0213888
0.0216464
0.0218286
0.021968
0.0220951
0.0222021
0.0222822
0.0223299
0.0223421
0.0223178
0.0222578
0.0221638
0.0220385
0.0218848
0.0217056
0.0215038
0.0212819
0.0210423
0.0207874
0.0205191
0.0202395
0.0199503
0.0196533
0.0193503
0.0190427
0.0187321
0.0184198
0.0181072
0.0177953
0.0174852
0.0171775
0.0168731
0.0165723
0.0162754
0.0159826
0.0156939
0.0154091
0.0151276
0.0148483
0.0145696
0.0142851
0.013996
0.0136271
0.0964762
0.0768469
0.063697
0.0543499
0.0474268
0.0421349
0.0379857
0.0346626
0.0319527
0.0297082
0.027824
0.0262231
0.0248484
0.0236564
0.0226137
0.0216944
0.0208779
0.020148
0.0194916
0.0188982
0.0183596
0.0178688
0.0174205
0.0170102
0.0166343
0.0162898
0.0159741
0.015685
0.0154202
0.0151779
0.0149562
0.0147534
0.014568
0.0143995
0.0142478
0.0141214
0.0140327
0.0140571
0.0149219
0.0173966
0.0214208
0.0260031
0.0301905
0.0336143
0.0361457
0.0378417
0.0388286
0.0392499
0.0392423
0.0389257
0.0383635
0.0376252
0.0367572
0.0358061
0.0348123
0.0338078
0.0328158
0.0318515
0.0309239
0.0300372
0.0291921
0.0283876
0.0276214
0.0268905
0.026192
0.0255232
0.0248815
0.0242649
0.0236716
0.0231003
0.0225497
0.022019
0.0215075
0.0210145
0.0205396
0.0200822
0.0196417
0.0192176
0.0188093
0.0184161
0.0180374
0.0176723
0.0173199
0.0169792
0.0166494
0.0163291
0.0160157
0.0157037
0.0153894
0.0150142
0.0964747
0.0768438
0.0636925
0.054344
0.0474194
0.042126
0.037975
0.0346499
0.0319376
0.0296904
0.0278028
0.0261981
0.024819
0.023622
0.0225739
0.0216485
0.0208255
0.0200885
0.0194245
0.0188232
0.0182761
0.0177766
0.0173193
0.0169001
0.0165153
0.0161623
0.0158385
0.0155416
0.0152695
0.0150199
0.0147906
0.0145796
0.0143844
0.0142027
0.014031
0.0138762
0.0137427
0.0138503
0.0183903
0.0305264
0.0475179
0.0627076
0.0724599
0.0768646
0.0771337
0.0747926
0.0710742
0.0668116
0.0624966
0.0583818
0.054569
0.0510784
0.047946
0.0451667
0.0427133
0.0405489
0.0386341
0.0369314
0.0354075
0.0340336
0.0327856
0.0316436
0.0305916
0.0296165
0.028708
0.027858
0.0270599
0.0263086
0.0256
0.0249308
0.0242989
0.023702
0.0231384
0.0226063
0.0221038
0.0216295
0.0211819
0.0207593
0.0203622
0.0199876
0.0196318
0.0192921
0.0189661
0.018652
0.0183467
0.0180475
0.0177502
0.0174496
0.0171472
0.0168033
0.0964734
0.076841
0.0636882
0.0543384
0.0474123
0.0421172
0.0379643
0.034637
0.0319223
0.0296721
0.0277812
0.0261725
0.0247889
0.0235868
0.0225329
0.0216011
0.0207709
0.0200261
0.0193535
0.0187428
0.0181858
0.0176759
0.0172079
0.0167779
0.0163825
0.0160194
0.015686
0.0153803
0.0150999
0.0148424
0.0146056
0.014387
0.0141832
0.0139904
0.0137979
0.0136059
0.0133787
0.0138864
0.0355264
0.0799253
0.122218
0.143716
0.144534
0.133484
0.118173
0.102917
0.0895215
0.0784207
0.0694601
0.0622935
0.0565653
0.0519633
0.0482319
0.0451657
0.0426082
0.0404494
0.0386258
0.0370367
0.0356162
0.0343251
0.0331391
0.0320418
0.031022
0.0300715
0.0291843
0.0283558
0.0275829
0.0268627
0.026193
0.0255715
0.0249952
0.0244618
0.0239685
0.0235126
0.023091
0.0227007
0.0223384
0.0220008
0.0216845
0.0213866
0.0211041
0.0208345
0.0205754
0.0203249
0.0200803
0.0198391
0.0195948
0.0193434
0.019052
0.0187226
0.0964723
0.0768385
0.0636845
0.0543332
0.0474056
0.0421087
0.0379539
0.0346243
0.0319068
0.0296536
0.027759
0.0261462
0.0247577
0.0235501
0.02249
0.0215512
0.0207131
0.0199594
0.0192771
0.0186557
0.0180872
0.0175651
0.0170844
0.0166416
0.0162337
0.0158587
0.0155145
0.015199
0.0149099
0.0146447
0.0144018
0.01418
0.0139779
0.0137948
0.0136212
0.0134573
0.0132521
0.0138132
0.0378541
0.087638
0.134899
0.156491
0.15622
0.143402
0.125845
0.108331
0.0929629
0.0802767
0.0701143
0.062084
0.0557669
0.0507964
0.0468903
0.0438352
0.0413582
0.0392893
0.0375173
0.0359671
0.0345871
0.0333412
0.0322042
0.0311581
0.0301904
0.0292922
0.0284575
0.0276825
0.0269646
0.0263022
0.0256943
0.0251396
0.0246367
0.0241837
0.0237786
0.0234186
0.0231003
0.0228195
0.0225717
0.0223517
0.0221546
0.0219756
0.02181
0.0216539
0.0215034
0.0213554
0.0212066
0.0210545
0.0208925
0.0207205
0.0205005
0.0202708
0.0964714
0.0768366
0.0636814
0.0543288
0.0473997
0.0421011
0.0379442
0.0346122
0.0318921
0.0296356
0.0277374
0.0261202
0.0247267
0.0235134
0.0224466
0.0215002
0.0206535
0.01989
0.0191966
0.0185629
0.0179809
0.0174441
0.0169482
0.0164897
0.0160666
0.0156774
0.0153206
0.0149941
0.0146954
0.0144221
0.0141732
0.0139509
0.0137592
0.013608
0.0134984
0.0134443
0.0133601
0.0139269
0.0369683
0.0860677
0.133759
0.156084
0.156284
0.143912
0.126735
0.109542
0.0944035
0.0818336
0.071662
0.0634935
0.0569352
0.0517174
0.0475554
0.044158
0.0413354
0.0389555
0.0369216
0.0351606
0.0336157
0.0322429
0.0310079
0.029885
0.0288552
0.0279052
0.0270265
0.0262141
0.0254657
0.024781
0.0241606
0.0236053
0.0231159
0.0226925
0.0223343
0.0220393
0.0218038
0.021623
0.0214906
0.0213997
0.0213423
0.0213109
0.0212976
0.0212956
0.0212985
0.0213008
0.0212968
0.0212824
0.0212489
0.0211981
0.021087
0.0209794
0.0964709
0.0768353
0.0636791
0.0543252
0.0473947
0.0420944
0.0379354
0.0346011
0.0318782
0.0296185
0.0277165
0.0260949
0.0246962
0.0234769
0.0224031
0.0214485
0.0205923
0.0198179
0.019112
0.0184643
0.0178664
0.0173124
0.016798
0.0163207
0.0158793
0.0154732
0.015102
0.0147639
0.0144553
0.0141737
0.0139195
0.0137012
0.013535
0.0134587
0.0135088
0.0137543
0.0139787
0.0145752
0.034222
0.0774004
0.12105
0.143633
0.145701
0.135509
0.12088
0.10628
0.09339
0.0825376
0.0735001
0.0659369
0.0595549
0.0542193
0.0497008
0.0458305
0.0424991
0.0396252
0.0371398
0.0349811
0.0330929
0.0314254
0.0299357
0.0285889
0.0273583
0.0262243
0.0251726
0.0241947
0.0232879
0.0224539
0.0216964
0.0210231
0.0204374
0.0199408
0.0195336
0.0192155
0.0189823
0.0188329
0.0187675
0.0187823
0.0188673
0.019009
0.0191921
0.0193999
0.0196166
0.0198307
0.0200321
0.0202144
0.0203662
0.0204896
0.0205354
0.0205823
0.0964706
0.0768344
0.0636774
0.0543225
0.0473906
0.0420887
0.0379278
0.0345912
0.0318655
0.0296026
0.0276968
0.0260707
0.0246668
0.0234412
0.0223601
0.021397
0.0205306
0.0197443
0.0190245
0.0183605
0.0177442
0.0171695
0.0166327
0.016132
0.0156676
0.015241
0.0148538
0.0145043
0.0141875
0.0139004
0.0136468
0.0134477
0.0133471
0.0134513
0.0139108
0.0149477
0.0158216
0.0163278
0.0172807
0.0211056
0.0288043
0.0378848
0.0462558
0.053353
0.0585001
0.0615369
0.0626892
0.0623
0.0607031
0.0582121
0.0551333
0.051797
0.0484016
0.0450972
0.0419872
0.0391301
0.0365469
0.0342309
0.0321573
0.0302925
0.0285994
0.027045
0.0256065
0.0242783
0.0230787
0.0219824
0.0209596
0.0199912
0.0190685
0.0181755
0.0173274
0.0165487
0.0158693
0.0153188
0.0149207
0.0146871
0.0146169