/*--------------------------------*- C++ -*----------------------------------*\
| =========                 |                                                 |
| \\      /  F ield         | OpenFOAM: The Open Source CFD Toolbox           |
|  \\    /   O peration     | Version:  v2012                                 |
|   \\  /    A nd           | Website:  www.openfoam.com                      |
|    \\/     M anipulation  |                                                 |
\*---------------------------------------------------------------------------*/
FoamFile
{
    version     2.0;
    format      ascii;
    class       volScalarField;
    location    "350/air";
    object      G;
}
// * * * * * * * * * * * * * * * * * * * * * * * * * * * * * * * * * * * * * //

dimensions      [1 0 -3 0 0 0 0];


internalField   nonuniform List<scalar> 
287104
(
2870.12
2906.09
2915.95
2924.07
2931.67
2938.53
2944.68
2950.27
2955.41
2960.15
2964.52
2968.52
2972.19
2975.59
2978.74
2981.7
2984.48
2987.11
2989.6
2991.98
2994.24
2996.41
2998.48
3000.48
3002.4
3004.25
3006.04
3007.78
3009.46
3011.1
3012.7
3014.25
3015.77
3017.26
3018.7
3020.1
3021.5
3022.88
3024.24
3025.55
3026.85
3028.1
3029.35
3030.61
3031.85
3033.05
3034.25
3035.43
3036.59
3037.73
3038.86
3039.98
3041.08
3042.17
3043.25
3044.31
3045.36
3046.38
3047.39
3048.38
3049.37
3050.35
3051.32
3052.29
3053.26
3054.23
3055.21
3056.19
3057.17
3058.16
3059.15
3060.13
3061.1
3062.07
3063.04
3064.03
3065.06
3066.1
3067.13
3068.13
3069.08
3069.99
3070.88
3071.76
3072.58
3073.32
3074.14
3075.93
3080.05
3070.46
2881.36
2920.14
2929.76
2937.47
2944.68
2951.16
2956.94
2962.18
2966.99
2971.42
2975.45
2979.12
2982.46
2985.52
2988.35
2990.98
2993.43
2995.73
2997.9
2999.96
3001.91
3003.76
3005.53
3007.22
3008.83
3010.38
3011.88
3013.32
3014.71
3016.05
3017.36
3018.62
3019.86
3021.05
3022.2
3023.3
3024.4
3025.54
3026.64
3027.68
3028.69
3029.65
3030.62
3031.64
3032.63
3033.57
3034.5
3035.43
3036.34
3037.24
3038.12
3038.99
3039.85
3040.7
3041.54
3042.36
3043.18
3043.98
3044.76
3045.54
3046.3
3047.06
3047.81
3048.57
3049.33
3050.09
3050.86
3051.63
3052.42
3053.2
3053.98
3054.75
3055.51
3056.26
3057.03
3057.83
3058.69
3059.59
3060.5
3061.4
3062.24
3063.03
3063.79
3064.54
3065.27
3065.94
3066.74
3068.72
3073.8
3064.79
2868.84
2906.71
2915.86
2923.22
2930.16
2936.38
2941.94
2946.97
2951.59
2955.83
2959.7
2963.2
2966.39
2969.3
2971.99
2974.47
2976.8
2978.97
2981.02
2982.96
2984.8
2986.54
2988.19
2989.77
2991.29
2992.74
2994.13
2995.47
2996.76
2998.01
2999.21
3000.38
3001.52
3002.62
3003.67
3004.66
3005.66
3006.72
3007.74
3008.69
3009.6
3010.46
3011.32
3012.28
3013.19
3014.04
3014.88
3015.72
3016.54
3017.35
3018.15
3018.94
3019.72
3020.49
3021.24
3021.99
3022.72
3023.44
3024.14
3024.84
3025.53
3026.21
3026.89
3027.56
3028.24
3028.93
3029.62
3030.32
3031.02
3031.72
3032.42
3033.09
3033.76
3034.42
3035.11
3035.84
3036.64
3037.5
3038.39
3039.26
3040.07
3040.83
3041.54
3042.24
3042.91
3043.5
3044.18
3046.09
3051.45
3043.19
2856.48
2893.44
2902.32
2909.46
2916.2
2922.24
2927.64
2932.53
2937.02
2941.15
2944.9
2948.3
2951.4
2954.22
2956.83
2959.24
2961.49
2963.59
2965.57
2967.45
2969.22
2970.9
2972.5
2974.03
2975.49
2976.88
2978.22
2979.51
2980.75
2981.95
2983.1
2984.22
2985.31
2986.36
2987.36
2988.28
2989.22
2990.24
2991.23
2992.12
2992.98
2993.78
2994.59
2995.51
2996.39
2997.18
2997.98
2998.77
2999.55
3000.32
3001.08
3001.83
3002.56
3003.29
3004
3004.7
3005.39
3006.07
3006.74
3007.39
3008.04
3008.68
3009.32
3009.97
3010.61
3011.26
3011.91
3012.57
3013.23
3013.88
3014.52
3015.15
3015.77
3016.41
3017.08
3017.81
3018.62
3019.5
3020.41
3021.3
3022.14
3022.9
3023.61
3024.28
3024.9
3025.42
3026
3027.83
3033.27
3025.49
2845
2881.24
2889.93
2896.91
2903.5
2909.4
2914.66
2919.44
2923.83
2927.86
2931.53
2934.86
2937.88
2940.64
2943.19
2945.54
2947.73
2949.78
2951.71
2953.53
2955.26
2956.9
2958.45
2959.93
2961.35
2962.71
2964.02
2965.27
2966.47
2967.63
2968.75
2969.83
2970.87
2971.89
2972.85
2973.73
2974.62
2975.6
2976.55
2977.41
2978.24
2979
2979.76
2980.65
2981.49
2982.25
2983.01
2983.76
2984.51
2985.24
2985.96
2986.67
2987.37
2988.06
2988.74
2989.41
2990.06
2990.71
2991.34
2991.97
2992.58
2993.2
2993.8
2994.41
2995.03
2995.65
2996.26
2996.88
2997.49
2998.09
2998.69
2999.28
2999.89
3000.53
3001.22
3001.98
3002.82
3003.73
3004.66
3005.57
3006.41
3007.16
3007.82
3008.4
3008.89
3009.28
3009.76
3011.52
3016.87
3009.32
2833.97
2869.58
2878.13
2884.98
2891.43
2897.2
2902.35
2907.03
2911.34
2915.29
2918.9
2922.18
2925.15
2927.86
2930.35
2932.65
2934.79
2936.79
2938.68
2940.46
2942.15
2943.75
2945.26
2946.71
2948.09
2949.42
2950.69
2951.92
2953.09
2954.22
2955.3
2956.35
2957.36
2958.34
2959.28
2960.16
2961.01
2961.93
2962.82
2963.64
2964.44
2965.2
2965.93
2966.75
2967.55
2968.27
2968.99
2969.71
2970.41
2971.1
2971.78
2972.45
2973.1
2973.75
2974.39
2975.01
2975.63
2976.24
2976.83
2977.41
2977.99
2978.56
2979.13
2979.7
2980.27
2980.83
2981.39
2981.94
2982.49
2983.03
2983.58
2984.15
2984.75
2985.4
2986.11
2986.9
2987.75
2988.64
2989.54
2990.4
2991.17
2991.81
2992.31
2992.69
2992.95
2993.12
2993.44
2994.99
2999.87
2991.78
2823.19
2858.21
2866.62
2873.34
2879.65
2885.28
2890.3
2894.89
2899.12
2903.03
2906.63
2909.86
2912.78
2915.45
2917.89
2920.15
2922.24
2924.21
2926.06
2927.81
2929.46
2931.03
2932.51
2933.92
2935.27
2936.56
2937.81
2939
2940.15
2941.26
2942.32
2943.33
2944.3
2945.25
2946.18
2947.08
2947.91
2948.71
2949.5
2950.28
2951.05
2951.83
2952.56
2953.24
2953.94
2954.62
2955.29
2955.94
2956.58
2957.2
2957.81
2958.4
2958.98
2959.56
2960.13
2960.68
2961.23
2961.76
2962.28
2962.79
2963.29
2963.78
2964.27
2964.76
2965.24
2965.7
2966.16
2966.61
2967.05
2967.51
2968
2968.52
2969.08
2969.7
2970.37
2971.12
2971.91
2972.73
2973.52
2974.22
2974.78
2975.18
2975.41
2975.48
2975.42
2975.3
2975.35
2976.51
2980.33
2969.92
2812.57
2847.02
2855.3
2861.9
2868.07
2873.55
2878.41
2882.84
2886.96
2890.77
2894.34
2897.48
2900.33
2902.95
2905.37
2907.6
2909.68
2911.63
2913.47
2915.21
2916.85
2918.41
2919.88
2921.28
2922.6
2923.86
2925.08
2926.24
2927.37
2928.45
2929.49
2930.47
2931.4
2932.29
2933.21
2934.16
2934.98
2935.59
2936.19
2936.9
2937.62
2938.44
2939.17
2939.62
2940.14
2940.75
2941.32
2941.88
2942.42
2942.93
2943.43
2943.92
2944.39
2944.86
2945.32
2945.77
2946.19
2946.6
2946.99
2947.37
2947.73
2948.09
2948.43
2948.76
2949.06
2949.35
2949.63
2949.92
2950.21
2950.54
2950.91
2951.32
2951.78
2952.28
2952.84
2953.47
2954.14
2954.82
2955.44
2955.94
2956.23
2956.35
2956.28
2956.06
2955.73
2955.38
2955.22
2956
2958.42
2943.3
2802.08
2835.96
2844.12
2850.61
2856.67
2862.01
2866.7
2870.92
2874.78
2878.27
2881.21
2883.97
2886.63
2889.21
2891.64
2893.94
2896.1
2898.16
2900.1
2901.95
2903.7
2905.34
2906.89
2908.35
2909.71
2910.98
2912.18
2913.32
2914.41
2915.46
2916.45
2917.38
2918.24
2919.05
2919.94
2920.97
2921.81
2922.14
2922.47
2923.1
2923.76
2924.65
2925.44
2925.57
2925.83
2926.38
2926.84
2927.28
2927.7
2928.08
2928.46
2928.83
2929.2
2929.57
2929.92
2930.24
2930.55
2930.85
2931.13
2931.39
2931.65
2931.88
2932.09
2932.28
2932.46
2932.62
2932.79
2932.99
2933.22
2933.51
2933.84
2934.21
2934.62
2935.06
2935.55
2936.1
2936.69
2937.28
2937.82
2938.24
2938.57
2938.67
2938.53
2938.22
2937.81
2937.42
2937.26
2937.93
2939.42
2920.51
2791.73
2825.05
2833.09
2839.48
2845.44
2850.69
2855.25
2859.28
2862.76
2865.22
2863.1
2863.55
2865.3
2867.72
2870.44
2873.26
2876.08
2878.85
2881.52
2884.05
2886.43
2888.64
2890.69
2892.56
2894.25
2895.78
2897.17
2898.45
2899.64
2900.77
2901.84
2902.85
2903.74
2904.56
2905.51
2906.76
2907.76
2907.85
2907.93
2908.57
2909.28
2910.41
2911.44
2911.29
2911.33
2911.92
2912.37
2912.8
2913.18
2913.54
2913.89
2914.25
2914.6
2914.94
2915.25
2915.53
2915.79
2916.02
2916.23
2916.41
2916.57
2916.7
2916.79
2916.85
2916.9
2916.96
2917.04
2917.16
2917.32
2917.53
2917.78
2918.06
2918.35
2918.65
2918.98
2919.34
2919.71
2920.08
2920.42
2920.85
2922.51
2923.68
2924.24
2924.32
2924.14
2923.96
2924.08
2925.15
2927
2908.35
2781.52
2814.28
2822.2
2828.5
2834.37
2839.55
2844.08
2848.08
2851.19
2849.97
2806.03
2797.41
2799.29
2804.58
2810.79
2817.03
2822.96
2828.44
2833.41
2837.85
2841.77
2845.18
2848.1
2850.56
2852.61
2854.28
2855.62
2856.71
2857.61
2858.4
2859.11
2859.76
2860.32
2860.82
2861.54
2862.79
2863.78
2863.41
2863.03
2863.56
2864.2
2865.52
2866.81
2866.31
2866.07
2866.74
2867.22
2867.67
2868.09
2868.49
2868.9
2869.31
2869.7
2870.05
2870.35
2870.6
2870.8
2870.96
2871.07
2871.13
2871.13
2871.06
2870.94
2870.78
2870.6
2870.42
2870.26
2870.11
2869.98
2869.86
2869.74
2869.61
2869.46
2869.29
2869.1
2868.88
2868.59
2868.2
2867.66
2867.98
2883.59
2895.42
2903.29
2908.22
2911.21
2913.14
2914.88
2917.58
2921.6
2906.71
2771.46
2803.67
2811.47
2817.66
2823.44
2828.55
2833.03
2837
2840.01
2838.33
2791.9
2782.51
2784.3
2789.75
2796.2
2802.71
2808.91
2814.64
2819.84
2824.49
2828.59
2832.15
2835.18
2837.74
2839.84
2841.55
2842.88
2843.91
2844.71
2845.35
2845.92
2846.46
2846.93
2847.38
2848.17
2849.76
2851.13
2850.57
2849.96
2850.71
2851.61
2853.51
2855.51
2854.96
2854.72
2855.84
2856.73
2857.62
2858.53
2859.48
2860.5
2861.54
2862.57
2863.59
2864.57
2865.52
2866.46
2867.37
2868.24
2869.05
2869.81
2870.51
2871.18
2871.83
2872.46
2873.09
2873.7
2874.29
2874.82
2875.3
2875.7
2876
2876.21
2876.3
2876.28
2876.12
2875.81
2875.32
2874.72
2875.06
2888.08
2897.93
2904.46
2908.57
2911.1
2912.85
2914.75
2918.39
2925.07
2916.23
2761.55
2793.21
2800.9
2807
2812.69
2817.71
2822.12
2826.02
2828.98
2827.26
2781.39
2772.05
2773.79
2779.16
2785.53
2791.96
2798.09
2803.76
2808.91
2813.51
2817.57
2821.07
2824.05
2826.55
2828.6
2830.26
2831.56
2832.52
2833.18
2833.65
2834.01
2834.36
2834.67
2834.97
2835.71
2837.5
2839.09
2838.09
2836.92
2837.56
2838.34
2840.4
2842.74
2841.65
2840.85
2841.89
2842.61
2843.36
2844.17
2845.04
2845.96
2846.88
2847.77
2848.64
2849.49
2850.35
2851.22
2852.07
2852.91
2853.74
2854.57
2855.45
2856.38
2857.4
2858.5
2859.69
2860.94
2862.24
2863.57
2864.93
2866.3
2867.65
2868.97
2870.23
2871.4
2872.46
2873.39
2874.18
2874.9
2876.51
2888.75
2897.78
2903.78
2907.76
2910.55
2912.81
2915.42
2920.33
2929.9
2927.71
2751.79
2782.92
2790.5
2796.5
2802.11
2807.05
2811.39
2815.23
2818.14
2816.46
2771.42
2762.24
2763.96
2769.23
2775.49
2781.81
2787.84
2793.42
2798.49
2803.03
2807.01
2810.46
2813.37
2815.81
2817.83
2819.5
2820.85
2821.86
2822.53
2822.92
2823.13
2823.31
2823.5
2823.72
2824.46
2826.51
2828.44
2827.1
2825.42
2826.03
2826.76
2829.04
2831.84
2830.3
2828.99
2830
2830.64
2831.36
2832.16
2833.02
2833.86
2834.62
2835.31
2835.94
2836.56
2837.17
2837.75
2838.29
2838.79
2839.27
2839.77
2840.32
2840.92
2841.58
2842.3
2843.04
2843.81
2844.58
2845.35
2846.12
2846.87
2847.59
2848.24
2848.81
2849.3
2849.7
2850.03
2850.29
2850.54
2851.48
2863.25
2871.84
2877.7
2881.97
2885.29
2888.26
2891.67
2897.27
2906.85
2903.03
2742.18
2772.78
2780.27
2786.19
2791.71
2796.58
2800.84
2804.62
2807.49
2805.84
2761.57
2752.55
2754.23
2759.42
2765.57
2771.79
2777.73
2783.22
2788.21
2792.67
2796.6
2799.98
2802.83
2805.21
2807.19
2808.87
2810.3
2811.45
2812.23
2812.63
2812.73
2812.71
2812.71
2812.81
2813.55
2815.87
2818.18
2816.59
2814.45
2815.06
2815.77
2818.27
2821.58
2819.71
2817.94
2818.99
2819.68
2820.53
2821.49
2822.44
2823.26
2823.93
2824.51
2825.1
2825.73
2826.37
2826.97
2827.53
2828.06
2828.61
2829.2
2829.84
2830.54
2831.27
2832.01
2832.74
2833.45
2834.13
2834.77
2835.35
2835.84
2836.21
2836.42
2836.46
2836.34
2836.09
2835.74
2835.31
2834.86
2835.12
2846.58
2854.8
2860.24
2864.02
2866.92
2869.46
2872.38
2877.25
2884.95
2876.5
2732.71
2762.79
2770.18
2776.03
2781.49
2786.3
2790.5
2794.21
2797.02
2795.39
2751.82
2742.94
2744.59
2749.69
2755.75
2761.88
2767.72
2773.13
2778.05
2782.44
2786.31
2789.63
2792.43
2794.73
2796.65
2798.32
2799.83
2801.16
2802.17
2802.7
2802.76
2802.53
2802.27
2802.18
2802.84
2805.37
2808.08
2806.32
2803.79
2804.39
2805.1
2807.78
2811.6
2809.48
2807.32
2808.47
2809.33
2810.46
2811.66
2812.7
2813.44
2813.95
2814.42
2814.98
2815.63
2816.3
2816.96
2817.61
2818.29
2819.03
2819.86
2820.74
2821.65
2822.56
2823.46
2824.34
2825.2
2826.05
2826.84
2827.55
2828.13
2828.54
2828.78
2828.86
2828.82
2828.74
2828.67
2828.64
2828.67
2829.44
2840.7
2848.96
2854.58
2858.52
2861.47
2863.95
2866.79
2871.54
2879.38
2873.41
2723.37
2752.94
2760.24
2766.03
2771.43
2776.21
2780.38
2784.04
2786.79
2785.16
2742.23
2733.47
2735.09
2740.1
2746.07
2752.11
2757.87
2763.2
2768.04
2772.36
2776.17
2779.43
2782.17
2784.4
2786.23
2787.83
2789.37
2790.88
2792.19
2793
2793.15
2792.76
2792.2
2791.8
2792.29
2794.93
2798
2796.16
2793.28
2793.88
2794.58
2797.37
2801.65
2799.38
2796.9
2798.23
2799.42
2800.93
2802.38
2803.41
2803.95
2804.24
2804.58
2805.12
2805.82
2806.58
2807.35
2808.16
2809.04
2810.01
2811.04
2812.09
2813.14
2814.18
2815.2
2816.23
2817.24
2818.21
2819.1
2819.86
2820.46
2820.89
2821.17
2821.35
2821.51
2821.73
2822.09
2822.66
2823.54
2825.62
2837.75
2846.8
2852.98
2857.2
2860.2
2862.68
2865.54
2870.39
2879.18
2877.55
2714.18
2743.23
2750.44
2756.15
2761.51
2766.27
2770.45
2774.12
2776.87
2775.27
2732.96
2724.34
2725.93
2730.86
2736.72
2742.66
2748.31
2753.54
2758.28
2762.51
2766.22
2769.41
2772.05
2774.18
2775.87
2777.33
2778.79
2780.38
2781.97
2783.15
2783.54
2783.11
2782.23
2781.42
2781.57
2784.12
2787.45
2785.56
2782.37
2782.92
2783.58
2786.37
2790.99
2788.66
2785.99
2787.62
2789.27
2791.2
2792.79
2793.63
2793.79
2793.76
2793.94
2794.45
2795.19
2796
2796.85
2797.75
2798.73
2799.74
2800.76
2801.75
2802.71
2803.66
2804.6
2805.53
2806.41
2807.19
2807.82
2808.27
2808.55
2808.67
2808.71
2808.73
2808.82
2809.05
2809.49
2810.18
2811.21
2813.46
2825.85
2835.14
2841.43
2845.64
2848.59
2851.02
2853.75
2858.31
2866.76
2863.73
2705.14
2733.68
2740.79
2746.42
2751.72
2756.45
2760.65
2764.39
2767.25
2765.88
2724.54
2716.2
2717.8
2722.62
2728.33
2734.1
2739.57
2744.6
2749.13
2753.14
2756.6
2759.54
2761.93
2763.78
2765.15
2766.26
2767.4
2768.82
2770.48
2771.95
2772.66
2772.28
2771.12
2769.79
2769.38
2771.59
2774.98
2773.03
2769.54
2769.99
2770.59
2773.3
2778.21
2775.96
2773.33
2775.44
2777.73
2780.11
2781.73
2782.24
2781.99
2781.68
2781.8
2782.36
2783.16
2784.02
2784.87
2785.72
2786.55
2787.33
2788.04
2788.7
2789.32
2789.93
2790.51
2791.02
2791.39
2791.59
2791.58
2791.38
2791.04
2790.63
2790.23
2789.9
2789.7
2789.67
2789.84
2790.19
2790.76
2792.4
2804.92
2814.37
2820.79
2825.11
2828.2
2830.7
2833.17
2836.86
2843.18
2835.49
2696.25
2724.29
2731.3
2736.84
2742.06
2746.73
2750.92
2754.72
2757.82
2757.23
2719.74
2712.4
2714.04
2718.53
2723.76
2728.95
2733.77
2738.08
2741.82
2744.98
2747.6
2749.71
2751.33
2752.49
2753.23
2753.73
2754.31
2755.31
2756.87
2758.59
2759.74
2759.72
2758.57
2756.9
2755.95
2757.74
2761.14
2759.23
2755.56
2755.98
2756.52
2759.08
2764.19
2762.11
2759.67
2762.42
2765.4
2768.14
2769.67
2769.83
2769.35
2769.1
2769.51
2770.41
2771.47
2772.45
2773.29
2773.97
2774.47
2774.83
2775.09
2775.29
2775.47
2775.62
2775.68
2775.59
2775.31
2774.82
2774.16
2773.4
2772.61
2771.87
2771.25
2770.79
2770.51
2770.4
2770.43
2770.53
2770.64
2771.47
2784.46
2794.29
2800.99
2805.59
2808.91
2811.46
2813.62
2816.39
2820.52
2808.93
2687.5
2715.04
2721.96
2727.41
2732.54
2737.13
2741.22
2744.93
2748.27
2750.84
2750.15
2751.34
2753.39
2755.66
2757.93
2760.12
2762.19
2764.12
2765.93
2767.6
2769.14
2770.57
2771.86
2772.98
2773.88
2774.61
2775.44
2776.76
2778.84
2781.45
2783.8
2784.97
2784.69
2783.38
2782.42
2784.22
2788.07
2786.48
2782.84
2783.45
2783.96
2786.24
2791.33
2788.83
2785.85
2788.43
2791.01
2792.79
2792.87
2791.55
2789.99
2789.22
2789.48
2790.38
2791.43
2792.38
2793.17
2793.81
2794.35
2794.83
2795.27
2795.69
2796.05
2796.28
2796.32
2796.14
2795.73
2795.16
2794.52
2793.9
2793.37
2792.99
2792.78
2792.76
2792.91
2793.21
2793.62
2794.07
2794.49
2794.95
2796.32
2797.43
2798.25
2798.95
2799.6
2800.16
2800.73
2801.97
2804.07
2789.72
2678.84
2705.89
2712.72
2718.09
2723.14
2727.65
2731.65
2735.29
2738.62
2741.63
2744.25
2746.66
2748.93
2751.04
2753
2754.83
2756.53
2758.14
2759.65
2761.08
2762.43
2763.72
2764.93
2766.03
2766.94
2767.64
2768.31
2769.34
2771.18
2773.84
2776.66
2778.57
2778.93
2777.87
2776.65
2778
2781.75
2780.23
2776.55
2777.24
2777.68
2779.69
2784.93
2782.61
2779.81
2782.71
2785.23
2786.37
2785.56
2783.62
2782.01
2781.63
2782.37
2783.6
2784.77
2785.67
2786.36
2786.93
2787.46
2787.99
2788.51
2788.94
2789.23
2789.29
2789.1
2788.7
2788.16
2787.58
2787.06
2786.67
2786.43
2786.37
2786.47
2786.7
2787.04
2787.45
2787.88
2788.31
2788.67
2788.95
2789.19
2789.37
2789.53
2789.71
2789.87
2789.96
2790.14
2790.99
2792.75
2779.24
2670.25
2696.8
2703.54
2708.83
2713.8
2718.24
2722.18
2725.76
2729.06
2732.09
2734.95
2737.47
2739.74
2741.81
2743.71
2745.48
2747.12
2748.67
2750.13
2751.51
2752.83
2754.09
2755.3
2756.45
2757.44
2758.2
2758.78
2759.52
2760.95
2763.34
2766.29
2768.75
2769.81
2769.19
2767.92
2768.86
2772.39
2770.82
2767.04
2767.72
2768
2769.7
2775.16
2773.18
2770.66
2773.77
2776.01
2776.43
2774.98
2772.97
2771.9
2772.28
2773.59
2775.05
2776.18
2776.98
2777.61
2778.23
2778.87
2779.5
2780.03
2780.37
2780.46
2780.29
2779.92
2779.44
2778.97
2778.59
2778.36
2778.3
2778.4
2778.63
2778.97
2779.36
2779.78
2780.21
2780.62
2781.01
2781.36
2781.64
2781.83
2781.95
2782.04
2782.08
2782.07
2782.07
2782.25
2783.22
2785.76
2776.35
2661.7
2687.76
2694.4
2699.61
2704.5
2708.87
2712.75
2716.27
2719.51
2722.5
2725.26
2727.74
2729.98
2732.03
2733.91
2735.66
2737.29
2738.81
2740.25
2741.61
2742.9
2744.14
2745.34
2746.52
2747.63
2748.54
2749.2
2749.81
2750.84
2752.77
2755.52
2758.23
2759.85
2759.77
2758.67
2759.34
2762.61
2760.96
2757.36
2757.9
2757.85
2759.09
2764.35
2762.68
2760.3
2763.31
2764.98
2764.66
2762.87
2761.2
2760.84
2761.78
2763.22
2764.42
2765.22
2765.8
2766.38
2767.03
2767.67
2768.19
2768.47
2768.47
2768.22
2767.79
2767.31
2766.88
2766.58
2766.45
2766.49
2766.67
2766.98
2767.36
2767.78
2768.22
2768.66
2769.09
2769.53
2769.97
2770.39
2770.79
2771.09
2771.31
2771.44
2771.53
2771.64
2771.85
2772.31
2773.65
2777
2769.66
2653.19
2678.76
2685.32
2690.44
2695.25
2699.55
2703.37
2706.83
2710.02
2712.95
2715.63
2718.06
2720.27
2722.29
2724.16
2725.89
2727.5
2729.01
2730.44
2731.78
2733.05
2734.25
2735.42
2736.61
2737.82
2738.96
2739.89
2740.62
2741.48
2742.98
2745.34
2747.98
2749.9
2750.22
2749.32
2749.86
2752.93
2751.2
2746.64
2746.77
2746.09
2746.55
2752.24
2750.62
2748.03
2750.61
2751.63
2750.78
2748.98
2747.78
2747.86
2748.74
2749.62
2750.12
2750.39
2750.69
2751.12
2751.56
2751.86
2751.88
2751.6
2751.11
2750.51
2749.93
2749.48
2749.22
2749.15
2749.27
2749.54
2749.93
2750.39
2750.91
2751.44
2751.98
2752.53
2753.09
2753.69
2754.31
2754.93
2755.5
2755.98
2756.35
2756.66
2756.99
2757.44
2758.03
2758.83
2760.51
2764.26
2756.71
2644.79
2669.87
2676.34
2681.38
2686.12
2690.35
2694.1
2697.51
2700.64
2703.52
2706.15
2708.53
2710.71
2712.7
2714.55
2716.27
2717.87
2719.37
2720.78
2722.12
2723.37
2724.54
2725.67
2726.82
2728.07
2729.41
2730.71
2731.82
2732.84
2734.16
2736.13
2738.53
2740.49
2740.96
2740.07
2740.41
2743.39
2741.75
2741.3
2740.43
2738.17
2736.68
2736.43
2733.96
2730.58
2732.48
2732.85
2731.58
2729.76
2728.64
2728.44
2728.54
2728.49
2728.33
2728.34
2728.63
2729.06
2729.38
2729.44
2729.23
2728.87
2728.5
2728.24
2728.16
2728.3
2728.63
2729.12
2729.73
2730.41
2731.16
2731.92
2732.7
2733.47
2734.23
2734.99
2735.77
2736.56
2737.37
2738.15
2738.86
2739.46
2739.99
2740.5
2741.12
2741.86
2742.66
2743.55
2745.27
2748.79
2739.57
2636.61
2661.22
2667.6
2672.57
2677.23
2681.39
2685.09
2688.44
2691.52
2694.36
2696.94
2699.28
2701.42
2703.39
2705.21
2706.91
2708.5
2709.99
2711.4
2712.74
2713.99
2715.15
2716.23
2717.31
2718.51
2719.91
2721.5
2723.08
2724.54
2726.02
2727.85
2730.08
2732.03
2732.54
2731.45
2731.37
2734.24
2732.19
2714.76
2710.18
2703.89
2698.95
2711.21
2707.93
2704.02
2705.96
2706.51
2705.61
2704.36
2703.69
2703.58
2703.65
2703.8
2704.27
2705.13
2706.18
2707.12
2707.74
2708.05
2708.18
2708.32
2708.6
2709.06
2709.69
2710.46
2711.33
2712.24
2713.19
2714.15
2715.11
2716.05
2716.96
2717.85
2718.71
2719.57
2720.42
2721.27
2722.1
2722.88
2723.59
2724.23
2724.85
2725.5
2726.25
2727.03
2727.73
2728.43
2729.92
2732.88
2721.9
2628.9
2653.05
2659.36
2664.24
2668.83
2672.93
2676.57
2679.87
2682.9
2685.69
2688.24
2690.55
2692.65
2694.59
2696.39
2698.07
2699.65
2701.14
2702.55
2703.89
2705.16
2706.33
2707.41
2708.42
2709.48
2710.76
2712.39
2714.25
2716.17
2718.05
2720.03
2722.29
2724.44
2725.26
2724.17
2723.49
2726.06
2723.8
2750.57
2738.37
2725.68
2716.76
2679.76
2677.36
2675.56
2679.9
2682.29
2682.98
2683.14
2683.6
2684.3
2685.15
2686.25
2687.68
2689.26
2690.67
2691.68
2692.31
2692.75
2693.2
2693.8
2694.58
2695.5
2696.49
2697.52
2698.56
2699.59
2700.6
2701.59
2702.55
2703.47
2704.35
2705.18
2705.99
2706.77
2707.53
2708.27
2708.99
2709.66
2710.29
2710.9
2711.5
2712.14
2712.78
2713.34
2713.74
2714.18
2715.41
2717.8
2705.71
2621.98
2645.72
2651.96
2656.78
2661.3
2665.34
2668.92
2672.17
2675.16
2677.9
2680.4
2682.67
2684.75
2686.66
2688.44
2690.1
2691.67
2693.16
2694.58
2695.94
2697.24
2698.46
2699.56
2700.54
2701.47
2702.52
2703.9
2705.67
2707.78
2709.99
2712.22
2714.66
2717.2
2718.88
2718.65
2717.99
2720.2
2712.75
2649.68
2629.74
2617.94
2614.18
2653.15
2657
2658.37
2664.87
2668.24
2669.77
2670.85
2672.12
2673.5
2674.97
2676.57
2678.22
2679.67
2680.71
2681.36
2681.83
2682.35
2683.04
2683.92
2684.93
2686
2687.06
2688.1
2689.11
2690.09
2691.02
2691.91
2692.75
2693.54
2694.27
2694.96
2695.61
2696.22
2696.81
2697.37
2697.93
2698.47
2699.01
2699.54
2700.05
2700.53
2700.91
2701.15
2701.25
2701.47
2702.47
2704.43
2691.57
2616.23
2639.64
2645.82
2650.59
2655.07
2659.06
2662.61
2665.82
2668.77
2671.48
2673.94
2676.17
2678.2
2680.07
2681.81
2683.44
2684.99
2686.47
2687.89
2689.26
2690.6
2691.87
2693.05
2694.07
2694.93
2695.78
2696.82
2698.25
2700.17
2702.42
2704.79
2707.33
2710.2
2712.96
2714.42
2714.73
2717.16
2702.51
2418.75
2398.82
2391.29
2394.97
2642.01
2652.02
2652.95
2657.92
2659.58
2660.58
2662
2663.85
2665.78
2667.64
2669.36
2670.83
2671.97
2672.8
2673.51
2674.26
2675.17
2676.22
2677.36
2678.52
2679.66
2680.72
2681.73
2682.69
2683.58
2684.41
2685.18
2685.89
2686.55
2687.16
2687.72
2688.24
2688.71
2689.15
2689.59
2690.02
2690.45
2690.88
2691.26
2691.56
2691.76
2691.83
2691.78
2691.68
2691.76
2692.59
2694.19
2680.88
2611.96
2635.12
2641.27
2646.01
2650.48
2654.47
2658.03
2661.26
2664.22
2666.94
2669.41
2671.63
2673.63
2675.47
2677.15
2678.73
2680.21
2681.64
2683.01
2684.35
2685.67
2686.96
2688.18
2689.25
2690.13
2690.88
2691.69
2692.82
2694.44
2696.53
2698.91
2701.47
2704.54
2708.15
2711.36
2713.08
2716.69
2697.32
2234.21
2215.4
2212.11
2221.95
2639.74
2653.34
2651.72
2653.76
2653.38
2654.03
2655.76
2657.83
2659.72
2661.38
2662.9
2664.34
2665.71
2667.04
2668.4
2669.81
2671.28
2672.71
2674.09
2675.38
2676.58
2677.65
2678.64
2679.54
2680.37
2681.14
2681.87
2682.55
2683.2
2683.79
2684.33
2684.8
2685.21
2685.57
2685.9
2686.21
2686.49
2686.72
2686.84
2686.84
2686.71
2686.47
2686.18
2685.92
2685.87
2686.53
2687.9
2674.45
2609.28
2632.28
2638.41
2643.14
2647.61
2651.63
2655.23
2658.53
2661.59
2664.41
2666.99
2669.31
2671.4
2673.29
2675
2676.56
2678.01
2679.36
2680.65
2681.9
2683.12
2684.32
2685.47
2686.51
2687.37
2688.04
2688.72
2689.69
2691.08
2693.03
2695.4
2698.02
2701.29
2705.4
2709.74
2712.16
2716.96
2696.88
2163.68
2146.37
2146.18
2159.46
2647.16
2660.35
2655.17
2654.55
2652.66
2652.81
2653.91
2654.99
2655.91
2657
2658.51
2660.43
2662.59
2664.78
2666.91
2668.92
2670.78
2672.46
2673.94
2675.28
2676.47
2677.52
2678.49
2679.4
2680.28
2681.18
2682.08
2683
2683.88
2684.71
2685.44
2686.06
2686.56
2686.93
2687.2
2687.36
2687.41
2687.32
2687.08
2686.69
2686.18
2685.63
2685.09
2684.61
2684.35
2684.81
2686.08
2672.78
2608.07
2630.97
2637.07
2641.77
2646.21
2650.23
2653.85
2657.2
2660.35
2663.29
2666.02
2668.52
2670.81
2672.89
2674.79
2676.5
2678.06
2679.49
2680.81
2682.05
2683.24
2684.39
2685.49
2686.48
2687.27
2687.8
2688.21
2688.95
2690.04
2691.75
2694.02
2696.58
2700.95
2705.35
2710.3
2712.4
2717.7
2699.42
2156.24
2140.74
2142.92
2159.56
2680.75
2690.51
2678.87
2673.37
2667.34
2663.97
2661.69
2659.96
2659.08
2659.41
2660.9
2663.14
2665.62
2667.99
2670.13
2672.05
2673.01
2674.5
2675.83
2677.04
2678.18
2679.22
2680.23
2681.27
2682.41
2683.69
2685.1
2686.63
2688.2
2689.7
2691.04
2692.14
2692.94
2693.42
2693.6
2693.52
2693.23
2692.76
2692.16
2691.46
2690.7
2689.94
2689.19
2688.47
2687.92
2688.14
2689.38
2676.76
2607.96
2630.82
2636.88
2641.53
2645.91
2649.85
2653.4
2656.68
2659.77
2662.69
2665.43
2668
2670.4
2672.64
2674.74
2676.68
2678.48
2680.14
2681.69
2683.16
2684.57
2685.93
2687.26
2688.5
2689.5
2690.09
2690.62
2691.04
2691.56
2692.61
2693.95
2695.62
2699.11
2702.74
2707.69
2709.86
2718.49
2701.78
2163.24
2147.4
2149.96
2169.44
2706.58
2720.8
2706.75
2699.56
2690.72
2684.29
2678.97
2674.81
2672.24
2671.32
2671.62
2672.51
2673.51
2674.4
2675.24
2676.11
2676.27
2677.2
2678.12
2679.09
2680.12
2681.23
2682.57
2684.25
2686.36
2688.86
2691.61
2694.39
2696.96
2699.11
2700.7
2701.7
2702.16
2702.16
2701.82
2701.24
2700.47
2699.54
2698.49
2697.36
2696.21
2695.11
2694.1
2693.2
2692.57
2692.86
2694.52
2683.11
2608.43
2631.31
2637.36
2641.98
2646.32
2650.18
2653.62
2656.76
2659.69
2662.43
2665
2667.4
2669.66
2671.8
2673.85
2675.79
2677.65
2679.42
2681.12
2682.77
2684.41
2686.09
2687.85
2689.63
2691.22
2692.33
2692.22
2692.55
2692.55
2692.71
2693.75
2693.57
2694.44
2694.9
2697.87
2702.38
2726.84
2712.8
2148.93
2127.07
2128.21
2152.43
2724.54
2744.1
2716.54
2705.76
2695.79
2689.83
2685.66
2682.8
2681.11
2680.26
2679.8
2679.37
2678.88
2678.5
2678.38
2678.56
2678.28
2679.05
2679.98
2681.07
2682.53
2684.64
2687.53
2691.08
2694.9
2698.53
2701.52
2703.63
2704.85
2705.34
2705.31
2704.94
2704.38
2703.73
2703.05
2702.37
2701.68
2700.96
2700.21
2699.42
2698.62
2697.85
2697.11
2696.43
2695.98
2696.46
2698.38
2686.58
2608.99
2631.93
2638
2642.65
2646.99
2650.86
2654.28
2657.38
2660.24
2662.87
2665.29
2667.5
2669.56
2671.49
2673.31
2675.04
2676.69
2678.26
2679.78
2681.26
2682.76
2684.35
2686.15
2688.13
2690.1
2691.74
2696.12
2696.28
2695.45
2694.25
2689.5
2687.34
2685.52
2682.09
2680.62
2686.7
2754.16
2744.04
2221.08
2194.53
2193.84
2220.43
2768.16
2795.6
2730.02
2715.28
2703.04
2694.66
2689.02
2685.48
2683.85
2683.1
2682.38
2681.26
2679.98
2679.21
2679.59
2680.91
2681.34
2682.35
2683.98
2687.04
2691.27
2695.65
2699.24
2701.64
2702.95
2703.48
2703.53
2703.31
2702.92
2702.45
2701.94
2701.43
2700.96
2700.52
2700.16
2699.85
2699.59
2699.34
2699.06
2698.73
2698.36
2697.98
2697.6
2697.22
2697.04
2697.74
2699.64
2686.42
2609.35
2632.32
2638.41
2643.09
2647.48
2651.41
2654.89
2658.06
2660.98
2663.66
2666.11
2668.34
2670.38
2672.27
2674.02
2675.66
2677.19
2678.61
2679.94
2681.17
2682.36
2683.59
2685.03
2686.75
2688.58
2689.85
2677.91
2675.82
2672.33
2668.56
2676.71
2673.06
2669.96
2665.37
2659.09
2634.33
2695.66
2710.59
2700.11
2691.49
2686.39
2683.24
2682.48
2682.72
2683.29
2683.87
2684.21
2684.32
2684.79
2686.64
2689.7
2694.17
2697.65
2699.48
2700.11
2700.06
2699.65
2699.12
2698.58
2698.11
2697.73
2697.43
2697.19
2696.98
2696.8
2696.63
2696.49
2696.39
2696.35
2696.39
2696.47
2696.56
2696.61
2696.6
2696.55
2696.48
2696.37
2696.25
2696.27
2697.07
2698.72
2684.48
2609.41
2632.37
2638.46
2643.14
2647.55
2651.49
2655.01
2658.22
2661.2
2663.94
2666.46
2668.77
2670.89
2672.85
2674.67
2676.38
2677.97
2679.44
2680.8
2682.03
2683.15
2684.2
2685.33
2686.67
2688.14
2689.5
2723.99
2717.49
2709.33
2702.22
2661.04
2657.93
2657.58
2657.73
2658.61
2636.09
2691.14
2712.83
2703.93
2696.33
2691.25
2688.39
2687.55
2688.37
2690.05
2691.81
2693.01
2693.96
2694.91
2695.85
2695.44
2695.47
2694.99
2694.27
2693.53
2692.9
2692.39
2691.99
2691.71
2691.56
2691.52
2691.55
2691.61
2691.69
2691.78
2691.89
2692.02
2692.19
2692.41
2692.7
2693.02
2693.34
2693.62
2693.83
2693.97
2694.05
2694.08
2694.06
2694.17
2694.95
2696.39
2681.58
2609.23
2632.17
2638.25
2642.91
2647.29
2651.22
2654.72
2657.91
2660.88
2663.62
2666.14
2668.45
2670.57
2672.55
2674.4
2676.13
2677.75
2679.27
2680.68
2681.94
2683.05
2684.02
2684.94
2685.91
2686.4
2682.7
2631.85
2616.51
2607.75
2605.76
2640.99
2644.07
2647.93
2652.54
2658.55
2639.79
2688.23
2710.83
2702.94
2695.95
2691.09
2687.99
2686.47
2686.29
2686.86
2687.66
2688.37
2688.81
2688.99
2689.06
2687.95
2687.56
2687.03
2686.5
2686.06
2685.79
2685.65
2685.65
2685.8
2686.07
2686.41
2686.77
2687.13
2687.47
2687.81
2688.14
2688.49
2688.87
2689.3
2689.78
2690.29
2690.78
2691.21
2691.56
2691.82
2691.98
2692.05
2692.04
2692.12
2692.8
2694.01
2678.93
2608.94
2631.86
2637.93
2642.57
2646.93
2650.83
2654.31
2657.47
2660.4
2663.12
2665.62
2667.91
2670.04
2672.02
2673.87
2675.62
2677.26
2678.8
2680.23
2681.51
2682.63
2683.57
2684.4
2685.16
2684.41
2672.67
2399.78
2381.56
2375.86
2381.45
2628.47
2638.4
2644.11
2650.46
2658.8
2642.2
2686.94
2709.72
2701.73
2693.95
2688.22
2684.26
2681.8
2680.57
2680.21
2680.33
2680.86
2681.36
2681.66
2681.84
2681.03
2681.01
2680.97
2680.98
2681.04
2681.21
2681.46
2681.8
2682.23
2682.73
2683.24
2683.75
2684.25
2684.73
2685.2
2685.68
2686.18
2686.71
2687.29
2687.92
2688.56
2689.19
2689.74
2690.19
2690.51
2690.71
2690.78
2690.77
2690.84
2691.48
2692.57
2677.49
2608.65
2631.56
2637.63
2642.27
2646.62
2650.51
2653.96
2657.1
2660
2662.68
2665.14
2667.41
2669.51
2671.47
2673.33
2675.08
2676.73
2678.29
2679.72
2681.02
2682.15
2683.11
2683.96
2684.62
2682.93
2664.61
2207.66
2187.95
2184.98
2196.39
2619.81
2635.18
2641.64
2648.1
2656.44
2640.24
2687.24
2710.45
2702.03
2693.96
2687.56
2682.95
2679.76
2677.77
2676.83
2676.66
2677.03
2677.54
2678.03
2678.46
2678
2678.34
2678.66
2679
2679.32
2679.67
2680.06
2680.48
2680.96
2681.46
2681.97
2682.47
2682.97
2683.48
2684
2684.55
2685.13
2685.75
2686.44
2687.17
2687.92
2688.63
2689.27
2689.78
2690.14
2690.38
2690.49
2690.53
2690.66
2691.34
2692.48
2677.67
2608.42
2631.34
2637.42
2642.07
2646.44
2650.34
2653.8
2656.94
2659.83
2662.49
2664.93
2667.16
2669.22
2671.14
2672.95
2674.66
2676.28
2677.81
2679.22
2680.5
2681.63
2682.6
2683.45
2684.05
2681.87
2660.64
2127.48
2107.12
2105.63
2120.11
2618.43
2635.88
2641.56
2646.41
2652.57
2634.83
2690.32
2715.52
2706.55
2698
2690.65
2685.49
2681.85
2679.33
2678.04
2677.5
2677.56