/*--------------------------------*- C++ -*----------------------------------*\
| =========                 |                                                 |
| \\      /  F ield         | OpenFOAM: The Open Source CFD Toolbox           |
|  \\    /   O peration     | Version:  v2012                                 |
|   \\  /    A nd           | Website:  www.openfoam.com                      |
|    \\/     M anipulation  |                                                 |
\*---------------------------------------------------------------------------*/
FoamFile
{
    version     2.0;
    format      ascii;
    class       volScalarField;
    location    "350/air";
    object      GLeaf;
}
// * * * * * * * * * * * * * * * * * * * * * * * * * * * * * * * * * * * * * //

dimensions      [1 0 -3 0 0 0 0];


internalField   nonuniform List<scalar> 
287104
(
766.784
794.656
797.252
798.719
800.173
801.307
802.091
802.626
802.99
803.199
803.238
803.104
802.814
802.396
801.878
801.277
800.611
799.893
799.132
798.335
797.503
796.641
795.752
794.839
793.908
792.962
792.002
791.032
790.053
789.066
788.073
787.076
786.077
785.074
784.063
783.046
782.044
781.065
780.084
779.091
778.097
777.096
776.114
775.167
774.218
773.267
772.328
771.396
770.471
769.552
768.641
767.739
766.849
765.97
765.101
764.239
763.381
762.527
761.68
760.841
760.014
759.202
758.405
757.627
756.869
756.131
755.417
754.725
754.055
753.406
752.771
752.144
751.524
750.915
750.328
749.776
749.265
748.786
748.313
747.816
747.274
746.694
746.094
745.475
744.793
744.014
743.299
743.511
745.952
734.397
778.136
808.928
811.381
812.541
813.701
814.533
815.031
815.304
815.421
815.386
815.175
814.784
814.234
813.555
812.776
811.916
810.993
810.02
809.007
807.96
806.883
805.777
804.647
803.497
802.331
801.152
799.962
798.763
797.558
796.347
795.133
793.917
792.702
791.483
790.247
788.994
787.772
786.611
785.444
784.244
783.04
781.814
780.618
779.503
778.374
777.223
776.092
774.972
773.863
772.764
771.674
770.594
769.525
768.468
767.422
766.386
765.359
764.341
763.331
762.331
761.344
760.371
759.416
758.479
757.564
756.671
755.804
754.961
754.142
753.343
752.554
751.77
750.986
750.212
749.466
748.769
748.136
747.562
747.019
746.463
745.859
745.2
744.509
743.804
743.066
742.264
741.566
742.012
745.454
734.509
765.732
795.726
797.811
798.71
799.672
800.336
800.681
800.815
800.804
800.65
800.326
799.831
799.182
798.41
797.543
796.601
795.599
794.551
793.466
792.351
791.208
790.04
788.851
787.644
786.424
785.192
783.951
782.701
781.446
780.187
778.926
777.665
776.405
775.143
773.858
772.547
771.274
770.091
768.901
767.66
766.415
765.137
763.895
762.768
761.622
760.434
759.271
758.12
756.982
755.857
754.744
753.644
752.554
751.477
750.411
749.356
748.312
747.278
746.255
745.243
744.245
743.262
742.297
741.353
740.432
739.535
738.664
737.818
736.994
736.186
735.386
734.588
733.792
733.011
732.269
731.59
730.99
730.465
729.981
729.492
728.956
728.359
727.722
727.068
726.379
725.608
724.899
725.398
729.232
719.162
753.486
782.679
784.584
785.352
786.198
786.76
787.017
787.076
787
786.788
786.412
785.871
785.183
784.377
783.477
782.505
781.475
780.402
779.294
778.157
776.994
775.808
774.602
773.38
772.146
770.902
769.649
768.387
767.119
765.847
764.573
763.298
762.026
760.752
759.453
758.115
756.818
755.635
754.446
753.19
751.931
750.631
749.366
748.245
747.103
745.902
744.728
743.567
742.42
741.288
740.168
739.061
737.965
736.88
735.806
734.744
733.694
732.655
731.627
730.61
729.606
728.618
727.648
726.698
725.772
724.87
723.991
723.133
722.291
721.46
720.633
719.81
718.996
718.208
717.471
716.809
716.235
715.741
715.292
714.835
714.326
713.744
713.103
712.42
711.677
710.823
710.005
710.415
714.307
704.704
742.123
770.697
772.514
773.213
773.984
774.475
774.671
774.681
774.565
774.317
773.911
773.349
772.645
771.824
770.912
769.926
768.884
767.799
766.682
765.538
764.369
763.178
761.968
760.743
759.508
758.264
757.013
755.754
754.489
753.217
751.943
750.668
749.396
748.124
746.83
745.494
744.189
743.004
741.82
740.566
739.313
738.022
736.756
735.64
734.511
733.317
732.15
730.997
729.859
728.736
727.627
726.53
725.444
724.37
723.307
722.258
721.221
720.196
719.182
718.178
717.188
716.212
715.256
714.32
713.406
712.513
711.637
710.775
709.922
709.078
708.241
707.417
706.618
705.859
705.163
704.548
704.019
703.562
703.139
702.699
702.19
701.585
700.883
700.092
699.201
698.194
697.25
697.547
701.322
691.92
731.209
759.262
761.026
761.676
762.389
762.823
762.973
762.952
762.818
762.555
762.149
761.582
760.875
760.052
759.133
758.14
757.092
756.002
754.882
753.737
752.568
751.377
750.168
748.945
747.711
746.472
745.228
743.979
742.724
741.462
740.196
738.927
737.659
736.396
735.124
733.821
732.525
731.319
730.125
728.885
727.656
726.409
725.171
724.04
722.918
721.75
720.606
719.479
718.369
717.275
716.194
715.127
714.073
713.034
712.011
711.003
710.009
709.028
708.058
707.102
706.16
705.236
704.331
703.448
702.584
701.737
700.901
700.076
699.26
698.459
697.681
696.936
696.238
695.6
695.038
694.559
694.16
693.819
693.495
693.138
692.692
692.127
691.434
690.615
689.679
688.662
687.784
688.128
691.713
682.076
720.536
748.107
749.828
750.432
751.085
751.452
751.544
751.486
751.339
751.081
750.719
750.157
749.452
748.628
747.707
746.711
745.659
744.569
743.45
742.306
741.141
739.954
738.749
737.529
736.298
735.063
733.828
732.593
731.358
730.118
728.871
727.621
726.369
725.126
723.905
722.691
721.448
720.203
718.989
717.796
716.631
715.506
714.365
713.22
712.139
711.086
710.06
709.063
708.092
707.142
706.213
705.304
704.418
703.556
702.716
701.895
701.091
700.301
699.525
698.765
698.022
697.297
696.591
695.904
695.232
694.573
693.926
693.295
692.689
692.118
691.596
691.134
690.74
690.427
690.202
690.069
690.016
690.01
690.005
689.943
689.756
689.431
688.955
688.333
687.584
686.767
686.149
686.678
689.813
678.515
710.021
737.124
738.808
739.374
739.967
740.253
740.252
740.107
739.895
739.6
739.265
738.666
737.937
737.112
736.201
735.219
734.187
733.117
732.02
730.899
729.755
728.59
727.404
726.199
724.981
723.755
722.533
721.32
720.116
718.916
717.715
716.51
715.317
714.16
713.095
712.13
711.103
709.918
708.799
707.84
706.953
706.217
705.454
704.465
703.596
702.876
702.167
701.494
700.851
700.24
699.67
699.147
698.673
698.247
697.864
697.518
697.208
696.934
696.695
696.493
696.329
696.201
696.108
696.045
696.01
696.001
696.024
696.09
696.21
696.398
696.662
697.004
697.426
697.93
698.523
699.207
699.966
700.76
701.526
702.194
702.675
702.985
703.111
703.075
702.911
702.685
702.582
703.27
705.098
688.602
699.641
726.28
727.933
728.475
729.027
729.245
729.138
728.845
728.436
727.871
726.95
726.007
725.114
724.247
723.346
722.4
721.414
720.395
719.349
718.276
717.175
716.049
714.896
713.719
712.551
711.408
710.298
709.234
708.221
707.255
706.327
705.426
704.539
703.694
703.012
702.56
702.004
701.023
700.121
699.582
699.151
699.028
698.87
698.131
697.593
697.417
697.236
697.109
697.023
696.975
696.968
697.01
697.103
697.239
697.406
697.599
697.817
698.06
698.329
698.624
698.941
699.275
699.621
699.977
700.343
700.729
701.147
701.612
702.139
702.734
703.396
704.118
704.892
705.718
706.602
707.551
708.554
709.573
710.551
711.437
712.231
712.791
713.098
713.205
713.202
713.192
713.36
714.271
715.712
696.285
689.396
715.572
717.196
717.723
718.257
718.446
718.275
717.848
717.117
715.578
709.536
706.053
703.826
702.268
701.008
699.894
698.851
697.836
696.822
695.788
694.725
693.625
692.486
691.306
690.135
688.972
687.822
686.702
685.631
684.618
683.663
682.747
681.77
680.762
679.932
679.446
678.759
677.218
675.747
674.917
674.232
674.068
673.896
672.651
671.696
671.387
671.025
670.716
670.447
670.232
670.091
670.033
670.051
670.132
670.264
670.443
670.671
670.952
671.285
671.664
672.081
672.53
673.007
673.517
674.068
674.678
675.361
676.13
676.99
677.935
678.951
680.024
681.139
682.294
683.491
684.734
686.014
687.303
688.587
690.01
692.855
695.272
697.085
698.392
699.382
700.273
701.344
703.198
705.46
686.685
679.294
705.008
706.601
707.108
707.63
707.825
707.683
707.288
706.226
700.96
649.458
632.725
626.401
623.582
621.872
620.464
619.074
617.613
616.073
614.473
612.844
611.218
609.623
608.081
606.605
605.199
603.866
602.615
601.46
600.405
599.439
598.524
597.636
596.772
596.186
596.14
595.846
594.191
592.522
591.754
591.071
591.05
590.982
589.134
587.565
586.921
586.113
585.313
584.519
583.763
583.07
582.443
581.864
581.316
580.796
580.311
579.873
579.487
579.155
578.871
578.633
578.441
578.305
578.241
578.268
578.406
578.665
579.051
579.556
580.168
580.871
581.651
582.495
583.397
584.348
585.335
586.339
587.359
588.817
592.81
613.85
630.576
642.896
651.916
658.664
664.019
668.816
674.152
680.114
666.146
669.338
694.596
696.158
696.644
697.147
697.337
697.208
696.835
695.736
690.057
636.241
618.911
612.652
610.106
608.718
607.622
606.506
605.274
603.918
602.461
600.936
599.38
597.828
596.313
594.857
593.468
592.14
590.872
589.678
588.577
587.585
586.681
585.794
584.919
584.395
584.641
584.622
582.647
580.589
579.84
579.18
579.447
579.754
577.481
575.496
574.829
573.887
572.922
571.937
570.968
570.025
569.083
568.107
567.083
566.021
564.932
563.821
562.689
561.532
560.35
559.151
557.955
556.791
555.691
554.685
553.798
553.039
552.415
551.924
551.566
551.341
551.247
551.283
551.443
551.719
552.097
552.554
553.075
553.774
555.992
572.476
586.689
598.013
607.046
614.452
620.9
627.23
634.941
645.155
639.091
659.533
684.341
685.877
686.344
686.828
687.004
686.866
686.487
685.384
679.719
626.573
609.426
603.248
600.749
599.396
598.334
597.256
596.067
594.756
593.347
591.872
590.367
588.871
587.424
586.059
584.79
583.599
582.455
581.344
580.288
579.325
578.473
577.676
576.913
576.585
577.285
577.746
575.605
573.277
572.722
572.264
573.029
574.026
571.6
569.479
569.169
568.542
567.945
567.394
566.916
566.487
566.06
565.603
565.112
564.597
564.066
563.511
562.915
562.266
561.565
560.823
560.06
559.296
558.544
557.806
557.071
556.322
555.54
554.709
553.819
552.859
551.82
550.686
549.448
548.098
546.641
545.088
543.467
541.886
541.505
552.929
562.182
569.173
574.73
579.548
584.19
589.413
597.055
609.312
609.682
649.877
674.245
675.759
676.212
676.679
676.842
676.696
676.313
675.223
669.648
617.442
600.585
594.504
592.035
590.694
589.642
588.577
587.403
586.111
584.724
583.27
581.784
580.301
578.869
577.54
576.345
575.264
574.233
573.187
572.111
571.059
570.105
569.243
568.46
568.202
569.229
570.083
567.662
564.901
564.382
563.947
565.009
566.543
563.766
561.239
561.024
560.455
559.979
559.603
559.308
559.024
558.697
558.347
558.026
557.752
557.514
557.286
557.049
556.803
556.572
556.386
556.273
556.245
556.301
556.423
556.59
556.78
556.977
557.168
557.339
557.468
557.523
557.471
557.282
556.937
556.428
555.769
555.003
554.312
555.457
568.669
578.064
584.123
588.202
591.531
594.59
598.042
603.517
612.479
607.027
640.365
664.303
665.803
666.249
666.707
666.86
666.704
666.314
665.231
659.741
608.423
591.847
585.86
583.422
582.096
581.055
580.004
578.847
577.574
576.208
574.778
573.31
571.838
570.412
569.103
567.973
567.024
566.168
565.268
564.232
563.086
561.955
560.931
560.047
559.794
561.087
562.323
559.643
556.42
555.889
555.424
556.69
558.717
555.58
552.578
552.39
551.852
551.49
551.253
551.034
550.714
550.271
549.782
549.336
548.961
548.623
548.282
547.929
547.604
547.347
547.182
547.114
547.133
547.218
547.348
547.51
547.698
547.91
548.14
548.372
548.58
548.729
548.796
548.773
548.678
548.548
548.43
548.381
548.588
550.763
565.61
576.895
585.119
591.475
596.744
601.433
606.232
612.569
620.879
611.465
630.991
654.504
655.996
656.446
656.909
657.067
656.91
656.512
655.425
650.004
599.505
583.189
577.291
574.888
573.584
572.564
571.534
570.401
569.153
567.814
566.411
564.968
563.509
562.081
560.767
559.672
558.845
558.203
557.543
556.652
555.466
554.125
552.837
551.747
551.41
552.883
554.478
551.592
547.925
547.349
546.825
548.211
550.677
547.229
543.764
543.61
543.18
543.015
542.941
542.731
542.252
541.578
540.894
540.328
539.878
539.477
539.077
538.685
538.341
538.078
537.902
537.793
537.722
537.661
537.596
537.522
537.44
537.343
537.211
537.007
536.692
536.232
535.619
534.87
534.038
533.196
532.406
531.701
531.346
533.128
546.762
557.056
564.418
569.886
574.164
577.785
581.521
586.791
594.427
587.984
621.753
644.842
646.327
646.787
647.27
647.458
647.327
646.938
645.849
640.482
590.731
574.661
568.848
566.483
565.205
564.21
563.206
562.099
560.878
559.565
558.19
556.773
555.329
553.892
552.548
551.438
550.679
550.239
549.881
549.258
548.145
546.618
544.989
543.56
543.003
544.525
546.416
543.381
539.298
538.638
538.027
539.433
542.255
538.562
534.695
534.628
534.422
534.537
534.608
534.288
533.509
532.51
531.599
530.916
530.408
529.967
529.546
529.166
528.863
528.64
528.469
528.309
528.13
527.921
527.682
527.417
527.118
526.755
526.286
525.665
524.857
523.855
522.681
521.389
520.055
518.764
517.595
516.614
515.934
516.57
528.017
536.942
543.297
547.842
551.213
554.033
557.152
562.122
570.721
568.382
612.657
635.321
636.793
637.257
637.763
637.999
637.933
637.607
636.569
631.289
582.268
566.454
560.735
558.401
557.135
556.147
555.15
554.049
552.833
551.526
550.159
548.752
547.314
545.858
544.457
543.272
542.491
542.176
542.118
541.862
540.976
539.376
537.404
535.531
534.602
536.013
538.119
535.004
530.571
529.822
529.126
530.484
533.593
529.774
525.654
525.813
526.004
526.486
526.656
526.116
524.962
523.658
522.618
521.948
521.521
521.193
520.914
520.7
520.558
520.457
520.352
520.212
520.033
519.827
519.601
519.345
519.025
518.589
517.992
517.204
516.229
515.102
513.883
512.65
511.489
510.479
509.693
509.184
509.046
510.269
522.571
532.493
539.84
545.328
549.674
553.541
557.656
563.474
572.9
570.363
603.714
625.955
627.408
627.862
628.373
628.647
628.663
628.46
627.592
622.589
574.657
559.232
553.637
551.304
550.002
548.967
547.916
546.758
545.487
544.127
542.716
541.282
539.828
538.354
536.898
535.613
534.74
534.455
534.647
534.826
534.357
532.906
530.727
528.409
526.999
528.145
530.378
527.253
522.558
521.728
520.945
522.169
525.472
521.619
517.397
517.909
518.595
519.405
519.521
518.611
517.051
515.547
514.559
514.1
513.944
513.903
513.912
513.966
514.042
514.105
514.129
514.116
514.09
514.063
514.017
513.909
513.68
513.283
512.699
511.946
511.076
510.164
509.287
508.524
507.937
507.575
507.467
507.621
508.092
509.962
524.441
536.084
544.763
551.349
556.693
561.435
566.054
571.697
579.602
572.924
594.922
616.746
618.179
618.615
619.111
619.39
619.452
619.367
618.787
614.613
570.589
556.226
550.75
548.227
546.682
545.435
544.238
543.017
541.772
540.526
539.305
538.125
536.97
535.799
534.596
533.459
532.639
532.42
532.853
533.522
533.658
532.646
530.524
527.879
525.934
526.658
528.89
525.752
520.805
519.817
518.798
519.629
522.834
518.771
514.308
514.96
515.807
516.438
515.935
514.207
512.007
510.246
509.339
509.142
509.307
509.596
509.925
510.328
510.767
511.197
511.611
512.018
512.425
512.806
513.1
513.242
513.189
512.934
512.517
512.009
511.498
511.065
510.781
510.694
510.832
511.201
511.783
512.552
513.599
516.664
533.216
546.178
555.678
562.808
568.428
573.041
577.021
581.284
586.298
574.601
586.261
607.675
609.092
609.514
609.99
610.242
610.268
610.154
609.875
609.012
605.031
603.038
602.013
601.288
600.639
599.985
599.29
598.54
597.732
596.869
595.958
595.004
593.993
592.878
591.614
590.256
589.055
588.402
588.561
589.295
589.802
589.18
587.142
584.129
581.494
581.647
583.844
580.644
575.421
574.449
573.39
574.082
577.566
573.478
568.939
569.975
571.086
571.474
570.26
567.759
565.144
563.439
562.881
563.079
563.545
564.011
564.416
564.777
565.124
565.486
565.888
566.328
566.767
567.136
567.361
567.4
567.261
566.998
566.695
566.441
566.311
566.357
566.607
567.069
567.734
568.577
569.552
570.599
571.659
572.816
575.018
577.013
578.747
580.358
581.899
583.309
584.653
586.537
588.946
574.374
577.697
598.704
600.107
600.517
600.978
601.213
601.216
601.079
600.845
600.464
599.853
599.177
598.482
597.737
596.94
596.102
595.231
594.335
593.421
592.491
591.551
590.608
589.654
588.641
587.491
586.182
584.884
583.998
583.949
584.752
585.735
585.837
584.423
581.615
578.685
578.342
580.395
577.208
571.919
571.012
569.889
570.36
574.061
570.246
566.025
567.538
568.734
568.618
566.633
563.622
561.042
559.783
559.736
560.255
560.794
561.154
561.374
561.555
561.771
562.05
562.377
562.689
562.904
562.952
562.804
562.488
562.08
561.678
561.375
561.239
561.306
561.584
562.06
562.709
563.499
564.395
565.356
566.338
567.299
568.225
569.14
570.001
570.833
571.664
572.45
573.138
573.848
575.13
577.032
563.18
569.195
589.795
591.184
591.582
592.029
592.253
592.251
592.115
591.896
591.591
591.272
590.752
590.107
589.372
588.572
587.724
586.842
585.936
585.013
584.076
583.13
582.184
581.245
580.283
579.212
577.948
576.551
575.352
574.864
575.365
576.442
577.048
576.278
573.866
570.835
570.03
571.81
568.533
563.088
562.118
560.757
560.825
564.635
561.006
556.87
558.353
558.968
557.781
554.753
551.211
548.654
547.602
547.538
547.689
547.611
547.281
546.866
546.508
546.247
546.041
545.803
545.433
544.867
544.1
543.185
542.219
541.306
540.537
539.967
539.615
539.472
539.51
539.694
539.987
540.357
540.778
541.231
541.697
542.159
542.593
542.957
543.288
543.593
543.867
544.098
544.319
544.681
545.725
547.957
537.695
560.733
580.926
582.303
582.688
583.121
583.333
583.324
583.183
582.961
582.656
582.285
581.768
581.137
580.422
579.644
578.817
577.952
577.061
576.151
575.224
574.283
573.341
572.418
571.517
570.58
569.489
568.191
566.867
566.001
566.06
566.954
567.816
567.618
565.74
562.871
561.801
563.33
559.975
554.727
553.659
552.05
551.764
555.485
552.3
548.423
549.915
550.071
548.246
544.968
541.838
540.064
539.634
539.732
539.649
539.212
538.616
538.083
537.683
537.348
536.95
536.385
535.606
534.632
533.545
532.458
531.472
530.659
530.051
529.646
529.415
529.32
529.317
529.366
529.437
529.51
529.582
529.653
529.725
529.787
529.809
529.739
529.57
529.307
528.986
528.676
528.46
528.47
529.33
532.127
524.048
552.318
572.106
573.471
573.844
574.263
574.464
574.447
574.301
574.074
573.764
573.357
572.834
572.212
571.516
570.761
569.958
569.117
568.249
567.359
566.45
565.518
564.572
563.646
562.781
561.973
561.13
560.118
558.937
557.911
557.553
558.063
558.87
558.976
557.51
554.848
553.644
554.991
551.593
545.494
544.247
542.389
541.81
546.531
543.98
540.497
542.17
542.266
540.488
537.779
535.679
534.909
535.016
535.196
535.083
534.817
534.667
534.722
534.872
534.933
534.769
534.353
533.741
533.033
532.343
531.764
531.342
531.081
530.959
530.935
530.971
531.028
531.072
531.078
531.032
530.936
530.804
530.652
530.482
530.273
529.979
529.548
528.97
528.29
527.601
526.995
526.502
526.175
526.685
529.179
520.198
544.004
563.388
564.742
565.104
565.51
565.702
565.678
565.527
565.296
564.983
564.565
564.04
563.426
562.741
562.003
561.221
560.402
559.556
558.69
557.801
556.884
555.937
554.99
554.113
553.373
552.754
552.128
551.342
550.489
549.954
550.095
550.671
550.82
549.502
546.85
545.453
546.725
543.539
542.006
540.733
538.726
537.879
538.399
536.714
534.089
536.66
537.611
536.854
535.489
534.768
534.884
535.276
535.471
535.513
535.675
536.064
536.532
536.84
536.833
536.504
535.968
535.371
534.83
534.417
534.162
534.047
534.034
534.082
534.157
534.229
534.275
534.275
534.218
534.106
533.949
533.763
533.558
533.327
533.039
532.65
532.128
531.491
530.818
530.208
529.698
529.221
528.802
529.176
531.275
520.481
535.916
554.906
556.25
556.6
556.994
557.177
557.148
556.993
556.76
556.446
556.026
555.504
554.894
554.218
553.492
552.726
551.928
551.105
550.265
549.405
548.516
547.584
546.622
545.696
544.923
544.394
544.075
543.763
543.358
542.989
542.989
543.388
543.524
542.236
539.379
537.552
538.743
535.78
519.551
517.918
515.505
514.386
529.847
529.195
527.337
530.822
532.492
532.382
531.643
531.272
531.259
531.245
531.194
531.347
531.818
532.429
532.879
532.979
532.738
532.305
531.865
531.546
531.392
531.383
531.493
531.672
531.881
532.091
532.285
532.448
532.57
532.64
532.655
532.622
532.555
532.467
532.358
532.214
532.008
531.718
531.345
530.928
530.541
530.231
529.953
529.593
529.233
529.659
531.497
519.324
528.285
546.9
548.233
548.571
548.952
549.125
549.088
548.929
548.694
548.378
547.96
547.44
546.834
546.165
545.45
544.698
543.919
543.12
542.306
541.479
540.629
539.735
538.782
537.803
536.913
536.283
536.017
535.994
536.057
536.085
536.226
536.655
536.966
535.967
533.073
530.62
531.629
530.435
563.684
560.127
554.927
551.147
517.659
517.368
516.677
521.424
523.762
524.11
523.757
523.575
523.584
523.686
524.019
524.689
525.523
526.197
526.49
526.422
526.175
525.948
525.877
525.99
526.239
526.553
526.899
527.241
527.562
527.851
528.101
528.307
528.465
528.574
528.633
528.649
528.633
528.594
528.534
528.446
528.327
528.175
528.003
527.835
527.695
527.561
527.335
526.939
526.548
526.922
528.415
515.338
521.441
539.719
541.044
541.369
541.737
541.898
541.853
541.685
541.442
541.118
540.695
540.17
539.562
538.895
538.186
537.447
536.686
535.912
535.129
534.34
533.539
532.705
531.801
530.808
529.791
528.932
528.433
528.335
528.58
528.935
529.319
529.9
530.579
530.39
528.312
525.84
527.229
524.455
477.492
469.849
465.616
465.731
505.882
509.719
510.39
515.808
517.93
518.17
517.99
518.069
518.358
518.826
519.521
520.336
521.006
521.325
521.317
521.173
521.099
521.197
521.483
521.898
522.359
522.797
523.206
523.574
523.896
524.17
524.394
524.567
524.688
524.762
524.796
524.8
524.784
524.758
524.728
524.7
524.678
524.661
524.642
524.609
524.54
524.385
524.082
523.639
523.284
523.684
524.907
511.188
515.755
533.756
535.079
535.401
535.766
535.928
535.883
535.714
535.467
535.136
534.701
534.161
533.536
532.85
532.125
531.376
530.614
529.848
529.084
528.326
527.572
526.805
525.976
525.026
523.954
522.886
522.044
521.602
521.659
522.043
522.538
523.195
524.177
525.026
524.586
523.043
524.614
514.918
249.95
244.355
246.121
255.019
502.13
511.357
511.047
514.501
514.568
513.989
513.912
514.4
515.087
515.812
516.527
517.125
517.485
517.613
517.653
517.775
518.066
518.502
519.027
519.575
520.085
520.513
520.881
521.182
521.417
521.588
521.7
521.763
521.782
521.765
521.716
521.642
521.553
521.464
521.39
521.343
521.325
521.317
521.283
521.183
520.985
520.664
520.217
519.714
519.378
519.766
520.822
506.89
511.528
529.324
530.654
530.987
531.372
531.563
531.554
531.426
531.218
530.921
530.511
529.982
529.352
528.646
527.886
527.091
526.279
525.466
524.665
523.882
523.119
522.366
521.575
520.672
519.611
518.441
517.353
516.596
516.329
516.539
517.013
517.672
518.823
520.513
521.845
521.773
524.405
509.687
66.6021
63.5034
70.8643
87.1889
504.17
516.375
513.101
513.372
511.228
510.185
510.329
510.925
511.465
511.925
512.4
512.909
513.432
513.983
514.606
515.325
516.11
516.876
517.582
518.2
518.707
519.078
519.347
519.516
519.599
519.613
519.579
519.513
519.422
519.306
519.161
518.993
518.812
518.635
518.481
518.358
518.255
518.136
517.953
517.668
517.276
516.794
516.263
515.756
515.448
515.829
516.827
502.944
508.881
526.538
527.87
528.213
528.623
528.86
528.918
528.877
528.774
528.593
528.301
527.882
527.343
526.701
525.971
525.17
524.318
523.437
522.551
521.673
520.813
519.969
519.106
518.158
517.057
515.787
514.543
513.605
513.095
513.136
513.583
514.298
515.689
518.009
520.726
521.77
525.518
509.198
-4.92381
-6.62624
4.07066
24.24
510.849
522.418
515.474
513.073
509.487
508.064
507.712
507.459
507.154
507.14
507.651
508.651
509.941
511.323
512.674
513.94
515.066
516.002
516.739
517.3
517.687
517.889
517.96
517.926
517.822
517.679
517.519
517.347
517.153
516.919
516.633
516.295
515.913
515.514
515.127
514.772
514.441
514.106
513.727
513.284
512.788
512.281
511.8
511.388
511.178
511.661
512.834
499.383
507.684
525.256
526.568
526.889
527.287
527.526
527.61
527.625
527.613
527.558
527.424
527.189
526.847
526.401
525.853
525.203
524.462
523.649
522.787
521.898
520.994
520.083
519.151
518.138
516.952
515.509
513.982
512.794
511.972
511.772
512.172
512.932
515.66
518.773
522.965
524.855
529.515
510.667
-26.0292
-33.1547
-21.9302
2.44021
524.777
535.259
524.106
518.865
512.95
509.574
507.183
505.255
504.089
504.071
505.155
506.923
508.88
510.694
512.242
513.532
513.845
514.629
515.169
515.513
515.666
515.623
515.494
515.323
515.139
514.957
514.761
514.457
514.011
513.405
512.638
511.741
510.764
509.76
508.793
507.914
507.145
506.489
505.928
505.43
504.967
504.57
504.237
503.971
503.914
504.644
506.371
494.173
507.57
525.109
526.386
526.658
526.991
527.156
527.164
527.11
527.046
526.969
526.852
526.68
526.45
526.162
525.809
525.38
524.872
524.291
523.651
522.971
522.266
521.556
520.84
520.053
519.049
517.653
516.219
514.712
513.369
512.627
512.335
512.653
515.268
518.855
524.819
528.67
537.28
519.848
-14.387
-26.3039
-19.8465
3.26162
538.536
551.12
535.967
528.253
519.482
513.679
509.405
506.488
505.138
505.29
506.449
507.959
509.336
510.398
511.194
511.843
511.609
511.95
512.137
512.22
512.186
512.015
511.796
511.544
511.144
510.609
509.981
509.37
508.827
508.395
508.087
507.884
507.747
507.624
507.457
507.191
506.776
506.17
505.368
504.412
503.409
502.423
501.497
500.664
500.108
500.49
502.247
490.882
508.032
525.591
526.854
527.094
527.373
527.457
527.354
527.161
526.935
526.681
526.386
526.047
525.678
525.29
524.885
524.458
524.004
523.522
523.021
522.517
522.041
521.636
521.332
521.066
520.631
519.737
517.697
516.206
514.579
513.401
513.512
513.032
514.501
516.814
522.787
530.038
553.867
538.495
-20.5572
-38.1558
-33.4431
-6.36696
561.934
577.915
547.42
534.206
522.32
515.04
510.342
507.63
506.556
506.587
507.081
507.533
507.768
507.886
507.986
508.12
507.598
507.842
507.904
507.741
507.477
507.115
506.699
506.493
506.855
507.857
509.399
511.26
513.183
514.949
516.422
517.548
518.333
518.811
519.023
519.005
518.772
518.324
517.658
516.79
515.76
514.62
513.392
512.106
510.951
510.633
511.637
498.736
508.59
526.196
527.476
527.733
528.024
528.107
527.984
527.744
527.439
527.07
526.623
526.102
525.525
524.916
524.286
523.641
522.98
522.304
521.618
520.938
520.307
519.809
519.532
519.463
519.402
519.07
521.677
520.479
518.882
517.561
513.398
512.602
513.028
512.794
514.868
522.167
586.643
572.789
55.677
34.3875
37.664
66.5944
604.497
623.043
550.483
531.189
516.636
507.743
502.689
500.375
500.248
501.074
501.875
502.089
501.907
501.923
502.667
503.836
503.554
503.234
502.793
502.903
503.909
505.87
508.706
511.987
515.269
518.226
520.691
522.621
524.051
525.051
525.699
526.071
526.235
526.254
526.17
526.008
525.768
525.43
524.965
524.363
523.642
522.833
521.947
521.008
520.197
520.188
521.252
507.058
508.942
526.576
527.875
528.162
528.494
528.629
528.566
528.389
528.142
527.821
527.404
526.891
526.296
525.641
524.939
524.195
523.41
522.578
521.695
520.762
519.816
518.949
518.308
517.971
517.792
517.285
504.64
502.966
500.935
499.242
509.614
508.334
507.619
505.356
500.583
473.457
494.406
516.814
511.696
505.878
501.569
497.323
496.505
497.265
498.473
499.538
500.022
499.825
499.404
499.905
501.527
505.012
508.967
513.203
517.099
520.292
522.731
524.538
525.89
526.928
527.729
528.325
528.742
528.998
529.113
529.108
529.023
528.918
528.802
528.685
528.551
528.368
528.097
527.72
527.252
526.715
526.112
525.455
524.925
525.122
526.09
511.058
509
526.627
527.923
528.212
528.554
528.709
528.679
528.545
528.352
528.092
527.743
527.301
526.78
526.196
525.562
524.881
524.152
523.367
522.512
521.568
520.538
519.477
518.522
517.804
517.332
518.143
554.958
552.678
548.891
545.029
506.32
504.692
504.95
504.832
503.784
474.906
500.027
530.285
525.829
519.993
514.956
511.082
508.466
507.578
508.044
509
510.668
513.607
517.452
521.069
522.765
524.585
525.79
526.61
527.211
527.696
528.066
528.336
528.602
528.912
529.209
529.45
529.611
529.69
529.695
529.641
529.554
529.462
529.39
529.348
529.32
529.273
529.165
528.973
528.701
528.361
527.953
527.485
527.105
527.368
528.143
512.671
508.825
526.429
527.711
527.981
528.304
528.441
528.395
528.248
528.044
527.777
527.427
526.991
526.48
525.914
525.302
524.648
523.951
523.204
522.389
521.478
520.441
519.285
518.113
517.053
516.169
515.054
474.084
467.001
463.298
463.473
498.641
500.627
502.606
504.489
505.833
476.851
502.682
535.68
533.146
529.23
526.157
524.034
523.001
523.038
523.794
524.92
526.236
527.413
528.178
528.789
528.22
528.294
528.276
528.225
528.172
528.178
528.207
528.278
528.407
528.574
528.735
528.855
528.92
528.932
528.898
528.833
528.76
528.706
528.691
528.721
528.779
528.829
528.829
528.751
528.591
528.35
528.022
527.626
527.317
527.611
528.319
512.773
508.537
526.124
527.396
527.653
527.957
528.071
528
527.825
527.594
527.303
526.935
526.486
525.972
525.409
524.808
524.17
523.492
522.766
521.972
521.077
520.043
518.86
517.604
516.326
514.313
505.552
245.559
237.984
239.35
248.667
494.228
501.936
504.678
507.045
509.019
479.258
504.474
538.744
536.767
533.152
530.206
528.118
526.901
526.448
526.553
527.043
527.76
528.284
528.588
528.757
527.96
527.878
527.73
527.57
527.411
527.323
527.267
527.256
527.307
527.391
527.466
527.507
527.513
527.488
527.441
527.385
527.339
527.326
527.364
527.453
527.574
527.689
527.751
527.729
527.611
527.395
527.084
526.716
526.453
526.776
527.484
512.071
508.247
525.83
527.105
527.362
527.661
527.764
527.674
527.472
527.21
526.886
526.486
526.009
525.474
524.899
524.296
523.666
523.003
522.292
521.512
520.63
519.611
518.451
517.207
515.843
512.896
497.655
55.7609
48.5612
54.3976
71.1861
492.22
504.68
507.647
509.672
511.175
480.86
506.048
541.23
539.19
534.994
531.745
529.49
528.009
527.146
526.789
526.895
527.229
527.57
527.786
527.881
527.075
526.986
526.843
526.684
526.485
526.316
526.167
526.053
525.985
525.936
525.88
525.81
525.734
525.658
525.588
525.53
525.503
525.522
525.599
525.728
525.888
526.032
526.112
526.088
525.954
525.72
525.412
525.079
524.872
525.253
526.056
510.948
508.026
525.613
526.902
527.175
527.491
527.609
527.525
527.324
527.052
526.712
526.287
525.778
525.204
524.588
523.946
523.279
522.583
521.846
521.045
520.153
519.142
518.002
516.766
515.332
511.814
493.411
-24.5412
-32.08
-24.393
-3.99764
491.647
506.025
508.295
509.122
509.305
479.399
506.271