/*--------------------------------*- C++ -*----------------------------------*\
| =========                 |                                                 |
| \\      /  F ield         | OpenFOAM: The Open Source CFD Toolbox           |
|  \\    /   O peration     | Version:  v2012                                 |
|   \\  /    A nd           | Website:  www.openfoam.com                      |
|    \\/     M anipulation  |                                                 |
\*---------------------------------------------------------------------------*/
FoamFile
{
    version     2.0;
    format      ascii;
    class       volScalarField;
    location    "350/air";
    object      ILambda_10_0;
}
// * * * * * * * * * * * * * * * * * * * * * * * * * * * * * * * * * * * * * //

dimensions      [1 0 -3 0 0 0 0];


internalField   nonuniform List<scalar> 
287104
(
212.462
214.301
215.872
217.221
218.384
219.395
220.288
221.092
221.827
222.502
223.119
223.68
224.191
224.659
225.091
225.492
225.867
226.219
226.551
226.864
227.161
227.444
227.712
227.968
228.214
228.449
228.676
228.894
229.104
229.307
229.504
229.694
229.88
230.06
230.235
230.405
230.572
230.736
230.896
231.053
231.206
231.357
231.505
231.652
231.796
231.938
232.078
232.216
232.351
232.485
232.617
232.747
232.875
233.001
233.125
233.247
233.367
233.484
233.599
233.712
233.823
233.934
234.045
234.155
234.266
234.378
234.49
234.602
234.715
234.827
234.937
235.045
235.15
235.255
235.36
235.469
235.581
235.694
235.804
235.908
236.008
236.107
236.214
236.33
236.457
236.591
236.731
236.939
238.035
235.851
219.555
221.523
223.199
224.627
225.847
226.899
227.82
228.647
229.401
230.091
230.717
231.282
231.791
232.254
232.677
233.068
233.43
233.768
234.083
234.38
234.659
234.922
235.171
235.407
235.631
235.844
236.049
236.244
236.431
236.611
236.784
236.951
237.112
237.268
237.418
237.564
237.706
237.847
237.983
238.115
238.244
238.369
238.493
238.617
238.738
238.856
238.972
239.087
239.2
239.311
239.42
239.528
239.634
239.738
239.841
239.942
240.041
240.137
240.232
240.325
240.416
240.507
240.597
240.688
240.78
240.872
240.966
241.059
241.154
241.248
241.34
241.431
241.519
241.606
241.696
241.791
241.893
241.999
242.103
242.198
242.283
242.362
242.446
242.543
242.655
242.779
242.907
243.119
244.483
242.011
217.29
219.182
220.793
222.167
223.341
224.352
225.239
226.034
226.759
227.422
228.024
228.566
229.056
229.501
229.907
230.282
230.63
230.954
231.256
231.541
231.808
232.06
232.299
232.524
232.739
232.943
233.138
233.325
233.504
233.675
233.84
233.999
234.153
234.301
234.444
234.581
234.716
234.849
234.979
235.104
235.226
235.343
235.46
235.577
235.692
235.803
235.912
236.02
236.127
236.231
236.334
236.435
236.535
236.633
236.729
236.823
236.916
237.006
237.095
237.181
237.267
237.351
237.436
237.52
237.605
237.691
237.778
237.865
237.952
238.039
238.125
238.208
238.289
238.37
238.452
238.539
238.633
238.729
238.824
238.91
238.987
239.06
239.139
239.229
239.334
239.45
239.571
239.772
241.081
238.885
216.241
218.097
219.679
221.027
222.18
223.172
224.043
224.823
225.536
226.187
226.777
227.31
227.791
228.227
228.627
228.995
229.336
229.653
229.951
230.229
230.492
230.739
230.973
231.194
231.404
231.605
231.796
231.979
232.154
232.322
232.483
232.638
232.788
232.932
233.071
233.204
233.335
233.466
233.593
233.714
233.832
233.946
234.058
234.173
234.285
234.392
234.498
234.603
234.706
234.807
234.907
235.005
235.102
235.197
235.29
235.382
235.472
235.56
235.645
235.73
235.812
235.894
235.976
236.058
236.141
236.224
236.308
236.392
236.477
236.561
236.644
236.724
236.803
236.881
236.96
237.045
237.136
237.23
237.322
237.407
237.483
237.555
237.633
237.724
237.828
237.945
238.066
238.271
239.556
237.411
215.493
217.321
218.879
220.207
221.342
222.319
223.176
223.945
224.646
225.287
225.869
226.394
226.867
227.296
227.689
228.051
228.387
228.699
228.992
229.266
229.524
229.767
229.996
230.214
230.421
230.617
230.805
230.985
231.156
231.321
231.479
231.631
231.777
231.918
232.054
232.183
232.31
232.438
232.561
232.679
232.794
232.905
233.013
233.125
233.234
233.338
233.44
233.542
233.642
233.74
233.837
233.932
234.025
234.117
234.208
234.297
234.384
234.469
234.552
234.634
234.714
234.793
234.873
234.952
235.032
235.112
235.194
235.275
235.357
235.438
235.519
235.597
235.673
235.749
235.827
235.91
235.999
236.092
236.183
236.268
236.344
236.418
236.497
236.588
236.694
236.812
236.936
237.142
238.412
236.292
214.733
216.531
218.066
219.373
220.49
221.452
222.296
223.053
223.743
224.374
224.946
225.462
225.928
226.35
226.737
227.093
227.423
227.731
228.018
228.288
228.542
228.781
229.007
229.221
229.424
229.618
229.802
229.978
230.147
230.308
230.463
230.612
230.755
230.893
231.025
231.152
231.276
231.398
231.518
231.632
231.743
231.851
231.956
232.063
232.167
232.267
232.366
232.463
232.559
232.653
232.746
232.836
232.926
233.013
233.1
233.184
233.267
233.348
233.427
233.505
233.581
233.656
233.731
233.806
233.881
233.956
234.032
234.109
234.186
234.262
234.337
234.41
234.481
234.551
234.624
234.702
234.786
234.873
234.959
235.039
235.111
235.179
235.252
235.336
235.435
235.546
235.664
235.856
237.083
234.95
213.977
215.746
217.257
218.544
219.644
220.592
221.422
222.168
222.847
223.468
224.031
224.538
224.996
225.411
225.792
226.143
226.468
226.771
227.054
227.32
227.57
227.806
228.029
228.239
228.439
228.629
228.81
228.983
229.149
229.307
229.458
229.603
229.742
229.876
230.006
230.13
230.25
230.365
230.477
230.586
230.693
230.797
230.898
230.996
231.092
231.185
231.276
231.366
231.453
231.538
231.621
231.703
231.783
231.861
231.938
232.013
232.087
232.158
232.228
232.295
232.361
232.426
232.49
232.554
232.618
232.683
232.748
232.813
232.878
232.942
233.004
233.065
233.122
233.179
233.237
233.299
233.367
233.438
233.507
233.57
233.624
233.673
233.727
233.791
233.868
233.961
234.058
234.219
235.364
233.092
213.235
214.975
216.463
217.73
218.814
219.747
220.565
221.298
221.967
222.576
223.124
223.62
224.068
224.477
224.852
225.198
225.519
225.819
226.1
226.363
226.611
226.845
227.065
227.273
227.47
227.658
227.836
228.006
228.168
228.323
228.47
228.611
228.745
228.872
228.996
229.116
229.228
229.329
229.428
229.526
229.622
229.718
229.808
229.888
229.967
230.048
230.125
230.2
230.273
230.343
230.411
230.476
230.54
230.601
230.661
230.718
230.772
230.824
230.874
230.92
230.965
231.008
231.049
231.089
231.129
231.168
231.208
231.247
231.285
231.322
231.357
231.389
231.419
231.448
231.478
231.513
231.553
231.596
231.638
231.674
231.703
231.728
231.757
231.796
231.851
231.922
232.002
232.14
233.212
230.639
212.506
214.217
215.682
216.93
217.997
218.916
219.721
220.444
221.099
221.687
222.198
222.665
223.095
223.494
223.863
224.209
224.532
224.836
225.122
225.392
225.647
225.887
226.113
226.326
226.526
226.713
226.889
227.055
227.211
227.358
227.497
227.627
227.749
227.863
227.975
228.087
228.186
228.265
228.341
228.423
228.503
228.589
228.667
228.721
228.778
228.841
228.899
228.955
229.007
229.056
229.103
229.149
229.193
229.235
229.275
229.312
229.347
229.38
229.41
229.438
229.463
229.487
229.51
229.532
229.553
229.575
229.596
229.618
229.639
229.659
229.678
229.694
229.709
229.722
229.738
229.758
229.784
229.815
229.845
229.873
229.902
229.926
229.952
229.986
230.035
230.103
230.182
230.315
231.335
228.482
211.788
213.47
214.913
216.142
217.193
218.098
218.891
219.6
220.235
220.754
220.97
221.161
221.424
221.746
222.108
222.492
222.882
223.27
223.647
224.009
224.353
224.676
224.977
225.256
225.512
225.746
225.96
226.156
226.337
226.506
226.664
226.812
226.946
227.067
227.186
227.307
227.414
227.486
227.555
227.639
227.723
227.818
227.905
227.95
227.999
228.062
228.117
228.169
228.216
228.259
228.3
228.339
228.376
228.41
228.441
228.468
228.492
228.512
228.53
228.544
228.556
228.565
228.571
228.577
228.581
228.584
228.587
228.589
228.59
228.59
228.588
228.583
228.577
228.569
228.563
228.562
228.567
228.577
228.589
228.614
228.685
228.756
228.815
228.869
228.928
229.004
229.095
229.245
230.26
227.405
211.082
212.736
214.157
215.367
216.402
217.293
218.074
218.775
219.426
219.333
211.502
210.407
210.777
211.621
212.603
213.594
214.536
215.407
216.197
216.901
217.521
218.058
218.516
218.902
219.22
219.48
219.689
219.857
219.993
220.106
220.203
220.289
220.363
220.429
220.497
220.578
220.648
220.678
220.709
220.767
220.83
220.915
220.995
221.024
221.061
221.124
221.179
221.231
221.278
221.321
221.359
221.394
221.423
221.445
221.46
221.468
221.469
221.463
221.449
221.428
221.399
221.364
221.321
221.272
221.216
221.153
221.085
221.012
220.933
220.849
220.76
220.667
220.57
220.469
220.368
220.266
220.165
220.057
219.905
219.903
222.721
224.734
226.119
227.061
227.704
228.157
228.496
228.826
229.986
227.419
210.387
212.013
213.413
214.604
215.623
216.501
217.27
217.958
218.595
218.378
209.639
208.381
208.758
209.662
210.722
211.792
212.811
213.752
214.604
215.364
216.03
216.605
217.093
217.499
217.83
218.095
218.301
218.46
218.581
218.674
218.75
218.815
218.874
218.93
219
219.097
219.189
219.231
219.28
219.376
219.485
219.63
219.78
219.861
219.957
220.096
220.231
220.368
220.507
220.649
220.794
220.94
221.085
221.228
221.368
221.504
221.637
221.765
221.888
222.004
222.113
222.213
222.303
222.383
222.451
222.507
222.548
222.575
222.587
222.582
222.56
222.521
222.464
222.392
222.304
222.204
222.092
221.965
221.8
221.815
224.312
226.086
227.304
228.132
228.694
229.086
229.384
229.721
230.979
228.801
209.704
211.302
212.681
213.854
214.857
215.722
216.479
217.156
217.778
217.566
209.048
207.81
208.173
209.054
210.091
211.14
212.141
213.066
213.906
214.655
215.311
215.877
216.356
216.751
217.071
217.324
217.516
217.658
217.759
217.83
217.882
217.922
217.957
217.991
218.042
218.128
218.211
218.223
218.24
218.316
218.407
218.543
218.687
218.737
218.803
218.925
219.041
219.161
219.285
219.414
219.545
219.677
219.809
219.94
220.072
220.205
220.339
220.475
220.612
220.752
220.893
221.038
221.185
221.335
221.488
221.645
221.806
221.969
222.136
222.305
222.475
222.645
222.813
222.98
223.144
223.305
223.461
223.608
223.729
224.015
226.298
227.881
228.949
229.676
230.181
230.546
230.842
231.231
232.649
230.923
209.032
210.602
211.96
213.115
214.103
214.955
215.7
216.367
216.979
216.769
208.411
207.193
207.547
208.412
209.43
210.461
211.445
212.356
213.183
213.92
214.566
215.122
215.592
215.979
216.292
216.539
216.727
216.865
216.959
217.021
217.06
217.088
217.111
217.135
217.178
217.265
217.348
217.341
217.333
217.399
217.478
217.612
217.759
217.785
217.825
217.934
218.036
218.142
218.251
218.363
218.474
218.58
218.681
218.775
218.865
218.952
219.036
219.118
219.197
219.274
219.35
219.423
219.496
219.567
219.638
219.709
219.781
219.854
219.929
220.006
220.086
220.169
220.256
220.348
220.447
220.554
220.667
220.786
220.887
221.106
223.333
224.848
225.881
226.625
227.163
227.591
227.984
228.49
230.021
228.447
208.371
209.914
211.251
212.389
213.362
214.2
214.934
215.59
216.193
215.986
207.761
206.562
206.91
207.76
208.762
209.777
210.746
211.643
212.457
213.184
213.82
214.368
214.83
215.21
215.517
215.76
215.948
216.087
216.183
216.242
216.274
216.293
216.307
216.325
216.365
216.457
216.549
216.531
216.507
216.57
216.648
216.788
216.95
216.965
216.992
217.103
217.208
217.32
217.437
217.554
217.664
217.768
217.866
217.962
218.056
218.149
218.239
218.325
218.406
218.481
218.552
218.618
218.681
218.74
218.797
218.851
218.901
218.948
218.991
219.03
219.065
219.095
219.12
219.139
219.155
219.168
219.177
219.178
219.147
219.223
221.386
222.797
223.7
224.298
224.717
225.047
225.356
225.777
227.157
225.339
207.72
209.236
210.554
211.673
212.631
213.457
214.179
214.826
215.42
215.217
207.122
205.942
206.285
207.123
208.109
209.109
210.063
210.947
211.748
212.463
213.09
213.63
214.083
214.456
214.757
214.996
215.184
215.327
215.429
215.491
215.52
215.531
215.536
215.546
215.584
215.683
215.786
215.762
215.727
215.791
215.87
216.018
216.198
216.21
216.23
216.351
216.469
216.598
216.731
216.859
216.974
217.08
217.182
217.286
217.391
217.497
217.599
217.699
217.795
217.888
217.978
218.066
218.152
218.237
218.319
218.401
218.48
218.559
218.635
218.71
218.783
218.852
218.918
218.98
219.041
219.101
219.163
219.217
219.233
219.334
221.379
222.713
223.571
224.141
224.549
224.877
225.192
225.619
226.98
225.265
207.08
208.568
209.867
210.969
211.912
212.725
213.436
214.073
214.658
214.459
206.494
205.334
205.672
206.497
207.469
208.454
209.394
210.264
211.054
211.758
212.375
212.905
213.35
213.715
214.008
214.242
214.428
214.576
214.687
214.758
214.791
214.796
214.791
214.792
214.827
214.93
215.045
215.02
214.976
215.041
215.121
215.278
215.475
215.489
215.508
215.644
215.783
215.936
216.088
216.225
216.344
216.451
216.56
216.675
216.794
216.914
217.032
217.146
217.259
217.37
217.481
217.591
217.701
217.812
217.924
218.037
218.151
218.267
218.385
218.504
218.624
218.745
218.867
218.989
219.114
219.243
219.377
219.513
219.638
219.92
222.035
223.444
224.361
224.977
225.42
225.78
226.122
226.573
227.982
226.572
206.45
207.912
209.191
210.276
211.205
212.005
212.705
213.332
213.909
213.716
205.881
204.743
205.078
205.892
206.849
207.818
208.743
209.598
210.374
211.065
211.67
212.188
212.623
212.977
213.259
213.481
213.661
213.808
213.926
214.008
214.047
214.049
214.033
214.018
214.039
214.138
214.256
214.225
214.167
214.225
214.302
214.459
214.67
214.687
214.708
214.863
215.027
215.204
215.369
215.505
215.615
215.715
215.822
215.938
216.058
216.178
216.292
216.403
216.512
216.619
216.725
216.831
216.938
217.045
217.153
217.262
217.373
217.486
217.601
217.717
217.834
217.951
218.069
218.187
218.307
218.429
218.553
218.678
218.792
219.071
221.191
222.628
223.577
224.219
224.68
225.044
225.371
225.792
227.181
225.705
205.832
207.267
208.527
209.596
210.509
211.297
211.986
212.604
213.175
212.992
205.293
204.182
204.518
205.322
206.265
207.218
208.125
208.96
209.713
210.378
210.954
211.44
211.839
212.156
212.398
212.581
212.723
212.841
212.94
213.012
213.044
213.031
212.987
212.937
212.921
212.99
213.09
213.039
212.957
212.999
213.068
213.222
213.449
213.484
213.527
213.72
213.929
214.143
214.327
214.466
214.572
214.668
214.771
214.882
214.99
215.089
215.177
215.256
215.329
215.397
215.461
215.521
215.579
215.636
215.692
215.747
215.802
215.856
215.91
215.963
216.015
216.064
216.11
216.152
216.192
216.23
216.264
216.294
216.302
216.467
218.623
220.118
221.132
221.827
222.322
222.694
223.001
223.362
224.601
222.834
205.224
206.633
207.875
208.927
209.826
210.601
211.281
211.891
212.463
212.322
204.772
203.706
204.045
204.832
205.742
206.643
207.479
208.223
208.866
209.405
209.844
210.19
210.454
210.643
210.772
210.855
210.914
210.966
211.021
211.071
211.093
211.072
211.012
210.936
210.888
210.927
211.009
210.945
210.845
210.876
210.938
211.09
211.332
211.397
211.484
211.74
212.021
212.3
212.537
212.721
212.871
213.013
213.157
213.295
213.413
213.502
213.564
213.6
213.613
213.61
213.596
213.576
213.552
213.528
213.504
213.481
213.458
213.437
213.416
213.395
213.373
213.349
213.322
213.293
213.26
213.226
213.188
213.141
213.057
213.106
215.596
217.34
218.529
219.346
219.92
220.342
220.667
221
222.107
220.106
204.626
206.01
207.233
208.268
209.154
209.917
210.586
211.184
211.726
212.108
211.61
211.761
212.095
212.475
212.86
213.231
213.581
213.906
214.204
214.476
214.722
214.944
215.142
215.318
215.472
215.608
215.74
215.882
216.047
216.224
216.383
216.489
216.535
216.54
216.556
216.668
216.834
216.811
216.72
216.779
216.842
216.976
217.193
217.155
217.12
217.28
217.45
217.59
217.664
217.683
217.69
217.724
217.79
217.871
217.946
218.007
218.057
218.097
218.13
218.157
218.178
218.195
218.207
218.217
218.224
218.23
218.234
218.238
218.241
218.243
218.244
218.243
218.24
218.236
218.234
218.235
218.24
218.248
218.254
218.285
218.607
218.851
219.028
219.166
219.284
219.393
219.5
219.659
220.563
218.316
204.036
205.394
206.599
207.618
208.49
209.241
209.9
210.491
211.028
211.52
212.031
212.426
212.784
213.113
213.417
213.7
213.964
214.212
214.445
214.664
214.87
215.063
215.246
215.415
215.57
215.711
215.846
215.992
216.164
216.363
216.559
216.712
216.799
216.828
216.85
216.961
217.138
217.118
217.022
217.092
217.153
217.277
217.496
217.437
217.386
217.538
217.685
217.778
217.794
217.764
217.745
217.771
217.835
217.912
217.983
218.042
218.094
218.141
218.185
218.225
218.262
218.295
218.324
218.35
218.373
218.393
218.411
218.427
218.442
218.456
218.467
218.476
218.482
218.488
218.494
218.505
218.521
218.541
218.563
218.58
218.571
218.568
218.573
218.591
218.624
218.671
218.73
218.84
219.677
217.454
203.451
204.783
205.97
206.974
207.832
208.571
209.219
209.803
210.335
210.822
211.282
211.684
212.045
212.374
212.677
212.957
213.218
213.462
213.691
213.907
214.11
214.301
214.482
214.652
214.81
214.953
215.084
215.219
215.377
215.568
215.773
215.95
216.066
216.114
216.138
216.24
216.411
216.382
216.272
216.34
216.384
216.493
216.722
216.665
216.625
216.791
216.934
217.006
217.005
216.979
216.986
217.047
217.142
217.241
217.328
217.403
217.472
217.537
217.599
217.657
217.71
217.759
217.804
217.845
217.882
217.916
217.948
217.977
218.004
218.028
218.05
218.07
218.086
218.101
218.116
218.136
218.16
218.188
218.216
218.239
218.249
218.256
218.267
218.29
218.327
218.378
218.438
218.545
219.382
217.448
202.87
204.176
205.345
206.333
207.177
207.905
208.543
209.118
209.644
210.124
210.56
210.955
211.313
211.64
211.94
212.218
212.476
212.718
212.946
213.16
213.361
213.551
213.73
213.901
214.063
214.212
214.347
214.476
214.619
214.793
214.992
215.181
215.319
215.389
215.424
215.521
215.685
215.65
215.545
215.59
215.593
215.661
215.862
215.802
215.765
215.928
216.047
216.086
216.065
216.044
216.073
216.153
216.256
216.352
216.436
216.51
216.58
216.649
216.713
216.772
216.826
216.874
216.918
216.957
216.992
217.024
217.053
217.08
217.106
217.131
217.154
217.177
217.198
217.22
217.244
217.275
217.312
217.355
217.4
217.441
217.477
217.51
217.547
217.595
217.657
217.733
217.816
217.946
218.816
217.056
202.291
203.572
204.724
205.696
206.527
207.243
207.871
208.436
208.955
209.43
209.861
210.251
210.605
210.927
211.223
211.497
211.753
211.992
212.218
212.43
212.63
212.817
212.994
213.165
213.331
213.49
213.638
213.774
213.913
214.072
214.257
214.445
214.595
214.682
214.726
214.823
214.98
214.936
214.748
214.738
214.657
214.641
214.846
214.75
214.682
214.807
214.874
214.862
214.809
214.78
214.802
214.86
214.922
214.97
215.007
215.038
215.068
215.095
215.117
215.134
215.146
215.157
215.167
215.176
215.187
215.2
215.217
215.238
215.263
215.293
215.327
215.365
215.407
215.453
215.506
215.568
215.639
215.717
215.8
215.88
215.955
216.027
216.104
216.192
216.295
216.411
216.532
216.708
217.623
215.906
201.72
202.975
204.11
205.067
205.884
206.589
207.207
207.764
208.274
208.742
209.168
209.554
209.902
210.221
210.513
210.784
211.037
211.274
211.497
211.708
211.907
212.093
212.268
212.437
212.605
212.773
212.939
213.094
213.243
213.398
213.572
213.753
213.908
214
214.045
214.135
214.282
214.249
214.311
214.152
213.855
213.58
213.27
213.012
212.81
212.808
212.752
212.631
212.494
212.399
212.353
212.328
212.304
212.279
212.263
212.263
212.277
212.299
212.327
212.359
212.398
212.442
212.492
212.548
212.608
212.674
212.745
212.82
212.901
212.985
213.073
213.164
213.257
213.353
213.453
213.56
213.673
213.793
213.915
214.033
214.145
214.252
214.361
214.479
214.608
214.747
214.892
215.095
216.02
214.233
201.164
202.394
203.512
204.454
205.259
205.952
206.56
207.109
207.611
208.073
208.493
208.873
209.217
209.531
209.821
210.089
210.339
210.573
210.795
211.005
211.203
211.389
211.563
211.729
211.895
212.067
212.247
212.425
212.597
212.764
212.938
213.119
213.278
213.374
213.412
213.488
213.636
213.498
212.186
211.497
210.559
209.774
210.088
209.568
209.196
209.094
208.992
208.875
208.787
208.758
208.78
208.828
208.891
208.975
209.083
209.212
209.351
209.491
209.629
209.765
209.9
210.035
210.169
210.302
210.433
210.565
210.695
210.826
210.956
211.087
211.216
211.344
211.47
211.596
211.723
211.852
211.986
212.123
212.259
212.39
212.513
212.628
212.743
212.865
212.994
213.131
213.272
213.468
214.355
212.462
200.638
201.844
202.946
203.873
204.666
205.349
205.948
206.488
206.984
207.439
207.853
208.228
208.568
208.879
209.166
209.431
209.679
209.912
210.132
210.342
210.54
210.727
210.901
211.065
211.225
211.393
211.576
211.766
211.961
212.15
212.338
212.531
212.706
212.82
212.863
212.922
213.045
212.966
214.006
211.739
209.621
208.088
205.276
204.902
204.792
204.997
205.211
205.414
205.629
205.867
206.111
206.35
206.587
206.83
207.081
207.329
207.564
207.783
207.986
208.178
208.361
208.537
208.707
208.871
209.029
209.184
209.334
209.481
209.624
209.764
209.9
210.032
210.16
210.285
210.407
210.53
210.656
210.783
210.906
211.021
211.127
211.225
211.322
211.424
211.533
211.65
211.773
211.951
212.783
210.82
200.164
201.348
202.436
203.35
204.132
204.805
205.396
205.929
206.418
206.867
207.276
207.646
207.983
208.29
208.574
208.838
209.084
209.316
209.536
209.745
209.944
210.133
210.31
210.474
210.63
210.788
210.958
211.144
211.347
211.555
211.762
211.974
212.178
212.338
212.425
212.5
212.64
211.839
206.001
202.466
200.398
199.622
201.082
201.442
201.899
202.584
203.189
203.722
204.202
204.634
205.01
205.342
205.651
205.949
206.235
206.498
206.731
206.941
207.135
207.318
207.494
207.665
207.83
207.989
208.142
208.291
208.434
208.572
208.704
208.831
208.952
209.066
209.175
209.277
209.377
209.476
209.575
209.674
209.771
209.861
209.941
210.013
210.084
210.16
210.243
210.335
210.434
210.583
211.37
209.368
199.767
200.933
202.009
202.913
203.686
204.351
204.935
205.462
205.945
206.389
206.794
207.16
207.493
207.798
208.079
208.341
208.587
208.818
209.037
209.247
209.448
209.64
209.821
209.988
210.142
210.29
210.443
210.613
210.809
211.021
211.241
211.466
211.699
211.921
212.088
212.206
212.422
210.423
190.088
187.35
185.899
186.262
199.649
200.358
200.909
201.653
202.307
202.913
203.467
203.958
204.385
204.767
205.121
205.445
205.738
205.998
206.228
206.434
206.626
206.807
206.981
207.149
207.311
207.465
207.613
207.754
207.889
208.016
208.136
208.249
208.355
208.452
208.541
208.624
208.701
208.775
208.848
208.921
208.99
209.051
209.104
209.148
209.192
209.24
209.297
209.364
209.439
209.562
210.302
208.271
199.468
200.621
201.689
202.585
203.352
204.012
204.592
205.115
205.596
206.037
206.439
206.803
207.134
207.437
207.716
207.977
208.22
208.45
208.669
208.879
209.082
209.277
209.462
209.634
209.79
209.932
210.071
210.233
210.418
210.628
210.853
211.082
211.336
211.613
211.863
212.028
212.334
209.358
176.862
175.093
174.199
175.465
199.19
200.094
200.587
201.245
201.814
202.378
202.911
203.396
203.838
204.251
204.64
205.004
205.334
205.627
205.887
206.124
206.344
206.549
206.743
206.927
207.102
207.267
207.424
207.572
207.712
207.844
207.968
208.083
208.188
208.283
208.365
208.437
208.499
208.555
208.605
208.652
208.692
208.723
208.743
208.755
208.765
208.781
208.805
208.842
208.887
208.979
209.679
207.633
199.278
200.422
201.484
202.376
203.139
203.797
204.376
204.899
205.38
205.822
206.226
206.591
206.924
207.228
207.508
207.769
208.012
208.242
208.46
208.669
208.872
209.068
209.257
209.433
209.593
209.732
209.863
210.03
210.215
210.427
210.66
210.884
211.138
211.447
211.738
211.881
212.213
208.873
171.345
170.03
169.421
171.13
199.497
200.463
200.844
201.348
201.753
202.188
202.623
203.04
203.45
203.861
204.272
204.672
205.048
205.39
205.702
205.991
206.271
206.52
206.752
206.969
207.175
207.369
207.556
207.736
207.91
208.077
208.236
208.385
208.522
208.645
208.751
208.841
208.912
208.967
209.006
209.029
209.035
209.025
208.998
208.96
208.919
208.885
208.862
208.852
208.854
208.906
209.569
207.512
199.188
200.328
201.386
202.275
203.036
203.693
204.271
204.795
205.278
205.723
206.131
206.501
206.839
207.149
207.436
207.702
207.951
208.185
208.406
208.618
208.822
209.022
209.218
209.403
209.57
209.705
209.825
209.993
210.172
210.388
210.631
210.845
211.286
211.574
211.825
211.809
212.081
208.948
170.646
169.524
169.097
171.356
204.859
205.095
204.529
204.156
203.817
203.69
203.702
203.809
204.005
204.278
204.61
204.969
205.326
205.667
205.991
206.301
206.46
206.745
207.007
207.26
207.505
207.738
207.96
208.174
208.386
208.602
208.826
209.06
209.297
209.529
209.741
209.92
210.053
210.136
210.17
210.163
210.123
210.06
209.985
209.904
209.823
209.749
209.68
209.615
209.554
209.542
210.148
208.079
199.175
200.313
201.37
202.258
203.017
203.672
204.248
204.77
205.252
205.697
206.106
206.48
206.822
207.138
207.432
207.706
207.965
208.209
208.44
208.662
208.876
209.088
209.3
209.507
209.693
209.837
209.97
210.118
210.261
210.444
210.646
210.803
211.172
211.314
211.359
211.083
211.424
208.447
171.043
169.968
169.65
172.364
208.966
209.688
208.996
208.374
207.685
207.177
206.756
206.421
206.205
206.118
206.14
206.234
206.368
206.528
206.713
206.927
207.01
207.257
207.495
207.734
207.968
208.197
208.438
208.717
209.056
209.459
209.909
210.373
210.811
211.186
211.472
211.656
211.746
211.756
211.707
211.617
211.496
211.351
211.19
211.02
210.853
210.7
210.566
210.454
210.363
210.337
210.954
208.945
199.204
200.344
201.402
202.29
203.048
203.701
204.276
204.795
205.273
205.714
206.119
206.489
206.829
207.144
207.438
207.716
207.979
208.231
208.472
208.705
208.932
209.16
209.396
209.634
209.853
210.019
210.09
210.205
210.275
210.369
210.532
210.531
210.647
210.408
209.996
209.621
210.739
207.946
169.799
168.598
168.318
171.391
210.073
211.063
209.784
209.205
208.706
208.433
208.18
207.933
207.731
207.587
207.493
207.429
207.397
207.409
207.474
207.588
207.607
207.817
208.011
208.194
208.419
208.757
209.246
209.864
210.542
211.189
211.722
212.097
212.314
212.402
212.399
212.338
212.244
212.136
212.022
211.909
211.794
211.676
211.551
211.423
211.298
211.184
211.084
210.999
210.928
210.919
211.573
209.545
199.245
200.387
201.447
202.336
203.096
203.75
204.324
204.843
205.319
205.758
206.16
206.525
206.86
207.17
207.46
207.733
207.994
208.245
208.487
208.722
208.954
209.191
209.44
209.698
209.939
210.149
210.508
210.552
210.48
210.353
209.978
209.692
209.448
208.731
207.793
207.662
209.78
207.395
173.735
172.417
172.158
175.359
212.192
214.226
212.226
211.541
210.619
209.794
209.147
208.688
208.462
208.349
208.239
208.072
207.896
207.819
207.937
208.188
208.22
208.362
208.616
209.158
209.935
210.754
211.43
211.884
212.13
212.223
212.219
212.158
212.066
211.963
211.858
211.76
211.672
211.597
211.537
211.489
211.447
211.404
211.355
211.3
211.244
211.192
211.148
211.111
211.083
211.114
211.812
209.706
199.274
200.418
201.479
202.37
203.132
203.788
204.365
204.886
205.365
205.806
206.209
206.575
206.91
207.219
207.508
207.78
208.039
208.288
208.53
208.765
208.999
209.237
209.491
209.756
210.013
210.152
209.276
209.037
208.566
208.072
208.39
207.822
207.389
206.648
206.121
202.517
212.598
212.598
211.057
209.819
209.054
208.534
208.411
208.427
208.499
208.584
208.641
208.659
208.735
209.066
209.629
210.48
211.156
211.54
211.707
211.74
211.69
211.591
211.472
211.352
211.243
211.15
211.075
211.015
210.968
210.932
210.906
210.892
210.892
210.902
210.916
210.928
210.932
210.927
210.921
210.919
210.923
210.932
210.945
211.012
211.73
209.565
199.283
200.427
201.489
202.38
203.143
203.8
204.379
204.902
205.383
205.826
206.232
206.601
206.939
207.251
207.542
207.817
208.08
208.332
208.578
208.82
209.06
209.305
209.564
209.834
210.073
210.329
212.28
211.103
209.739
208.528
205.565
205.154
205.138
205.161
205.814
202.443
211.506
212.538
211.377
210.427
209.745
209.345
209.247
209.408
209.716
210.045
210.271
210.46
210.661
210.884
210.876
210.969
210.933
210.826
210.698
210.579
210.472
210.374
210.289
210.22
210.17
210.138
210.122
210.117
210.123
210.137
210.16
210.192
210.234
210.284
210.335
210.382
210.418
210.445
210.468
210.493
210.522
210.558
210.6
210.69
211.42
209.225
199.274
200.418
201.479
202.369
203.132
203.789
204.367
204.89
205.371
205.815
206.221
206.591
206.929
207.242
207.535
207.812
208.077
208.333
208.584
208.831
209.079
209.332
209.598
209.875
210.104
209.706
205.575
202.989
201.373
200.838
202.362
202.802
203.57
204.433
206
203.224
211.014
212.208
211.265
210.467
209.847
209.441
209.261
209.286
209.431
209.61
209.76
209.859
209.91
209.937
209.731
209.682
209.589
209.493
209.411
209.35
209.307
209.28
209.272
209.28
209.302
209.334
209.374
209.42
209.47
209.525
209.585
209.651
209.724
209.801
209.878
209.948
210.006
210.053
210.094
210.135
210.179
210.228
210.28
210.372
211.088
208.875
199.256
200.398
201.458
202.348
203.109
203.766
204.343
204.865
205.345
205.788
206.193
206.563
206.902
207.215
207.509
207.786
208.052
208.31
208.563
208.814
209.066
209.322
209.585
209.855
210.091
208.44
189.455
187.218
186.027
186.668
201.074
201.996
203.043
204.216
206.187
203.782
210.852
212.011
211.045
210.1
209.337
208.803
208.489
208.359
208.351
208.395
208.493
208.578
208.628
208.661
208.503
208.517
208.512
208.509
208.515
208.533
208.559
208.596
208.643
208.7
208.764
208.833
208.906
208.981
209.058
209.137
209.219
209.306
209.398
209.495
209.589
209.677
209.751
209.814
209.869
209.923
209.978
210.036
210.093
210.184
210.888
208.675
199.236
200.378
201.437
202.327
203.087
203.743
204.319
204.84
205.319
205.76
206.165
206.534
206.872
207.184
207.477
207.755
208.02
208.278
208.532
208.783
209.036
209.292
209.549
209.803
210.03
207.258
175.434
173.808
173.064
174.667
200.373
201.602
202.709
203.901
205.9
203.606
210.917
212.091
211.05
210.067
209.188
208.531
208.085
207.831
207.733
207.735
207.806
207.885
207.96
208.029
207.926
207.999
208.053
208.107
208.162
208.213
208.269
208.33
208.398
208.471
208.548
208.627
208.71
208.794
208.88
208.968
209.06
209.157
209.26
209.367
209.474
209.574
209.662
209.737
209.806
209.873
209.941
210.01
210.077
210.174
210.881
208.685
199.222
200.363
201.422
202.312
203.072
203.728
204.304
204.824
205.302
205.743
206.146
206.514
206.85
207.161
207.452
207.728
207.991
208.246
208.496
208.745
208.994
209.247
209.496
209.732
209.934
206.629
169.148
167.807
167.302
169.404
200.312
201.643
202.641
203.613
205.292
202.789
211.433
212.921
211.778
210.778
209.737
208.963
208.407