/*--------------------------------*- C++ -*----------------------------------*\
| =========                 |                                                 |
| \\      /  F ield         | OpenFOAM: The Open Source CFD Toolbox           |
|  \\    /   O peration     | Version:  v2012                                 |
|   \\  /    A nd           | Website:  www.openfoam.com                      |
|    \\/     M anipulation  |                                                 |
\*---------------------------------------------------------------------------*/
FoamFile
{
    version     2.0;
    format      ascii;
    class       volScalarField;
    location    "350/air";
    object      ILambda_27_0;
}
// * * * * * * * * * * * * * * * * * * * * * * * * * * * * * * * * * * * * * //

dimensions      [1 0 -3 0 0 0 0];


internalField   nonuniform List<scalar> 
287104
(
191.087
212.198
218.45
219.882
220.474
221.181
222.021
222.876
223.68
224.414
225.076
225.673
226.213
226.706
227.159
227.579
227.97
228.335
228.678
229.001
229.307
229.596
229.871
230.133
230.383
230.622
230.852
231.073
231.285
231.49
231.688
231.879
232.065
232.246
232.421
232.591
232.758
232.921
233.08
233.236
233.389
233.538
233.684
233.829
233.972
234.113
234.251
234.387
234.521
234.654
234.784
234.912
235.039
235.164
235.288
235.409
235.529
235.646
235.761
235.874
235.986
236.096
236.205
236.314
236.423
236.532
236.641
236.75
236.859
236.968
237.076
237.183
237.287
237.39
237.493
237.598
237.709
237.825
237.944
238.062
238.173
238.277
238.375
238.476
238.586
238.709
238.844
238.997
239.187
240.317
192.158
215.778
223.313
224.924
225.261
225.715
226.431
227.264
228.09
228.849
229.524
230.118
230.647
231.124
231.559
231.961
232.333
232.679
233.002
233.305
233.59
233.859
234.113
234.354
234.582
234.799
235.007
235.205
235.395
235.577
235.753
235.922
236.085
236.243
236.395
236.542
236.685
236.826
236.964
237.097
237.227
237.354
237.477
237.601
237.722
237.841
237.958
238.073
238.186
238.297
238.407
238.515
238.622
238.727
238.83
238.932
239.033
239.131
239.228
239.323
239.416
239.509
239.6
239.692
239.783
239.874
239.966
240.058
240.15
240.242
240.334
240.424
240.512
240.598
240.686
240.777
240.874
240.978
241.086
241.192
241.292
241.382
241.465
241.549
241.642
241.75
241.871
242.014
242.216
243.579
191.449
214.165
221.345
222.872
223.186
223.61
224.289
225.09
225.893
226.634
227.293
227.872
228.383
228.842
229.261
229.647
230.005
230.338
230.65
230.942
231.216
231.475
231.72
231.951
232.171
232.38
232.579
232.769
232.951
233.126
233.294
233.456
233.611
233.762
233.907
234.047
234.183
234.317
234.448
234.576
234.699
234.818
234.935
235.052
235.168
235.28
235.39
235.499
235.606
235.711
235.814
235.916
236.017
236.116
236.213
236.309
236.403
236.495
236.586
236.675
236.762
236.849
236.934
237.019
237.104
237.19
237.275
237.36
237.446
237.532
237.616
237.699
237.78
237.86
237.941
238.025
238.114
238.21
238.309
238.408
238.499
238.581
238.657
238.734
238.821
238.921
239.035
239.174
239.382
240.725
191.04
213.329
220.35
221.847
222.172
222.606
223.283
224.073
224.862
225.59
226.237
226.806
227.308
227.759
228.171
228.55
228.902
229.229
229.535
229.822
230.091
230.345
230.585
230.812
231.027
231.232
231.427
231.614
231.792
231.963
232.127
232.285
232.437
232.584
232.725
232.861
232.993
233.123
233.252
233.375
233.495
233.611
233.723
233.837
233.949
234.058
234.165
234.27
234.374
234.476
234.576
234.675
234.772
234.868
234.962
235.055
235.146
235.236
235.324
235.41
235.495
235.578
235.661
235.744
235.826
235.908
235.991
236.074
236.157
236.239
236.321
236.402
236.48
236.558
236.636
236.717
236.804
236.897
236.995
237.091
237.181
237.263
237.338
237.414
237.501
237.602
237.716
237.857
238.07
239.397
190.659
212.6
219.513
220.988
221.311
221.742
222.41
223.189
223.965
224.68
225.316
225.875
226.37
226.814
227.218
227.591
227.937
228.259
228.56
228.842
229.107
229.357
229.593
229.816
230.027
230.228
230.42
230.603
230.778
230.945
231.106
231.261
231.409
231.553
231.691
231.823
231.951
232.078
232.203
232.324
232.44
232.552
232.662
232.772
232.881
232.987
233.09
233.192
233.292
233.391
233.488
233.584
233.678
233.771
233.862
233.952
234.04
234.127
234.212
234.295
234.377
234.458
234.539
234.618
234.698
234.778
234.858
234.938
235.018
235.098
235.177
235.255
235.331
235.407
235.483
235.562
235.648
235.74
235.836
235.932
236.022
236.103
236.179
236.257
236.344
236.446
236.562
236.705
236.918
238.229
190.282
211.88
218.684
220.137
220.455
220.879
221.537
222.303
223.067
223.771
224.396
224.947
225.433
225.87
226.268
226.635
226.976
227.292
227.588
227.866
228.127
228.373
228.604
228.824
229.032
229.229
229.417
229.597
229.769
229.934
230.091
230.243
230.388
230.528
230.663
230.793
230.918
231.041
231.161
231.278
231.391
231.5
231.606
231.712
231.816
231.918
232.018
232.115
232.211
232.306
232.399
232.49
232.58
232.668
232.755
232.84
232.924
233.007
233.088
233.167
233.244
233.321
233.397
233.472
233.547
233.621
233.696
233.771
233.846
233.921
233.995
234.068
234.139
234.209
234.28
234.354
234.434
234.52
234.611
234.701
234.786
234.862
234.932
235.003
235.084
235.178
235.288
235.42
235.614
236.861
189.912
211.17
217.868
219.298
219.612
220.029
220.677
221.432
222.183
222.876
223.492
224.033
224.511
224.94
225.333
225.694
226.029
226.342
226.633
226.907
227.164
227.406
227.635
227.851
228.055
228.249
228.434
228.611
228.78
228.941
229.095
229.243
229.385
229.521
229.653
229.78
229.901
230.018
230.132
230.242
230.35
230.455
230.557
230.656
230.752
230.847
230.938
231.028
231.116
231.201
231.285
231.367
231.447
231.526
231.603
231.679
231.753
231.826
231.897
231.966
232.033
232.099
232.164
232.228
232.292
232.356
232.419
232.482
232.546
232.609
232.67
232.73
232.787
232.843
232.899
232.958
233.022
233.092
233.165
233.238
233.305
233.363
233.413
233.464
233.525
233.6
233.689
233.797
233.946
235.031
189.548
210.471
217.064
218.473
218.782
219.193
219.832
220.575
221.315
221.995
222.597
223.125
223.592
224.013
224.399
224.756
225.087
225.396
225.685
225.956
226.211
226.451
226.678
226.891
227.094
227.285
227.467
227.641
227.806
227.964
228.115
228.259
228.395
228.526
228.651
228.773
228.889
228.995
229.094
229.192
229.288
229.384
229.477
229.561
229.64
229.719
229.797
229.872
229.945
230.016
230.084
230.15
230.214
230.276
230.336
230.393
230.449
230.502
230.552
230.6
230.646
230.69
230.732
230.772
230.812
230.85
230.888
230.925
230.962
230.997
231.031
231.063
231.093
231.121
231.149
231.179
231.215
231.257
231.302
231.348
231.388
231.421
231.447
231.473
231.509
231.562
231.632
231.721
231.837
232.692
189.19
209.784
216.274
217.66
217.965
218.371
219
219.732
220.459
221.123
221.691
222.184
222.626
223.032
223.41
223.764
224.096
224.409
224.704
224.982
225.244
225.492
225.726
225.946
226.153
226.346
226.528
226.698
226.859
227.01
227.152
227.286
227.412
227.529
227.642
227.754
227.86
227.948
228.025
228.104
228.182
228.265
228.348
228.412
228.468
228.527
228.586
228.642
228.695
228.745
228.793
228.838
228.882
228.924
228.965
229.003
229.038
229.072
229.103
229.132
229.158
229.183
229.207
229.229
229.25
229.271
229.291
229.311
229.331
229.35
229.367
229.384
229.398
229.411
229.425
229.441
229.464
229.492
229.525
229.56
229.598
229.63
229.656
229.68
229.712
229.76
229.829
229.915
230.016
230.672
188.838
209.108
215.495
216.861
217.162
217.562
218.181
218.901
219.611
220.243
220.554
220.756
220.976
221.252
221.581
221.95
222.339
222.733
223.123
223.499
223.857
224.195
224.511
224.804
225.074
225.32
225.545
225.751
225.94
226.114
226.277
226.43
226.571
226.698
226.817
226.938
227.053
227.142
227.213
227.29
227.37
227.46
227.553
227.617
227.667
227.723
227.779
227.833
227.882
227.928
227.97
228.01
228.047
228.082
228.114
228.143
228.168
228.19
228.209
228.225
228.237
228.248
228.255
228.261
228.265
228.268
228.27
228.27
228.27
228.268
228.264
228.259
228.251
228.242
228.234
228.228
228.228
228.234
228.245
228.265
228.343
228.434
228.509
228.567
228.619
228.681
228.763
228.866
228.986
229.617
188.491
208.442
214.73
216.074
216.371
216.766
217.376
218.087
218.738
219.709
214.65
211.092
210.047
210.478
211.47
212.565
213.603
214.545
215.392
216.149
216.819
217.404
217.908
218.334
218.689
218.98
219.214
219.402
219.552
219.673
219.775
219.864
219.942
220.009
220.074
220.147
220.223
220.271
220.301
220.346
220.401
220.475
220.561
220.613
220.65
220.701
220.756
220.811
220.862
220.908
220.95
220.988
221.021
221.048
221.068
221.08
221.086
221.084
221.075
221.058
221.035
221.003
220.965
220.919
220.867
220.808
220.742
220.671
220.594
220.511
220.424
220.332
220.235
220.134
220.031
219.927
219.823
219.716
219.608
219.307
220.989
223.208
225.053
226.335
227.167
227.711
228.093
228.398
228.681
229.528
188.15
207.788
213.976
215.3
215.593
215.982
216.583
217.283
217.913
218.887
213.513
209.587
208.344
208.758
209.826
211.019
212.141
213.148
214.045
214.843
215.549
216.166
216.697
217.144
217.513
217.812
218.047
218.229
218.368
218.474
218.558
218.627
218.688
218.744
218.805
218.889
218.986
219.052
219.1
219.174
219.27
219.399
219.553
219.666
219.761
219.881
220.014
220.153
220.294
220.437
220.583
220.732
220.88
221.028
221.174
221.316
221.455
221.59
221.72
221.844
221.962
222.072
222.173
222.264
222.344
222.412
222.466
222.507
222.532
222.541
222.534
222.509
222.467
222.408
222.333
222.244
222.142
222.027
221.907
221.648
223.041
224.921
226.505
227.605
228.309
228.756
229.065
229.335
229.658
230.767
187.815
207.144
213.235
214.539
214.827
215.211
215.803
216.492
217.112
218.058
212.793
208.952
207.736
208.141
209.19
210.364
211.469
212.459
213.342
214.126
214.821
215.428
215.948
216.385
216.744
217.03
217.253
217.42
217.54
217.625
217.684
217.729
217.765
217.797
217.837
217.904
217.991
218.035
218.052
218.099
218.172
218.283
218.428
218.519
218.582
218.675
218.785
218.902
219.023
219.148
219.276
219.405
219.535
219.665
219.794
219.925
220.056
220.189
220.324
220.462
220.601
220.743
220.889
221.038
221.19
221.347
221.508
221.672
221.84
222.012
222.186
222.362
222.537
222.712
222.885
223.056
223.223
223.384
223.542
223.603
225.03
226.774
228.188
229.155
229.777
230.185
230.482
230.779
231.196
232.67
187.485
206.51
212.506
213.789
214.074
214.452
215.035
215.714
216.324
217.253
212.074
208.299
207.105
207.503
208.532
209.685
210.77
211.746
212.615
213.388
214.073
214.67
215.182
215.611
215.963
216.243
216.461
216.624
216.74
216.818
216.867
216.899
216.924
216.945
216.976
217.04
217.129
217.164
217.16
217.192
217.252
217.357
217.505
217.586
217.626
217.702
217.797
217.901
218.009
218.12
218.231
218.339
218.441
218.538
218.629
218.716
218.799
218.88
218.959
219.035
219.109
219.181
219.251
219.32
219.387
219.455
219.523
219.591
219.661
219.733
219.807
219.884
219.965
220.05
220.142
220.24
220.345
220.459
220.585
220.585
221.959
223.639
225.001
225.959
226.601
227.057
227.439
227.846
228.385
229.986
187.16
205.887
211.788
213.052
213.333
213.705
214.279
214.948
215.549
216.463
211.368
207.653
206.478
206.868
207.881
209.014
210.083
211.043
211.899
212.661
213.336
213.924
214.428
214.85
215.195
215.47
215.686
215.85
215.967
216.044
216.09
216.114
216.129
216.143
216.168
216.234
216.331
216.365
216.349
216.372
216.428
216.536
216.696
216.778
216.808
216.88
216.976
217.085
217.201
217.319
217.433
217.541
217.642
217.739
217.834
217.928
218.02
218.108
218.193
218.271
218.345
218.414
218.479
218.541
218.6
218.655
218.708
218.757
218.802
218.844
218.881
218.913
218.94
218.961
218.978
218.991
219
219.003
219.006
218.863
220.138
221.723
222.969
223.786
224.296
224.642
224.928
225.248
225.686
226.997
186.841
205.273
211.082
212.326
212.603
212.969
213.535
214.194
214.786
215.686
210.672
207.017
205.861
206.246
207.242
208.358
209.41
210.356
211.199
211.95
212.614
213.193
213.689
214.103
214.441
214.711
214.925
215.09
215.213
215.295
215.341
215.36
215.367
215.372
215.391
215.459
215.565
215.602
215.578
215.597
215.652
215.763
215.939
216.027
216.053
216.127
216.233
216.357
216.49
216.622
216.745
216.856
216.959
217.062
217.166
217.271
217.375
217.476
217.574
217.669
217.761
217.851
217.939
218.025
218.109
218.192
218.274
218.354
218.433
218.51
218.585
218.658
218.728
218.794
218.857
218.921
218.985
219.045
219.1
219.008
220.227
221.732
222.917
223.699
224.194
224.536
224.828
225.157
225.609
226.925
186.527
204.669
210.386
211.611
211.884
212.245
212.802
213.451
214.034
214.921
209.987
206.391
205.254
205.633
206.615
207.715
208.751
209.683
210.513
211.252
211.906
212.476
212.963
213.369
213.698
213.962
214.172
214.338
214.468
214.559
214.612
214.631
214.631
214.626
214.638
214.705
214.821
214.863
214.834
214.85
214.905
215.02
215.209
215.306
215.333
215.415
215.537
215.684
215.839
215.986
216.115
216.228
216.336
216.446
216.562
216.681
216.8
216.916
217.029
217.141
217.252
217.362
217.472
217.583
217.694
217.807
217.92
218.036
218.152
218.271
218.391
218.511
218.633
218.755
218.879
219.006
219.137
219.271
219.417
219.483
220.821
222.415
223.668
224.5
225.034
225.408
225.729
226.083
226.557
228.088
186.218
204.075
209.702
210.908
211.177
211.533
212.081
212.72
213.295
214.169
209.317
205.782
204.666
205.041
206.008
207.091
208.111
209.027
209.843
210.568
211.209
211.767
212.243
212.638
212.956
213.208
213.408
213.57
213.702
213.803
213.865
213.886
213.879
213.86
213.857
213.913
214.028
214.068
214.029
214.036
214.084
214.196
214.394
214.499
214.529
214.622
214.765
214.936
215.11
215.264
215.389
215.494
215.596
215.704
215.821
215.94
216.057
216.169
216.278
216.385
216.491
216.596
216.702
216.808
216.914
217.022
217.132
217.243
217.356
217.47
217.586
217.703
217.82
217.937
218.055
218.175
218.296
218.419
218.551
218.606
219.941
221.549
222.827
223.688
224.245
224.632
224.948
225.279
225.723
227.209
185.914
203.491
209.03
210.217
210.482
210.833
211.373
212.001
212.568
213.435
208.67
205.201
204.111
204.485
205.439
206.505
207.505
208.401
209.195
209.896
210.508
211.035
211.475
211.832
212.111
212.322
212.482
212.608
212.715
212.8
212.853
212.864
212.836
212.786
212.746
212.768
212.858
212.878
212.816
212.804
212.841
212.946
213.152
213.273
213.323
213.448
213.632
213.845
214.049
214.216
214.341
214.442
214.54
214.645
214.752
214.856
214.949
215.033
215.108
215.177
215.241
215.301
215.359
215.415
215.47
215.524
215.578
215.631
215.684
215.736
215.787
215.836
215.882
215.925
215.965
216.002
216.036
216.066
216.098
216.028
217.335
218.98
220.323
221.245
221.848
222.257
222.569
222.862
223.223
224.395
185.616
202.917
208.37
209.539
209.8
210.145
210.677
211.296
211.859
212.74
208.133
204.764
203.702
204.069
204.997
206.019
206.957
207.769
208.458
209.036
209.513
209.897
210.197
210.42
210.576
210.679
210.747
210.798
210.85
210.902
210.94
210.945
210.908
210.84
210.773
210.763
210.829
210.834
210.757
210.733
210.762
210.863
211.074
211.215
211.3
211.478
211.729
212.011
212.275
212.491
212.661
212.807
212.949
213.089
213.217
213.321
213.398
213.448
213.473
213.478
213.468
213.45
213.427
213.402
213.376
213.351
213.327
213.305
213.283
213.261
213.239
213.215
213.189
213.161
213.129
213.096
213.059
213.016
212.974
212.766
214.203
216.086
217.649
218.734
219.442
219.916
220.259
220.549
220.851
221.767
185.323
202.353
207.72
208.871
209.128
209.468
209.991
210.599
211.195
211.763
211.856
211.84
211.978
212.283
212.672
213.071
213.441
213.773
214.071
214.341
214.588
214.814
215.021
215.208
215.375
215.522
215.657
215.795
215.949
216.123
216.297
216.438
216.522
216.552
216.56
216.621
216.768
216.834
216.786
216.791
216.834
216.926
217.119
217.185
217.156
217.224
217.365
217.517
217.625
217.672
217.68
217.694
217.736
217.804
217.88
217.949
218.006
218.051
218.089
218.12
218.146
218.166
218.183
218.196
218.206
218.214
218.221
218.226
218.23
218.234
218.236
218.237
218.237
218.235
218.233
218.234
218.239
218.249
218.264
218.27
218.401
218.607
218.801
218.948
219.053
219.139
219.223
219.324
219.454
220.085
185.033
201.796
207.078
208.211
208.465
208.799
209.314
209.914
210.511
211.051
211.548
211.989
212.374
212.717
213.033
213.327
213.602
213.858
214.097
214.321
214.531
214.729
214.917
215.093
215.256
215.404
215.541
215.678
215.833
216.016
216.214
216.392
216.518
216.579
216.601
216.661
216.809
216.876
216.828
216.841
216.887
216.974
217.163
217.215
217.173
217.236
217.366
217.49
217.552
217.55
217.525
217.524
217.564
217.633
217.708
217.776
217.833
217.883
217.928
217.97
218.008
218.043
218.074
218.102
218.126
218.148
218.167
218.184
218.2
218.213
218.225
218.235
218.242
218.248
218.253
218.261
218.274
218.292
218.314
218.34
218.357
218.365
218.369
218.375
218.392
218.423
218.471
218.537
218.627
219.211
184.746
201.243
206.442
207.557
207.806
208.136
208.643
209.233
209.822
210.364
210.849
211.279
211.659
212
212.31
212.597
212.865
213.116
213.352
213.574
213.782
213.979
214.165
214.341
214.506
214.657
214.794
214.925
215.067
215.238
215.434
215.628
215.78
215.867
215.902
215.96
216.101
216.158
216.099
216.108
216.141
216.211
216.396
216.447
216.413
216.492
216.629
216.742
216.786
216.776
216.764
216.793
216.866
216.963
217.059
217.144
217.217
217.284
217.348
217.408
217.463
217.515
217.562
217.605
217.645
217.68
217.713
217.743
217.771
217.796
217.819
217.84
217.857
217.873
217.888
217.905
217.927
217.953
217.983
218.014
218.039
218.056
218.067
218.08
218.103
218.14
218.192
218.26
218.355
219.068
184.461
200.693
205.809
206.906
207.152
207.477
207.976
208.557
209.137
209.673
210.151
210.572
210.945
211.282
211.59
211.875
212.141
212.389
212.623
212.842
213.048
213.243
213.427
213.602
213.769
213.926
214.068
214.199
214.333
214.487
214.671
214.866
215.034
215.143
215.196
215.259
215.397
215.444
215.387
215.388
215.386
215.416
215.564
215.594
215.558
215.638
215.763
215.849
215.867
215.847
215.845
215.892
215.979
216.078
216.17
216.251
216.323
216.392
216.457
216.518
216.574
216.625
216.671
216.712
216.748
216.782
216.812
216.839
216.866
216.891
216.914
216.937
216.959
216.981
217.005
217.032
217.066
217.107
217.154
217.202
217.248
217.287
217.323
217.362
217.41
217.472
217.548
217.639
217.764
218.568
184.177
200.147
205.18
206.26
206.502
206.821
207.313
207.885
208.456
208.984
209.455
209.871
210.24
210.572
210.877
211.159
211.422
211.667
211.898
212.116
212.32
212.512
212.694
212.868
213.037
213.2
213.354
213.496
213.632
213.777
213.947
214.132
214.304
214.427
214.494
214.564
214.7
214.745
214.636
214.577
214.499
214.435
214.549
214.549
214.483
214.529
214.609
214.642
214.616
214.574
214.563
214.594
214.649
214.704
214.747
214.781
214.81
214.836
214.858
214.877
214.89
214.901
214.911
214.92
214.93
214.942
214.957
214.976
214.999
215.027
215.06
215.097
215.138
215.183
215.234
215.292
215.359
215.435
215.519
215.606
215.69
215.77
215.846
215.925
216.014
216.116
216.231
216.363
216.538
217.375
183.897
199.607
204.558
205.621
205.86
206.174
206.658
207.221
207.783
208.304
208.768
209.178
209.542
209.87
210.171
210.45
210.71
210.953
211.182
211.398
211.601
211.792
211.972
212.143
212.311
212.48
212.648
212.808
212.96
213.109
213.272
213.449
213.618
213.744
213.813
213.882
214.015
214.038
214.099
214.05
213.821
213.54
213.21
212.9
212.643
212.555
212.515
212.436
212.315
212.197
212.117
212.073
212.044
212.018
211.999
211.991
211.997
212.015
212.041
212.073
212.11
212.154
212.203
212.258
212.318
212.384
212.454
212.53
212.61
212.695
212.783
212.874
212.968
213.064
213.164
213.268
213.379
213.496
213.619
213.744
213.865
213.979
214.088
214.197
214.313
214.44
214.577
214.733
214.935
215.713
183.624
199.082
203.953
204.999
205.235
205.544
206.021
206.575
207.129
207.641
208.099
208.503
208.862
209.186
209.484
209.759
210.017
210.257
210.484
210.699
210.902
211.092
211.271
211.44
211.606
211.775
211.95
212.129
212.303
212.472
212.641
212.819
212.991
213.121
213.187
213.245
213.364
213.441
212.611
211.76
210.833
209.863
209.726
209.452
209.088
208.876
208.756
208.653
208.56
208.503
208.497
208.531
208.589
208.667
208.768
208.891
209.029
209.173
209.316
209.457
209.596
209.734
209.87
210.006
210.14
210.274
210.406
210.538
210.67
210.801
210.932
211.061
211.188
211.315
211.441
211.568
211.699
211.834
211.972
212.108
212.238
212.36
212.475
212.588
212.705
212.83
212.962
213.111
213.301
213.966
183.367
198.585
203.381
204.411
204.643
204.949
205.418
205.964
206.51
207.015
207.466
207.865
208.22
208.54
208.834
209.107
209.362
209.601
209.826
210.04
210.243
210.434
210.614
210.782
210.944
211.107
211.281
211.465
211.657
211.848
212.037
212.23
212.416
212.563
212.64
212.688
212.823
212.685
213.552
212.626
210.652
208.932
206.293
204.902
204.437
204.526
204.791
205.058
205.3
205.537
205.778
206.019
206.259
206.502
206.752
207.003
207.247
207.476
207.689
207.887
208.074
208.254
208.427
208.593
208.754
208.91
209.062
209.21
209.354
209.495
209.632
209.765
209.894
210.019
210.14
210.262
210.384
210.508
210.632
210.752
210.865
210.969
211.064
211.158
211.255
211.359
211.472
211.603
211.767
212.331
183.136
198.139
202.867
203.882
204.112
204.413
204.876
205.414
205.952
206.451
206.896
207.29
207.64
207.957
208.249
208.52
208.773
209.011
209.235
209.448
209.651
209.845
210.027
210.197
210.356
210.512
210.674
210.848
211.042
211.246
211.454
211.666
211.876
212.061
212.185
212.257
212.383
212.405
208.364
204.108
201.075
199.362
200.089
200.849
201.424
202.068
202.718
203.305
203.82
204.273
204.668
205.015
205.332
205.633
205.923
206.197
206.446
206.667
206.868
207.055
207.232
207.403
207.57
207.73
207.885
208.035
208.179
208.318
208.451
208.579
208.701
208.816
208.925
209.028
209.127
209.224
209.32
209.417
209.513
209.606
209.693
209.77
209.84
209.908
209.98
210.058
210.147
210.252
210.389
210.876
182.943
197.766
202.437
203.44
203.668
203.967
204.424
204.957
205.489
205.981
206.422
206.811
207.158
207.472
207.761
208.03
208.281
208.518
208.742
208.955
209.16
209.356
209.542
209.715
209.875
210.025
210.174
210.333
210.515
210.717
210.932
211.154
211.385
211.616
211.812
211.942
212.022
212.686
198.809
189.756
185.932
184.046
193.191
198.698
200.765
201.558
202.053
202.544
203.058
203.557
204.009
204.414
204.782
205.119
205.428
205.706
205.951
206.169
206.367
206.552
206.728
206.898
207.062
207.219
207.369
207.512
207.648
207.777
207.899
208.013
208.12
208.219
208.31
208.393
208.47
208.543
208.614
208.684
208.753
208.818
208.877
208.926
208.969
209.01
209.055
209.109
209.174
209.254
209.363
209.783
182.8
197.488
202.115
203.11
203.337
203.634
204.089
204.618
205.147
205.636
206.074
206.461
206.806
207.118
207.405
207.672
207.922
208.157
208.38
208.594
208.799
208.997
209.187
209.365
209.528
209.675
209.816
209.969
210.141
210.337
210.55
210.771
211.012
211.282
211.551
211.743
211.797
213.034
191.219
178.297
173.884
171.832
187.961
197.505
200.806
201.606
201.813
202.081
202.49
202.962
203.431
203.872
204.281
204.662
205.01
205.323
205.6
205.849
206.077
206.289
206.488
206.677
206.857
207.027
207.187
207.339
207.483
207.617
207.744
207.861
207.969
208.066
208.151
208.225
208.289
208.344
208.394
208.439
208.48
208.515
208.542
208.558
208.568
208.575
208.588
208.611
208.646
208.697
208.776
209.149
182.709
197.311
201.911
202.9
203.127
203.424
203.879
204.407
204.935
205.426
205.865
206.254
206.6
206.914
207.202
207.47
207.72
207.955
208.177
208.39
208.595
208.793
208.986
209.169
209.336
209.481
209.618
209.775
209.948
210.146
210.361
210.577
210.817
211.104
211.413
211.61
211.628
213.122
188.19
173.702
169.071
166.987
186.194
197.54
201.351
202.048
201.98
202.007
202.253
202.63
203.054
203.486
203.911
204.323
204.712
205.072
205.399
205.698
205.983
206.246
206.488
206.714
206.926
207.127
207.319
207.502
207.679
207.849
208.012
208.165
208.307
208.435
208.547
208.641
208.716
208.773
208.814
208.838
208.849
208.845
208.827
208.795
208.754
208.711
208.675
208.651
208.642
208.651
208.695
209.031
182.668
197.229
201.815
202.801
203.027
203.324
203.778
204.307
204.836
205.329
205.771
206.165
206.516
206.836
207.13
207.404
207.659
207.899
208.126
208.341
208.548
208.75
208.948
209.139
209.315
209.461
209.592
209.748
209.914
210.111
210.334
210.527
210.885
211.219
211.528
211.618
211.504
213.18
187.9
173.256
168.723
166.561
189.338
202.179
205.748
205.556
204.56
203.85
203.564
203.568
203.735
203.996
204.314
204.664
205.021
205.366
205.693
206.018
206.23
206.477
206.738
206.997
207.247
207.486
207.713
207.932
208.147
208.365
208.59
208.824
209.062
209.295
209.511
209.695
209.838
209.931
209.978
209.983
209.956
209.907
209.843
209.768
209.685
209.601
209.518
209.438
209.367
209.311
209.295
209.591
182.663
197.218
201.801
202.786
203.01
203.306
203.758
204.285
204.813
205.305
205.748
206.143
206.498
206.822
207.122
207.404
207.669
207.919
208.156
208.381
208.598
208.81
209.023
209.235
209.433
209.591
209.738
209.889
210.026
210.189
210.372
210.511
210.798
211.019
211.16
210.994
210.821
212.508
187.865
173.577
169.227
167.112
191.873
206.194
210.242
209.963
208.64
207.541
206.838
206.412
206.163
206.043
206.025
206.083
206.191
206.329
206.493
206.699
206.825
207.016
207.24
207.475
207.71
207.942
208.185
208.46
208.789
209.175
209.609
210.062
210.498
210.883
211.186
211.395
211.509
211.542
211.512
211.435
211.327
211.196
211.047
210.885
210.718
210.556
210.409
210.283
210.181
210.109
210.092
210.438
182.678
197.247
201.834
202.819
203.043
203.337
203.788
204.312
204.836
205.324
205.763
206.154
206.506
206.828
207.128
207.411
207.679
207.935
208.181
208.417
208.645
208.871
209.103
209.343
209.573
209.768
209.889
210.004
210.081
210.155
210.284
210.314
210.405
210.314
210.018
209.528
209.762
211.909
186.938
172.328
167.87
165.779
191.92
207.239
211.215
210.775
209.476
208.557
208.063
207.796
207.628
207.505
207.41
207.336
207.285
207.273
207.305
207.4
207.444
207.583
207.76
207.945
208.168
208.487
208.942
209.523
210.174
210.812
211.358
211.76
212.011
212.13
212.15
212.105
212.021
211.916
211.805
211.694
211.585
211.476
211.364
211.246
211.124
211.004
210.894
210.797
210.718
210.662
210.663
211.055
182.698
197.285
201.878
202.865
203.09
203.385
203.836
204.36
204.884
205.37
205.806
206.193
206.54
206.857
207.152
207.431
207.696
207.949
208.194
208.432
208.663
208.895
209.136
209.392
209.647
209.852
210.179
210.367
210.369
210.287
209.989
209.643
209.382
208.883
208.061
207.38
208.326
210.714
188.985
175.967
171.896
170.076
194.832
210.184
214.109
213.38
211.627
210.16
209.194
208.631
208.373
208.253
208.141
207.979
207.801
207.698
207.757
207.963
208.036
208.125
208.353
208.843
209.565
210.359
211.047
211.537
211.821
211.943
211.958
211.908
211.825
211.727
211.626
211.53
211.442
211.365
211.302
211.253
211.213
211.178
211.14
211.094
211.04
210.983
210.929
210.883
210.847
210.831
210.866
211.263
182.711
197.312
201.91
202.899
203.125
203.422
203.875
204.401
204.928
205.416
205.854
206.242
206.59
206.907
207.201
207.478
207.742
207.994
208.238
208.475
208.708
208.94
209.184
209.445
209.703
209.979
209.502
209.086
208.642
208.069
208.085
207.801
207.422
206.823
206.014
204.486
192.915
210.059
213.105
211.606
209.79
208.642
208.221
208.183
208.274
208.377
208.443
208.462
208.516
208.802
209.336
210.099
210.787
211.228
211.438
211.491
211.448
211.353
211.236
211.117
211.008
210.915
210.84
210.781
210.734
210.698
210.672
210.656
210.652
210.659
210.674
210.692
210.705
210.709
210.704
210.696
210.689
210.688
210.694
210.714
210.776
211.154
182.715
197.32
201.919
202.908
203.135
203.432
203.886
204.415
204.943
205.434
205.874
206.265
206.616
206.936
207.233
207.513
207.78
208.036
208.283
208.526
208.765
209.004
209.253
209.518
209.802
209.866
211.368
211.442
210.403
209.284
206.733
205.263
204.832
204.808
205.08
204.491
191.191
208.939
213.115
212.295
210.654
209.521
209.043
209.057
209.337
209.702
210.007
210.243
210.452
210.675
210.71
210.722
210.679
210.585
210.469
210.353
210.244
210.145
210.059
209.989
209.938
209.906
209.889
209.884
209.89
209.903
209.925
209.955
209.993
210.04
210.092
210.144
210.189
210.224
210.247
210.265
210.284
210.308
210.341
210.386
210.467
210.829
182.71
197.311
201.909
202.897
203.123
203.42
203.874
204.402
204.93
205.421
205.862
206.254
206.605
206.926
207.224
207.506
207.775
208.033
208.285
208.532
208.778
209.026
209.282
209.552
209.805
209.979
207.11
204.061
201.799
200.497
201.384
202.181
202.963
203.77
204.854
205.097
191.009
208.631
212.858
212.193
210.68
209.585
209.057
208.949
209.065
209.256
209.437
209.567
209.637
209.688
209.563
209.459
209.364
209.273
209.193
209.131
209.084
209.054
209.043
209.048
209.069
209.101
209.142
209.189
209.241
209.296
209.354
209.418
209.487
209.562
209.64
209.715
209.783
209.837
209.879
209.914
209.947
209.983
210.026
210.077
210.153
210.489
182.701
197.293
201.888
202.876
203.101
203.397
203.851
204.377
204.905
205.395
205.835
206.226
206.577
206.898
207.197
207.479
207.749
208.008
208.262
208.512
208.762
209.014
209.27
209.538
209.672
210.443
197.487
189.242
185.898
184.246
194.156
200.117
202.643
203.819
205.032
205.567
190.906
208.478
212.654
211.874
210.221
208.994
208.337
208.082
208.049
208.102
208.2
208.298
208.365
208.423
208.34
208.303
208.292
208.292
208.3
208.317
208.343
208.377
208.422
208.477
208.54
208.609
208.682
208.758
208.836
208.915
208.996
209.081
209.17
209.263
209.359
209.452
209.535
209.605
209.662
209.709
209.754
209.799
209.849
209.902
209.973
210.294
182.692
197.275
201.867
202.854
203.079
203.375
203.828
204.354
204.88
205.369
205.807
206.198
206.548
206.868
207.166
207.448
207.717
207.977
208.231
208.481
208.732
208.984
209.239
209.5
209.516
210.782
189.432
176.853
172.666
170.717
188.222
198.641
202.62
203.918
204.931
205.348
190.939
208.563
212.7
211.877
210.138
208.801
208.017
207.637
207.501
207.496
207.563
207.649
207.728
207.812
207.777
207.799
207.847
207.904
207.959
208.012
208.067
208.127
208.193
208.264
208.34
208.419
208.5
208.584
208.67
208.758
208.848
208.941
209.041
209.145
209.252
209.357
209.454
209.537
209.607
209.668
209.725
209.782
209.842
209.902
209.976
210.304
182.685
197.261
201.852
202.839
203.064
203.361
203.813
204.338
204.864
205.352
205.79
206.179
206.528
206.846
207.143
207.423
207.69
207.947
208.197
208.444
208.692
208.941
209.191
209.443
209.392
210.846
185.94
171.461
166.904
164.873
185.803
198.263
202.842
204.012
204.632
204.582
191.246
209.245