/*--------------------------------*- C++ -*----------------------------------*\
| =========                 |                                                 |
| \\      /  F ield         | OpenFOAM: The Open Source CFD Toolbox           |
|  \\    /   O peration     | Version:  v2012                                 |
|   \\  /    A nd           | Website:  www.openfoam.com                      |
|    \\/     M anipulation  |                                                 |
\*---------------------------------------------------------------------------*/
FoamFile
{
    version     2.0;
    format      ascii;
    class       volScalarField;
    location    "350/air";
    object      ILambda_34_0;
}
// * * * * * * * * * * * * * * * * * * * * * * * * * * * * * * * * * * * * * //

dimensions      [1 0 -3 0 0 0 0];


internalField   nonuniform List<scalar> 
287104
(
167.688
168.457
168.98
169.482
169.946
170.38
170.788
171.174
171.539
171.887
172.22
172.539
172.845
173.14
173.426
173.702
173.97
174.231
174.484
174.732
174.974
175.211
175.443
175.671
175.894
176.114
176.33
176.542
176.752
176.958
177.162
177.362
177.56
177.756
177.949
178.139
178.328
178.514
178.698
178.879
179.059
179.237
179.412
179.586
179.758
179.927
180.095
180.261
180.425
180.588
180.748
180.907
181.063
181.218
181.371
181.522
181.672
181.82
181.966
182.11
182.252
182.393
182.532
182.67
182.806
182.94
183.074
183.205
183.335
183.464
183.592
183.718
183.844
183.968
184.091
184.213
184.334
184.455
184.575
184.695
184.813
184.931
185.049
185.166
185.286
185.411
185.545
185.687
185.82
185.904
168.399
169.236
169.663
170.123
170.545
170.943
171.319
171.677
172.018
172.343
172.656
172.956
173.246
173.527
173.798
174.062
174.319
174.569
174.813
175.052
175.286
175.515
175.74
175.96
176.177
176.391
176.601
176.807
177.011
177.212
177.41
177.606
177.799
177.99
178.178
178.364
178.548
178.729
178.909
179.086
179.262
179.435
179.606
179.776
179.944
180.109
180.273
180.435
180.595
180.753
180.91
181.064
181.217
181.368
181.518
181.665
181.811
181.956
182.098
182.239
182.378
182.516
182.652
182.786
182.919
183.051
183.181
183.309
183.437
183.563
183.688
183.812
183.934
184.056
184.177
184.296
184.416
184.535
184.653
184.772
184.89
185.009
185.132
185.26
185.396
185.538
185.669
185.754
185.738
185.577
169.107
169.901
170.265
170.691
171.076
171.443
171.792
172.125
172.443
172.749
173.044
173.328
173.603
173.87
174.129
174.381
174.627
174.868
175.103
175.333
175.558
175.779
175.997
176.211
176.421
176.628
176.832
177.032
177.231
177.426
177.619
177.809
177.997
178.183
178.366
178.547
178.726
178.903
179.078
179.251
179.422
179.591
179.759
179.924
180.087
180.249
180.408
180.566
180.722
180.877
181.029
181.18
181.329
181.476
181.622
181.766
181.908
182.048
182.187
182.324
182.46
182.594
182.726
182.858
182.987
183.116
183.243
183.369
183.493
183.617
183.739
183.861
183.982
184.102
184.222
184.341
184.461
184.581
184.702
184.824
184.95
185.08
185.218
185.36
185.496
185.6
185.636
185.563
185.366
185.081
169.749
170.468
170.795
171.188
171.542
171.883
172.207
172.519
172.818
173.106
173.384
173.654
173.916
174.17
174.418
174.659
174.895
175.126
175.353
175.574
175.792
176.006
176.216
176.423
176.627
176.828
177.026
177.221
177.413
177.603
177.791
177.976
178.159
178.339
178.518
178.694
178.869
179.041
179.211
179.38
179.547
179.711
179.874
180.035
180.194
180.351
180.507
180.661
180.813
180.963
181.111
181.258
181.403
181.546
181.688
181.828
181.966
182.103
182.238
182.371
182.504
182.634
182.764
182.892
183.019
183.145
183.27
183.394
183.516
183.638
183.76
183.881
184.002
184.124
184.246
184.369
184.492
184.618
184.746
184.879
185.017
185.16
185.299
185.418
185.489
185.48
185.371
185.174
184.937
184.735
170.31
170.96
171.262
171.626
171.954
172.271
172.575
172.868
173.15
173.422
173.687
173.943
174.193
174.436
174.673
174.905
175.132
175.354
175.572
175.786
175.997
176.204
176.407
176.608
176.805
177
177.192
177.382
177.569
177.753
177.935
178.116
178.293
178.469
178.643
178.815
178.984
179.152
179.318
179.482
179.644
179.805
179.963
180.12
180.274
180.427
180.578
180.728
180.876
181.022
181.166
181.309
181.45
181.589
181.727
181.863
181.998
182.131
182.263
182.394
182.524
182.652
182.78
182.906
183.032
183.156
183.28
183.403
183.526
183.649
183.772
183.895
184.02
184.145
184.271
184.399
184.529
184.663
184.801
184.942
185.083
185.211
185.307
185.344
185.301
185.174
184.986
184.785
184.613
184.477
170.798
171.391
171.674
172.012
172.318
172.616
172.902
173.178
173.445
173.704
173.956
174.201
174.439
174.672
174.9
175.123
175.342
175.556
175.766
175.973
176.177
176.377
176.574
176.769
176.96
177.149
177.336
177.52
177.701
177.881
178.058
178.233
178.406
178.577
178.746
178.913
179.078
179.241
179.403
179.562
179.72
179.875
180.029
180.182
180.332
180.481
180.628
180.773
180.917
181.059
181.199
181.338
181.476
181.612
181.747
181.88
182.013
182.144
182.274
182.403
182.531
182.659
182.785
182.911
183.036
183.161
183.285
183.409
183.534
183.659
183.784
183.911
184.039
184.168
184.298
184.431
184.567
184.706
184.845
184.977
185.088
185.158
185.166
185.101
184.967
184.794
184.621
184.467
184.298
184.026
171.225
171.772
172.037
172.352
172.64
172.921
173.192
173.454
173.708
173.955
174.195
174.43
174.658
174.882
175.101
175.316
175.527
175.734
175.937
176.137
176.334
176.528
176.719
176.908
177.094
177.277
177.458
177.637
177.813
177.988
178.16
178.33
178.498
178.664
178.828
178.991
179.151
179.31
179.466
179.621
179.774
179.926
180.075
180.223
180.369
180.514
180.657
180.799
180.939
181.078
181.215
181.352
181.487
181.62
181.753
181.885
182.016
182.146
182.275
182.403
182.531
182.658
182.784
182.91
183.035
183.16
183.284
183.41
183.535
183.661
183.788
183.916
184.045
184.176
184.308
184.443
184.578
184.71
184.828
184.919
184.965
184.952
184.874
184.747
184.597
184.453
184.31
184.103
183.698
182.937
171.598
172.107
172.357
172.653
172.926
173.192
173.449
173.698
173.941
174.177
174.407
174.632
174.852
175.067
175.278
175.485
175.689
175.889
176.086
176.279
176.47
176.658
176.843
177.026
177.207
177.385
177.56
177.734
177.905
178.075
178.242
178.407
178.57
178.732
178.891
179.049
179.204
179.358
179.51
179.661
179.809
179.957
180.102
180.246
180.389
180.53
180.67
180.809
180.946
181.082
181.217
181.351
181.484
181.616
181.747
181.877
182.006
182.135
182.262
182.389
182.514
182.639
182.763
182.887
183.01
183.133
183.255
183.378
183.502
183.626
183.75
183.875
184.002
184.13
184.26
184.387
184.507
184.609
184.68
184.707
184.68
184.603
184.493
184.371
184.246
184.084
183.785
183.191
182.124
180.486
171.924
172.402
172.638
172.919
173.177
173.43
173.676
173.914
174.146
174.373
174.594
174.81
175.022
175.229
175.433
175.633
175.83
176.024
176.214
176.402
176.587
176.769
176.949
177.126
177.301
177.473
177.644
177.812
177.978
178.142
178.304
178.464
178.622
178.778
178.932
179.085
179.235
179.384
179.532
179.678
179.822
179.965
180.107
180.247
180.386
180.524
180.66
180.796
180.93
181.063
181.195
181.326
181.456
181.585
181.713
181.84
181.966
182.09
182.214
182.336
182.457
182.577
182.696
182.815
182.932
183.05
183.167
183.284
183.402
183.52
183.64
183.76
183.882
184.004
184.122
184.229
184.315
184.369
184.383
184.353
184.288
184.202
184.103
183.974
183.75
183.314
182.519
181.267
179.601
177.791
172.209
172.66
172.885
173.151
173.398
173.64
173.874
174.102
174.324
174.541
174.753
174.961
175.165
175.365
175.562
175.755
175.946
176.134
176.318
176.501
176.68
176.857
177.032
177.204
177.374
177.542
177.707
177.87
178.031
178.19
178.348
178.503
178.656
178.808
178.958
179.106
179.253
179.398
179.542
179.684
179.825
179.965
180.104
180.241
180.377
180.511
180.645
180.777
180.908
181.037
181.165
181.292
181.418
181.542
181.665
181.787
181.907
182.025
182.142
182.257
182.37
182.483
182.594
182.704
182.813
182.922
183.031
183.141
183.252
183.364
183.477
183.592
183.705
183.813
183.907
183.98
184.022
184.03
184.007
183.959
183.894
183.801
183.639
183.321
182.732
181.772
180.436
178.894
177.511
176.753
172.457
172.885
173.1
173.354
173.59
173.821
174.046
174.265
174.479
174.691
174.9
175.106
175.308
175.507
175.703
175.895
176.084
176.27
176.452
176.632
176.809
176.983
177.154
177.322
177.488
177.651
177.812
177.97
178.127
178.281
178.434
178.584
178.733
178.881
179.027
179.171
179.314
179.456
179.597
179.736
179.874
180.011
180.146
180.28
180.413
180.544
180.674
180.802
180.928
181.053
181.177
181.298
181.418
181.536
181.651
181.765
181.877
181.987
182.094
182.2
182.303
182.406
182.507
182.607
182.707
182.807
182.908
183.011
183.116
183.223
183.331
183.436
183.533
183.616
183.677
183.712
183.719
183.703
183.668
183.609
183.498
183.274
182.845
182.116
181.045
179.71
178.344
177.314
176.998
177.607
172.675
173.083
173.288
173.531
173.757
173.979
174.195
174.408
174.619
174.828
175.038
175.243
175.445
175.644
175.839
176.031
176.219
176.404
176.585
176.763
176.937
177.108
177.276
177.441
177.602
177.761
177.917
178.072
178.223
178.374
178.522
178.668
178.814
178.957
179.1
179.241
179.381
179.52
179.658
179.794
179.929
180.062
180.195
180.325
180.454
180.581
180.707
180.83
180.952
181.071
181.189
181.304
181.417
181.528
181.636
181.742
181.846
181.947
182.046
182.143
182.238
182.332
182.425
182.519
182.613
182.708
182.806
182.907
183.01
183.112
183.211
183.299
183.372
183.424
183.454
183.462
183.453
183.424
183.357
183.209
182.907
182.365
181.521
180.39
179.11
177.95
177.252
177.32
178.291
180.067
172.866
173.256
173.453
173.687
173.904
174.119
174.33
174.54
174.749
174.959
175.168
175.373
175.575
175.774
175.968
176.16
176.347
176.53
176.709
176.885
177.057
177.224
177.389
177.549
177.707
177.862
178.014
178.164
178.312
178.458
178.602
178.745
178.886
179.026
179.165
179.302
179.439
179.574
179.707
179.839
179.97
180.098
180.225
180.35
180.473
180.594
180.713
180.829
180.943
181.055
181.164
181.271
181.376
181.478
181.577
181.674
181.769
181.861
181.951
182.04
182.128
182.216
182.304
182.395
182.488
182.584
182.684
182.786
182.887
182.982
183.066
183.134
183.183
183.212
183.226
183.223
183.194
183.109
182.912
182.528
181.887
180.966
179.832
178.675
177.78
177.465
177.964
179.317
181.31
183.499
173.036
173.411
173.601
173.826
174.038
174.248
174.457
174.666
174.875
175.084
175.293
175.499
175.7
175.898
176.092
176.282
176.468
176.649
176.826
176.999
177.168
177.332
177.493
177.65
177.803
177.954
178.102
178.248
178.392
178.534
178.674
178.812
178.95
179.085
179.22
179.353
179.484
179.614
179.742
179.868
179.992
180.113
180.233
180.35
180.465
180.578
180.688
180.795
180.9
181.003
181.103
181.2
181.295
181.387
181.476
181.564
181.649
181.732
181.814
181.896
181.978
182.062
182.149
182.24
182.335
182.434
182.534
182.631
182.721
182.799
182.86
182.905
182.933
182.947
182.941
182.897
182.774
182.512
182.043
181.323
180.371
179.306
178.346
177.779
177.863
178.725
180.244
182.006
183.324
183.436
173.189
173.551
173.735
173.955
174.163
174.372
174.58
174.789
174.998
175.207
175.416
175.621
175.822
176.019
176.212
176.4
176.584
176.763
176.937
177.107
177.272
177.433
177.59
177.743
177.893
178.04
178.184
178.326
178.465
178.602
178.738
178.872
179.004
179.134
179.263
179.389
179.514
179.637
179.757
179.875
179.991
180.105
180.216
180.324
180.43
180.533
180.633
180.731
180.827
180.92
181.01
181.098
181.183
181.266
181.346
181.425
181.502
181.578
181.655
181.734
181.815
181.9
181.989
182.083
182.18
182.277
182.37
182.454
182.524
182.578
182.616
182.638
182.643
182.62
182.541
182.361
182.023
181.475
180.708
179.782
178.851
178.147
177.921
178.348
179.422
180.892
182.27
182.961
182.539
181.107
173.33
173.681
173.862
174.079
174.286
174.494
174.702
174.911
175.12
175.329
175.537
175.741
175.941
176.136
176.328
176.514
176.695
176.872
177.043
177.21
177.372
177.529
177.682
177.832
177.977
178.12
178.259
178.396
178.53
178.662
178.792
178.919
179.045
179.168
179.29
179.409
179.525
179.64
179.752
179.861
179.968
180.072
180.173
180.272
180.368
180.462
180.554
180.643
180.729
180.813
180.895
180.974
181.051
181.126
181.199
181.272
181.344
181.418
181.494
181.573
181.658
181.747
181.841
181.936
182.03
182.118
182.195
182.257
182.303
182.331
182.341
182.327
182.271
182.142
181.895
181.484
180.884
180.118
179.282
178.549
178.133
178.224
178.897
180.038
181.328
182.32
182.62
182.151
181.367
181.217
173.461
173.805
173.985
174.201
174.407
174.616
174.824
175.032
175.24
175.449
175.656
175.859
176.058
176.252
176.441
176.625
176.804
176.977
177.146
177.309
177.467
177.62
177.769
177.914
178.054
178.192
178.325
178.456
178.584
178.709
178.832
178.952
179.07
179.185
179.298
179.409
179.516
179.622
179.724
179.824
179.922
180.017
180.109
180.199
180.287
180.373
180.456
180.537
180.615
180.692
180.766
180.838
180.909
180.979
181.048
181.118
181.19
181.266
181.346
181.43
181.52
181.613
181.707
181.798
181.88
181.949
182.001
182.036
182.05
182.04
181.995
181.895
181.708
181.397
180.934
180.321
179.614
178.93
178.437
178.308
178.658
179.472
180.568
181.625
182.295
182.378
181.991
181.605
181.839
182.97
173.587
173.927
174.106
174.322
174.529
174.737
174.945
175.153
175.361
175.568
175.775
175.976
176.173
176.365
176.552
176.733
176.909
177.079
177.244
177.403
177.556
177.705
177.849
177.988
178.122
178.253
178.38
178.504
178.624
178.742
178.856
178.968
179.077
179.184
179.288
179.389
179.488
179.584
179.677
179.769
179.858
179.945
180.029
180.112
180.192
180.27
180.347
180.421
180.494
180.564
180.633
180.701
180.768
180.836
180.905
180.977
181.052
181.133
181.218
181.308
181.4
181.492
181.577
181.652
181.711
181.752
181.77
181.764
181.725
181.641
181.492
181.248
180.888
180.405
179.827
179.23
178.737
178.49
178.611
179.141
179.997
180.97
181.785
182.207
182.185
181.915
181.779
182.087
182.725
182.986
173.709
174.047
174.228
174.443
174.65
174.858
175.066
175.273
175.48
175.686
175.891
176.091
176.285
176.475
176.659
176.837
177.009
177.175
177.335
177.489
177.637
177.78
177.917
178.049
178.177
178.3
178.419
178.534
178.646
178.755
178.861
178.964
179.064
179.161
179.256
179.348
179.439
179.526
179.612
179.696
179.777
179.857
179.935
180.012
180.086
180.159
180.23
180.3
180.368
180.434
180.5
180.566
180.633
180.701
180.773
180.849
180.93
181.016
181.105
181.195
181.282
181.361
181.426
181.473
181.497
181.495
181.461
181.388
181.261
181.063
180.776
180.393
179.926
179.424
178.972
178.68
178.656
178.966
179.59
180.407
181.216
181.807
182.055
181.996
181.84
181.852
182.142
182.472
182.283
181.086
173.83
174.168
174.349
174.564
174.771
174.979
175.186
175.393
175.6
175.805
176.009
176.207
176.4
176.587
176.768
176.941
177.109
177.269
177.423
177.57
177.71
177.844
177.973
178.096
178.214
178.328
178.437
178.543
178.646
178.745
178.842
178.935
179.027
179.115
179.202
179.287
179.369
179.45
179.529
179.607
179.684
179.759
179.832
179.905
179.976
180.046
180.114
180.181
180.247
180.313
180.378
180.445
180.514
180.587
180.663
180.744
180.829
180.916
181.001
181.081
181.149
181.201
181.232
181.235
181.208
181.142
181.031
180.863
180.627
180.315
179.936
179.52
179.123
178.828
178.724
178.878
179.305
179.946
180.669
181.303
181.708
181.841
181.785
181.723
181.81
182.031
182.121
181.675
180.454
178.685
173.95
174.289
174.47
174.685
174.892
175.1
175.306
175.512
175.717
175.918
176.115
176.306
176.491
176.669
176.84
177.004
177.162
177.312
177.455
177.592
177.722
177.846
177.964
178.078
178.187
178.291
178.392
178.49
178.584
178.676
178.765
178.851
178.935
179.018
179.098
179.177
179.254
179.33
179.405
179.479
179.552
179.623
179.694
179.764
179.832
179.9
179.966
180.032
180.097
180.163
180.23
180.299
180.372
180.448
180.528
180.611
180.694
180.774
180.845
180.903
180.94
180.951
180.932
180.876
180.779
180.633
180.432
180.172
179.859
179.511
179.169
178.89
178.746
178.796
179.072
179.552
180.156
180.759
181.235
181.502
181.572
181.544
181.553
181.667
181.797
181.686
181.049
179.796
178.191
176.751
174.07
174.409
174.59
174.806
175.012
175.219
175.424
175.626
175.825
176.019
176.206
176.387
176.561
176.729
176.888
177.041
177.187
177.325
177.457
177.582
177.701
177.815
177.924
178.028
178.128
178.225
178.318
178.408
178.495
178.58
178.663
178.744
178.823
178.9
178.976
179.051
179.125
179.197
179.269
179.341
179.411
179.481
179.549
179.617
179.684
179.749
179.815
179.88
179.945
180.012
180.081
180.154
180.229
180.308
180.388
180.467
180.54
180.601
180.645
180.666
180.658
180.614
180.531
180.405
180.231
180.008
179.742
179.447
179.151
178.895
178.733
178.717
178.882
179.227
179.708
180.24
180.721
181.063
181.237
181.281
181.288
181.343
181.445
181.465
181.175
180.387
179.119
177.676
176.55
176.154
174.188
174.528
174.708
174.923
175.127
175.331
175.532
175.727
175.918
176.101
176.278
176.447
176.61
176.765
176.913
177.053
177.186
177.313
177.433
177.548
177.657
177.761
177.861
177.957
178.05
178.139
178.226
178.31
178.391
178.471
178.549
178.626
178.701
178.775
178.848
178.92
178.992
179.063
179.133
179.203
179.272
179.34
179.408
179.474
179.54
179.605
179.671
179.736
179.804
179.873
179.946
180.021
180.098
180.176
180.25
180.315
180.367
180.398
180.403
180.374
180.309
180.202
180.052
179.859
179.629
179.374
179.113
178.879
178.712
178.653
178.737
178.973
179.343
179.789
180.236
180.606
180.848
180.965
181.007
181.044
181.116
181.175
181.077
180.638
179.757
178.543
177.333
176.579
176.612
177.462
174.303
174.641
174.82
175.032
175.232
175.43
175.623
175.809
175.988
176.16
176.325
176.482
176.632
176.775
176.91
177.038
177.16
177.276
177.386
177.49
177.59
177.687
177.779
177.868
177.954
178.038
178.119
178.199
178.276
178.352
178.427
178.501
178.574
178.646
178.717
178.788
178.859
178.929
178.998
179.067
179.135
179.202
179.269
179.335
179.4
179.465
179.531
179.599
179.668
179.741
179.816
179.892
179.966
180.035
180.093
180.135
180.153
180.142
180.095
180.01
179.883
179.717
179.517
179.291
179.058
178.842
178.673
178.587
178.611
178.763
179.036
179.397
179.79
180.151
180.428
180.601
180.687
180.735
180.79
180.853
180.848
180.64
180.096
179.194
178.1
177.153
176.711
176.95
177.705
178.508
174.41
174.744
174.919
175.126
175.319
175.508
175.69
175.865
176.032
176.191
176.343
176.488
176.625
176.756
176.879
176.996
177.107
177.213
177.314
177.41
177.503
177.592
177.679
177.762
177.844
177.923
178.001
178.077
178.151
178.225
178.298
178.37
178.442
178.513
178.583
178.654
178.724
178.793
178.862
178.929
178.996
179.062
179.127
179.192
179.257
179.323
179.39
179.459
179.531
179.605
179.678
179.749
179.812
179.862
179.893
179.898
179.871
179.807
179.704
179.563
179.388
179.188
178.976
178.772
178.603
178.495
178.475
178.56
178.752
179.032
179.362
179.694
179.978
180.184
180.31
180.381
180.435
180.492
180.525
180.451
180.154
179.557
178.698
177.771
177.079
176.884
177.236
177.889
178.388
178.325
174.503
174.83
174.998
175.197
175.38
175.558
175.727
175.89
176.044
176.191
176.331
176.463
176.588
176.707
176.82
176.927
177.029
177.126
177.22
177.31
177.396
177.48
177.562
177.642
177.72
177.796
177.871
177.945
178.018
178.09
178.162
178.233
178.304
178.375
178.445
178.515
178.584
178.653
178.72
178.785
178.849
178.912
178.974
179.036
179.099
179.164
179.232
179.301
179.372
179.441
179.506
179.562
179.603
179.622
179.613
179.571
179.492
179.376
179.226
179.049
178.856
178.664
178.495
178.372
178.317
178.348
178.472
178.68
178.947
179.236
179.507
179.726
179.879
179.974
180.037
180.09
180.134
180.127
179.989
179.637
179.04
178.276
177.539
177.078
177.061
177.451
177.976
178.249
177.98
177.157
174.577
174.891
175.052
175.239
175.41
175.576
175.733
175.882
176.024
176.158
176.286
176.407
176.521
176.63
176.734
176.832
176.927
177.018
177.105
177.19
177.272
177.353
177.431
177.508
177.583
177.657
177.73
177.803
177.875
177.947
178.018
178.089
178.16
178.23
178.3
178.37
178.437
178.502
178.563
178.621
178.677
178.733
178.79
178.848
178.909
178.973
179.039
179.106
179.171
179.231
179.279
179.311
179.319
179.298
179.244
179.154
179.03
178.877
178.704
178.526
178.359
178.225
178.143
178.13
178.197
178.342
178.548
178.79
179.035
179.25
179.416
179.53
179.603
179.657
179.702
179.724
179.676
179.494
179.124
178.573
177.937
177.39
177.119
177.213
177.578
177.951
178.023
177.61
176.765
175.743
174.626
174.925
175.075
175.249
175.408
175.561
175.705
175.842
175.972
176.095
176.212
176.322
176.428
176.528
176.624
176.716
176.805
176.891
176.974
177.055
177.134
177.211
177.287
177.362
177.435
177.508
177.581
177.652
177.724
177.795
177.866
177.937
178.008
178.078
178.147
178.213
178.274
178.328
178.374
178.419
178.465
178.515
178.568
178.625
178.685
178.749
178.813
178.875
178.93
178.972
178.995
178.994
178.964
178.9
178.803
178.677
178.527
178.364
178.205
178.065
177.964
177.917
177.937
178.025
178.175
178.368
178.578
178.778
178.945
179.068
179.152
179.208
179.252
179.283
179.28
179.202
179
178.648
178.175
177.68
177.304
177.173
177.312
177.604
177.814
177.708
177.186
176.341
175.402
174.597
174.646
174.927
175.066
175.227
175.374
175.514
175.647
175.772
175.891
176.004
176.112
176.214
176.312
176.405
176.495
176.583
176.667
176.749
176.829
176.907
176.983
177.058
177.133
177.206
177.278
177.35
177.422
177.493
177.565
177.636
177.707
177.778
177.848
177.915
177.979
178.034
178.078
178.11
178.138
178.172
178.213
178.262
178.317
178.376
178.439
178.502
178.561
178.612
178.649
178.666
178.657
178.619
178.549
178.45
178.324
178.182
178.035
177.897
177.784
177.712
177.694
177.735
177.833
177.978
178.15
178.325
178.483
178.609
178.698
178.758
178.799
178.831
178.847
178.825
178.731
178.533
178.226
177.848
177.486
177.246
177.199
177.33
177.516
177.563
177.307
176.706
175.872
175
174.259
173.708
174.638
174.899
175.027
175.176
175.311
175.44
175.562
175.677
175.787
175.891
175.991
176.087
176.178
176.267
176.353
176.436
176.516
176.595
176.673
176.749
176.823
176.897
176.97
177.042
177.114
177.185
177.257
177.328
177.399
177.47
177.54
177.609
177.675
177.734
177.784
177.821
177.845
177.858
177.872
177.901
177.942
177.993
178.052
178.115
178.177
178.235
178.282
178.314
178.325
178.31
178.267
178.194
178.095
177.976
177.846
177.716
177.601
177.514
177.467
177.47
177.524
177.623
177.755
177.901
178.043
178.163
178.254
178.316
178.356
178.385
178.405
178.41
178.378
178.283
178.108
177.86
177.576
177.326
177.179
177.165
177.247
177.309
177.205
176.829
176.18
175.371
174.57
173.907
173.423
173.097
174.603
174.844
174.963
175.1
175.224
175.343
175.456
175.563
175.665
175.762
175.856
175.946
176.033
176.118
176.2
176.28
176.358
176.434
176.51
176.584
176.657
176.729
176.801
176.873
176.944
177.015
177.086
177.157
177.227
177.297
177.364
177.427
177.482
177.527
177.558
177.576
177.584
177.586
177.594
177.622
177.665
177.72
177.782
177.843
177.899
177.943
177.971
177.977
177.957
177.911
177.838
177.744
177.634
177.519
177.408
177.316
177.252
177.226
177.244
177.303
177.397
177.511
177.632
177.741
177.829
177.892
177.931
177.957
177.975
177.988
177.986
177.952
177.87
177.729
177.541
177.339
177.169
177.07
177.048
177.053
176.991
176.758
176.294
175.626
174.862
174.138
173.558
173.151
172.899
172.784
174.544
174.768
174.877
175.004
175.119
175.23
175.334
175.434
175.53
175.622
175.711
175.797
175.881
175.962
176.041
176.118
176.194
176.269
176.342
176.415
176.487
176.558
176.629
176.7
176.771
176.842
176.913
176.983
177.051
177.116
177.175
177.226
177.265
177.291
177.304
177.307
177.305
177.302
177.311
177.341
177.388
177.445
177.505
177.559
177.6
177.624
177.625
177.603
177.556
177.486
177.399
177.301
177.202
177.112
177.041
176.998
176.989
177.016
177.075
177.159
177.255
177.35
177.431
177.492
177.531
177.554
177.568
177.58
177.588
177.585
177.558
177.495
177.391
177.255
177.112
176.989
176.902
176.841
176.758
176.583
176.248
175.731
175.071
174.367
173.727
173.231
172.9
172.719
172.675
172.786
174.467
174.675
174.776
174.894
175.002
175.105
175.203
175.298
175.389
175.476
175.561
175.644
175.724
175.803
175.879
175.955
176.029
176.102
176.174
176.245
176.316
176.386
176.457
176.527
176.598
176.668
176.737
176.803
176.864
176.918
176.963
176.997
177.019
177.031
177.033
177.031
177.031
177.039
177.059
177.094
177.139
177.189
177.236
177.271
177.288
177.284
177.258
177.21
177.144
177.065
176.98
176.898
176.827
176.776
176.75
176.754
176.787
176.843
176.915
176.993
177.064
177.121
177.159
177.18
177.191
177.198
177.206
177.214
177.216
177.2
177.159
177.087
176.99
176.882
176.776
176.673
176.557
176.388
176.118
175.713
175.173
174.545
173.912
173.359
172.945
172.686
172.572
172.6
172.805
173.261
174.376
174.569
174.665
174.776
174.876
174.974
175.067
175.157
175.244
175.328
175.41
175.489
175.567
175.643
175.718
175.791
175.864
175.935
176.006
176.076
176.146
176.216
176.286
176.356
176.425
176.492
176.555
176.615
176.668
176.712
176.746
176.767
176.774
176.768
176.756
176.75
176.758
176.782
176.813
176.853
176.896
176.936
176.966
176.979
176.97
176.94
176.891
176.828
176.756
176.682
176.615
176.56
176.525
176.513
176.524
176.558
176.609
176.669
176.728
176.779
176.815
176.837
176.846
176.849
176.854
176.863
176.877
176.887
176.886
176.863
176.814
176.739
176.643
176.528
176.389
176.211
175.965
175.625
175.179
174.643
174.063
173.507
173.041
172.705
172.513
172.462
172.557
172.833
173.333
174.048
174.275
174.457
174.547
174.651
174.747
174.84
174.929
175.015
175.099
175.18
175.259
175.336
175.411
175.485
175.558
175.63
175.701
175.771
175.841
175.91
175.98
176.049
176.118
176.185
176.251
176.315
176.373
176.422
176.459
176.476
176.472
176.446
176.414
176.398
176.422
176.49
176.559
176.578
176.616
176.648
176.673
176.687
176.684
176.663
176.628
176.583
176.525
176.463
176.401
176.347
176.306
176.283
176.28
176.297
176.33
176.374
176.422
176.466
176.502
176.525
176.535
176.539
176.541
176.547
176.56
176.578
176.595
176.601
176.586
176.543
176.469
176.362
176.22
176.036
175.798
175.491
175.106
174.645
174.133
173.613
173.137
172.753
172.492
172.363
172.369
172.521
172.838
173.321
173.87
174.211
174.168
174.34
174.425
174.525
174.617
174.706
174.791
174.874
174.955
175.033
175.11
175.185
175.258
175.33
175.401
175.472
175.541
175.611
175.68
175.749
175.817
175.885
175.953
176.018
176.079
176.132
176.171
176.191
176.19
176.179
176.18
176.231
176.363
176.56
176.71
176.591
176.085
176.19
176.194
176.208
176.218
176.229
176.248
176.274
176.298
176.241
176.188
176.137
176.093
176.063
176.049
176.053
176.072
176.103
176.142
176.182
176.217
176.243
176.258
176.264
176.264
176.264
176.269
176.281
176.297
176.311
176.315
176.296
176.247
176.16
176.03
175.853
175.623
175.336
174.987
174.58
174.126
173.654
173.199
172.801
172.494
172.3
172.229
172.286
172.481
172.82
173.274
173.726
173.948
173.723
174.058
174.221
174.303
174.399
174.487
174.572
174.655
174.735
174.813
174.889
174.964
175.037
175.108
175.179
175.249
175.318
175.387
175.455
175.524
175.592
175.66
175.727
175.79
175.846
175.889
175.915
175.923
175.925
175.943
176.006
176.126
176.252
176.213
175.682
174.193
171.279
175.996
175.922
175.879
175.845
175.825
175.821
175.832
175.855
175.888
175.924
175.959
175.988
176.006
176.013
176.01
176.001
175.994
175.991
175.996
176.006
176.015
176.012
175.984
175.921
175.813
175.654
175.441
175.172
174.849
174.476
174.066
173.636
173.212
172.823
172.498
172.262
172.129
172.109
172.21
172.436
172.782
173.201
173.58
173.745
173.568
173.137
173.946
174.102
174.181
174.273
174.358
174.441
174.521
174.599
174.674
174.748
174.821
174.892
174.962
175.032
175.101
175.169
175.237
175.306
175.374
175.442
175.506
175.565
175.613
175.646
175.664
175.674
175.695
175.751
175.847
175.942
175.911
175.537
174.578
172.927
170.857
169.169
175.687
175.616
175.595
175.584
175.589
175.607
175.635
175.668
175.7
175.727
175.745
175.751
175.746
175.733
175.717
175.704
175.697
175.699
175.706
175.709
175.696
175.655
175.572
175.439
175.25
175.003
174.703
174.357
173.978
173.58
173.184
172.812
172.487
172.229
172.055
171.976
172.002
172.138
172.386
172.728
173.11
173.428
173.548
173.389
173.022
172.672
173.833
173.984
174.06
174.149
174.231
174.311
174.389
174.465
174.539
174.611
174.682
174.752
174.821
174.889
174.958
175.026
175.095
175.162
175.228
175.289
175.341
175.381
175.407
175.426
175.449
175.493
175.566
175.645
175.642
175.403
174.749
173.575
171.979
170.342
169.217
168.933
175.384
175.329
175.328
175.334
175.353
175.379
175.407
175.433
175.452
175.462
175.46
175.45
175.434
175.417
175.404
175.398
175.399
175.403
175.398
175.373
175.314
175.209
175.048
174.829
174.556
174.234
173.879
173.504
173.13
172.773
172.454
172.188
171.99
171.871
171.841
171.905
172.07
172.33
172.662
173.006
173.269
173.35
173.197
172.875
172.55
172.378
173.72
173.866
173.94
174.026
174.106
174.184
174.26
174.334
174.406
174.477
174.547
174.616
174.684
174.753
174.821
174.889
174.956
175.019
175.075
175.12
175.154
175.181
175.209
175.252
175.314
175.378
175.387
175.238
174.788
173.93
172.674
171.216
169.913
169.121
168.943
169.072
175.087
175.047
175.057
175.068
175.089
175.111
175.131
175.145
175.151
175.149
175.14
175.127
175.114
175.106
175.103
175.104
175.103
175.088
175.048
174.968
174.838
174.651
174.406
174.112
173.779
173.424
173.065
172.72
172.406
172.137
171.926
171.781
171.71
171.721
171.818
172.005
172.27
172.584
172.889
173.103
173.149
172.999
172.712
172.423
172.261
172.259
173.608
173.749
173.821
173.905
173.983
174.059
174.133
174.205
174.276
174.346
174.415
174.484
174.553
174.621
174.689
174.753
174.812
174.862
174.902
174.936
174.97
175.014
175.075
175.14
175.167
175.074
174.755
174.115
173.119
171.859
170.569
169.541
168.993
168.912
169.044
169.057
174.787
174.755
174.767
174.777
174.793
174.809
174.821
174.828
174.829
174.826
174.821
174.816
174.814
174.816
174.817
174.81
174.783
174.725
174.623
174.468
174.255
173.99
173.682
173.347
173.001
172.664
172.353
172.081
171.86
171.697
171.599
171.57
171.616
171.74
171.941
172.204
172.497
172.763
172.932
172.948
172.799
172.541
172.289
172.15
172.165
172.307
173.495
173.632
173.703
173.785
173.861
173.936
174.008
174.08
174.15
174.22
174.289
174.358
174.426
174.492
174.553
174.607
174.652
174.692
174.73
174.776
174.836
174.904
174.95
174.912
174.7
174.222
173.425
172.351
171.144
170.031
169.241
168.88
168.875
169.003
169.042
168.898
174.477
174.45
174.461
174.469
174.482
174.494