/*--------------------------------*- C++ -*----------------------------------*\
| =========                 |                                                 |
| \\      /  F ield         | OpenFOAM: The Open Source CFD Toolbox           |
|  \\    /   O peration     | Version:  v2012                                 |
|   \\  /    A nd           | Website:  www.openfoam.com                      |
|    \\/     M anipulation  |                                                 |
\*---------------------------------------------------------------------------*/
FoamFile
{
    version     2.0;
    format      ascii;
    class       volScalarField;
    location    "350/air";
    object      ILambda_23_0;
}
// * * * * * * * * * * * * * * * * * * * * * * * * * * * * * * * * * * * * * //

dimensions      [1 0 -3 0 0 0 0];


internalField   nonuniform List<scalar> 
287104
(
200.074
201.631
202.93
204.056
205.036
205.897
206.666
207.363
208.005
208.598
209.143
209.644
210.105
210.531
210.928
211.301
211.651
211.983
212.298
212.599
212.885
213.159
213.422
213.675
213.918
214.153
214.381
214.601
214.815
215.023
215.225
215.422
215.614
215.802
215.985
216.165
216.341
216.514
216.684
216.851
217.015
217.175
217.334
217.491
217.646
217.798
217.949
218.097
218.243
218.388
218.53
218.67
218.809
218.945
219.08
219.212
219.343
219.47
219.596
219.72
219.842
219.963
220.083
220.203
220.323
220.443
220.562
220.682
220.801
220.919
221.035
221.15
221.262
221.373
221.485
221.599
221.715
221.832
221.946
222.056
222.162
222.267
222.378
222.497
222.622
222.75
222.888
223.235
224.41
219.708
218.861
220.894
222.549
223.963
225.174
226.22
227.139
227.965
228.719
229.408
230.032
230.597
231.108
231.574
232.003
232.398
232.766
233.109
233.43
233.733
234.018
234.287
234.542
234.784
235.015
235.235
235.446
235.648
235.842
236.028
236.208
236.381
236.549
236.712
236.869
237.021
237.17
237.317
237.46
237.599
237.734
237.866
237.996
238.126
238.253
238.377
238.499
238.62
238.739
238.855
238.97
239.084
239.196
239.306
239.415
239.522
239.627
239.73
239.831
239.93
240.027
240.124
240.22
240.316
240.412
240.508
240.605
240.702
240.8
240.897
240.992
241.086
241.178
241.269
241.363
241.464
241.572
241.686
241.799
241.903
241.994
242.076
242.159
242.256
242.369
242.483
242.625
243.288
245.323
235.41
219.327
221.336
222.97
224.364
225.556
226.583
227.484
228.292
229.027
229.696
230.303
230.85
231.344
231.794
232.206
232.586
232.938
233.265
233.571
233.859
234.129
234.384
234.624
234.852
235.068
235.275
235.471
235.659
235.84
236.012
236.179
236.339
236.493
236.642
236.785
236.924
237.06
237.194
237.324
237.45
237.572
237.69
237.807
237.925
238.04
238.152
238.262
238.37
238.477
238.582
238.685
238.787
238.887
238.985
239.083
239.178
239.272
239.364
239.454
239.542
239.629
239.715
239.801
239.886
239.972
240.058
240.144
240.231
240.318
240.404
240.489
240.573
240.654
240.735
240.819
240.909
241.006
241.108
241.209
241.302
241.381
241.452
241.526
241.614
241.718
241.817
241.935
242.658
244.88
234.553
217.032
218.959
220.534
221.876
223.024
224.013
224.881
225.66
226.37
227.017
227.603
228.131
228.608
229.043
229.441
229.807
230.147
230.463
230.759
231.037
231.298
231.544
231.776
231.997
232.206
232.405
232.595
232.777
232.951
233.118
233.278
233.433
233.582
233.725
233.863
233.996
234.126
234.256
234.382
234.503
234.62
234.733
234.845
234.959
235.07
235.177
235.282
235.386
235.489
235.59
235.689
235.787
235.883
235.977
236.071
236.162
236.252
236.34
236.426
236.511
236.594
236.677
236.759
236.84
236.922
237.005
237.088
237.171
237.254
237.337
237.418
237.498
237.576
237.653
237.734
237.82
237.913
238.011
238.107
238.194
238.269
238.335
238.406
238.492
238.594
238.686
238.777
239.47
241.778
232.32
215.557
217.434
218.971
220.281
221.402
222.368
223.216
223.978
224.672
225.305
225.878
226.396
226.863
227.288
227.678
228.037
228.37
228.68
228.97
229.243
229.499
229.74
229.968
230.185
230.39
230.586
230.772
230.951
231.122
231.285
231.443
231.594
231.74
231.881
232.016
232.145
232.272
232.4
232.523
232.641
232.755
232.865
232.974
233.086
233.194
233.298
233.401
233.502
233.602
233.7
233.797
233.892
233.986
234.078
234.169
234.258
234.346
234.432
234.516
234.599
234.68
234.76
234.84
234.92
234.999
235.08
235.16
235.241
235.322
235.403
235.482
235.56
235.636
235.712
235.791
235.876
235.968
236.065
236.16
236.247
236.322
236.388
236.459
236.546
236.651
236.742
236.821
237.487
239.828
230.903
214.731
216.577
218.09
219.38
220.483
221.435
222.27
223.019
223.702
224.325
224.89
225.4
225.86
226.279
226.663
227.017
227.345
227.65
227.936
228.204
228.457
228.695
228.919
229.132
229.335
229.528
229.711
229.887
230.055
230.216
230.371
230.519
230.663
230.8
230.933
231.06
231.184
231.307
231.427
231.542
231.653
231.761
231.867
231.975
232.079
232.18
232.28
232.377
232.474
232.569
232.662
232.754
232.844
232.933
233.02
233.106
233.19
233.273
233.353
233.433
233.51
233.587
233.663
233.739
233.815
233.892
233.968
234.045
234.122
234.199
234.274
234.348
234.42
234.493
234.568
234.649
234.737
234.831
234.923
235.007
235.079
235.142
235.21
235.293
235.394
235.483
235.555
236.193
238.478
229.677
214.066
215.885
217.378
218.649
219.737
220.674
221.497
222.236
222.91
223.524
224.08
224.581
225.035
225.448
225.826
226.175
226.498
226.799
227.081
227.346
227.595
227.83
228.051
228.261
228.46
228.65
228.831
229.003
229.169
229.327
229.478
229.623
229.763
229.897
230.027
230.151
230.271
230.388
230.502
230.612
230.72
230.825
230.927
231.026
231.124
231.219
231.312
231.403
231.492
231.579
231.665
231.749
231.831
231.912
231.991
232.069
232.145
232.22
232.292
232.363
232.433
232.501
232.568
232.635
232.703
232.77
232.837
232.905
232.972
233.039
233.104
233.167
233.228
233.289
233.352
233.421
233.496
233.576
233.655
233.725
233.783
233.832
233.884
233.95
234.035
234.11
234.166
234.76
236.927
228.017
213.376
215.168
216.638
217.891
218.963
219.887
220.698
221.426
222.088
222.691
223.236
223.726
224.171
224.577
224.95
225.294
225.614
225.912
226.191
226.452
226.699
226.931
227.15
227.357
227.554
227.74
227.918
228.088
228.25
228.405
228.553
228.694
228.829
228.958
229.082
229.203
229.316
229.421
229.523
229.623
229.722
229.82
229.912
229.996
230.079
230.162
230.243
230.321
230.397
230.471
230.542
230.611
230.679
230.744
230.808
230.869
230.928
230.985
231.04
231.092
231.142
231.19
231.237
231.283
231.328
231.373
231.417
231.461
231.505
231.547
231.587
231.625
231.661
231.697
231.734
231.777
231.826
231.88
231.933
231.978
232.011
232.036
232.063
232.105
232.167
232.223
232.262
232.823
234.884
225.63
212.654
214.416
215.864
217.098
218.153
219.063
219.862
220.579
221.23
221.811
222.316
222.791
223.226
223.626
223.995
224.338
224.656
224.955
225.235
225.499
225.747
225.982
226.203
226.411
226.607
226.791
226.965
227.129
227.284
227.431
227.569
227.7
227.823
227.939
228.053
228.165
228.265
228.348
228.428
228.513
228.597
228.683
228.762
228.821
228.883
228.949
229.01
229.07
229.126
229.179
229.23
229.279
229.327
229.373
229.416
229.458
229.497
229.533
229.568
229.6
229.63
229.658
229.685
229.711
229.736
229.761
229.786
229.81
229.834
229.857
229.879
229.898
229.916
229.933
229.953
229.978
230.011
230.048
230.085
230.118
230.15
230.171
230.192
230.225
230.278
230.328
230.364
230.917
232.891
223.308
211.927
213.66
215.086
216.3
217.34
218.236
219.022
219.724
220.352
220.941
221.485
221.764
222.054
222.371
222.711
223.062
223.416
223.766
224.106
224.434
224.747
225.042
225.32
225.579
225.818
226.04
226.244
226.433
226.61
226.774
226.929
227.075
227.207
227.328
227.447
227.567
227.671
227.745
227.817
227.901
227.986
228.079
228.161
228.208
228.259
228.321
228.377
228.428
228.475
228.52
228.561
228.601
228.639
228.675
228.707
228.737
228.763
228.787
228.808
228.827
228.842
228.856
228.868
228.878
228.888
228.897
228.905
228.912
228.919
228.924
228.928
228.93
228.93
228.93
228.932
228.94
228.956
228.979
229.007
229.02
228.976
228.961
228.956
228.969
229.007
229.049
229.089
229.645
231.566
222.033
211.212
212.916
214.32
215.516
216.539
217.422
218.198
218.911
219.554
219.168
213.291
212.609
212.993
213.737
214.589
215.448
216.268
217.03
217.725
218.35
218.905
219.391
219.81
220.168
220.469
220.719
220.926
221.097
221.241
221.365
221.474
221.572
221.658
221.735
221.814
221.903
221.976
222.012
222.051
222.113
222.18
222.264
222.339
222.368
222.407
222.465
222.516
222.564
222.606
222.645
222.679
222.709
222.734
222.753
222.766
222.772
222.772
222.765
222.752
222.733
222.707
222.675
222.637
222.594
222.545
222.491
222.433
222.371
222.305
222.235
222.162
222.085
222.005
221.923
221.842
221.764
221.686
221.598
221.474
221.622
223.864
225.433
226.509
227.244
227.755
228.104
228.349
229.047
231.055
221.955
210.513
212.188
213.571
214.749
215.757
216.625
217.391
218.111
218.745
217.778
209.644
208.67
209.108
210.021
211.071
212.124
213.123
214.045
214.88
215.623
216.274
216.836
217.313
217.71
218.034
218.294
218.498
218.656
218.778
218.875
218.956
219.025
219.087
219.147
219.219
219.313
219.398
219.437
219.486
219.575
219.678
219.812
219.943
220.013
220.1
220.223
220.342
220.461
220.581
220.703
220.825
220.948
221.068
221.186
221.299
221.408
221.512
221.61
221.703
221.788
221.866
221.934
221.993
222.042
222.079
222.105
222.117
222.117
222.102
222.073
222.028
221.969
221.894
221.806
221.706
221.596
221.476
221.329
221.143
221.375
223.936
225.702
226.91
227.73
228.289
228.662
228.924
229.658
231.754
223.246
209.828
211.474
212.837
213.997
214.989
215.844
216.596
217.312
217.945
216.891
208.604
207.606
208.043
208.964
210.024
211.088
212.1
213.032
213.876
214.628
215.285
215.85
216.327
216.721
217.039
217.29
217.481
217.622
217.724
217.797
217.851
217.895
217.933
217.972
218.029
218.118
218.197
218.214
218.242
218.323
218.421
218.561
218.7
218.756
218.833
218.959
219.08
219.204
219.332
219.464
219.599
219.735
219.871
220.005
220.14
220.275
220.41
220.546
220.682
220.818
220.954
221.091
221.228
221.365
221.503
221.64
221.778
221.914
222.05
222.184
222.315
222.442
222.565
222.682
222.794
222.901
223
223.075
223.122
223.555
225.925
227.526
228.606
229.339
229.846
230.189
230.446
231.224
233.467
225.53
209.155
210.773
212.115
213.257
214.234
215.075
215.814
216.52
217.161
216.179
208.128
207.146
207.568
208.462
209.494
210.531
211.518
212.429
213.255
213.989
214.633
215.186
215.652
216.035
216.345
216.587
216.772
216.906
216.998
217.059
217.099
217.129
217.153
217.18
217.228
217.316
217.392
217.387
217.391
217.461
217.548
217.686
217.825
217.856
217.908
218.022
218.128
218.239
218.353
218.471
218.588
218.702
218.811
218.915
219.016
219.115
219.213
219.309
219.403
219.497
219.589
219.681
219.773
219.864
219.956
220.049
220.143
220.24
220.338
220.438
220.541
220.647
220.755
220.868
220.986
221.109
221.239
221.359
221.453
221.855
224.082
225.564
226.572
227.29
227.81
228.2
228.54
229.432
231.829
224.057
208.492
210.082
211.404
212.529
213.491
214.319
215.045
215.739
216.382
215.455
207.593
206.626
207.037
207.909
208.917
209.931
210.897
211.789
212.598
213.318
213.949
214.491
214.947
215.322
215.625
215.863
216.047
216.181
216.273
216.329
216.361
216.381
216.397
216.416
216.462
216.554
216.635
216.616
216.602
216.667
216.749
216.892
217.039
217.054
217.09
217.201
217.305
217.416
217.53
217.645
217.756
217.859
217.958
218.053
218.146
218.238
218.327
218.412
218.493
218.569
218.642
218.711
218.777
218.84
218.902
218.962
219.019
219.074
219.127
219.178
219.227
219.273
219.315
219.356
219.395
219.434
219.474
219.497
219.48
219.75
221.895
223.266
224.154
224.753
225.182
225.507
225.799
226.639
228.926
221.056
207.839
209.402
210.704
211.811
212.759
213.574
214.289
214.971
215.605
214.699
206.972
206.021
206.424
207.282
208.273
209.271
210.221
211.099
211.894
212.603
213.224
213.757
214.205
214.573
214.869
215.104
215.288
215.427
215.523
215.581
215.61
215.621
215.627
215.64
215.684
215.784
215.875
215.848
215.822
215.886
215.97
216.121
216.284
216.292
216.32
216.439
216.553
216.677
216.805
216.928
217.041
217.144
217.244
217.344
217.445
217.546
217.643
217.737
217.827
217.914
217.997
218.078
218.156
218.232
218.307
218.379
218.449
218.517
218.584
218.648
218.709
218.767
218.821
218.872
218.921
218.971
219.021
219.051
219.032
219.279
221.315
222.602
223.426
223.977
224.376
224.68
224.959
225.766
227.957
220.45
207.197
208.732
210.015
211.105
212.038
212.841
213.544
214.215
214.836
213.94
206.332
205.398
205.796
206.641
207.619
208.603
209.539
210.404
211.188
211.887
212.498
213.022
213.462
213.822
214.112
214.342
214.526
214.67
214.775
214.84
214.87
214.875
214.872
214.877
214.919
215.025
215.127
215.098
215.063
215.129
215.215
215.376
215.556
215.564
215.591
215.724
215.859
216.006
216.152
216.285
216.402
216.508
216.614
216.726
216.842
216.958
217.071
217.181
217.289
217.395
217.5
217.604
217.707
217.811
217.914
218.018
218.123
218.228
218.334
218.44
218.547
218.653
218.758
218.864
218.971
219.082
219.196
219.3
219.38
219.77
221.843
223.175
224.035
224.613
225.034
225.359
225.656
226.465
228.669
221.596
206.565
208.073
209.337
210.41
211.329
212.119
212.812
213.471
214.081
213.197
205.71
204.794
205.188
206.022
206.985
207.954
208.876
209.728
210.499
211.185
211.785
212.299
212.73
213.081
213.36
213.583
213.762
213.908
214.022
214.099
214.134
214.135
214.121
214.113
214.144
214.25
214.358
214.323
214.276
214.337
214.422
214.586
214.78
214.791
214.82
214.972
215.131
215.301
215.461
215.595
215.706
215.807
215.915
216.031
216.152
216.272
216.388
216.5
216.61
216.72
216.828
216.937
217.046
217.156
217.266
217.379
217.492
217.608
217.725
217.843
217.963
218.084
218.204
218.326
218.449
218.576
218.707
218.83
218.938
219.369
221.459
222.83
223.727
224.336
224.778
225.115
225.409
226.207
228.424
221.243
205.944
207.425
208.67
209.727
210.631
211.409
212.091
212.741
213.342
212.482
205.136
204.244
204.637
205.46
206.409
207.362
208.267
209.102
209.855
210.522
211.1
211.591
211.995
212.317
212.567
212.758
212.908
213.033
213.137
213.209
213.24
213.227
213.188
213.148
213.149
213.231
213.326
213.273
213.204
213.252
213.329
213.494
213.703
213.728
213.776
213.962
214.16
214.362
214.536
214.67
214.772
214.868
214.971
215.082
215.192
215.295
215.39
215.478
215.561
215.64
215.717
215.791
215.864
215.936
216.008
216.08
216.152
216.224
216.296
216.368
216.439
216.509
216.576
216.641
216.704
216.767
216.829
216.879
216.907
217.259
219.371
220.788
221.739
222.391
222.861
223.203
223.477
224.224
226.317
218.837
205.334
206.789
208.015
209.056
209.946
210.712
211.384
212.028
212.632
211.749
204.292
203.406
203.804
204.628
205.567
206.495
207.356
208.126
208.795
209.362
209.828
210.2
210.487
210.697
210.844
210.942
211.014
211.076
211.136
211.184
211.2
211.173
211.11
211.037
211
211.049
211.122
211.052
210.963
210.999
211.069
211.233
211.462
211.521
211.616
211.868
212.139
212.408
212.637
212.814
212.958
213.094
213.233
213.367
213.483
213.573
213.64
213.684
213.709
213.72
213.722
213.718
213.712
213.705
213.698
213.692
213.687
213.682
213.678
213.674
213.669
213.661
213.651
213.638
213.622
213.604
213.582
213.539
213.456
213.73
216.214
217.9
219.043
219.829
220.385
220.777
221.066
221.771
223.711
216.084
204.735
206.163
207.371
208.395
209.272
210.026
210.686
211.303
211.878
211.828
209.971
209.958
210.317
210.79
211.287
211.769
212.218
212.627
212.993
213.317
213.599
213.843
214.051
214.225
214.37
214.492
214.607
214.731
214.873
215.022
215.147
215.221
215.238
215.224
215.233
215.337
215.473
215.433
215.35
215.405
215.474
215.622
215.828
215.808
215.814
216.001
216.196
216.364
216.469
216.521
216.56
216.619
216.702
216.794
216.876
216.942
216.991
217.029
217.056
217.075
217.087
217.094
217.097
217.098
217.097
217.094
217.091
217.088
217.084
217.079
217.073
217.065
217.055
217.044
217.033
217.026
217.021
217.01
216.982
217.111
217.894
218.431
218.803
219.072
219.281
219.435
219.551
220.096
221.823
214.067
204.143
205.545
206.736
207.744
208.607
209.35
209.999
210.59
211.156
211.625
211.912
212.249
212.598
212.933
213.249
213.545
213.822
214.08
214.321
214.546
214.755
214.95
215.131
215.298
215.448
215.585
215.717
215.863
216.036
216.23
216.415
216.552
216.623
216.643
216.67
216.789
216.951
216.923
216.844
216.914
216.98
217.115
217.309
217.248
217.217
217.376
217.526
217.625
217.649
217.628
217.617
217.647
217.713
217.79
217.859
217.917
217.965
218.007
218.046
218.08
218.109
218.135
218.157
218.175
218.191
218.204
218.215
218.225
218.233
218.24
218.245
218.248
218.249
218.25
218.252
218.259
218.272
218.288
218.296
218.313
218.379
218.428
218.466
218.509
218.562
218.607
218.642
219.105
220.712
213.066
203.558
204.933
206.107
207.099
207.948
208.68
209.32
209.896
210.446
211.008
211.583
211.981
212.331
212.646
212.933
213.199
213.446
213.679
213.899
214.107
214.305
214.492
214.671
214.839
214.995
215.137
215.269
215.409
215.576
215.773
215.978
216.148
216.252
216.293
216.323
216.436
216.596
216.566
216.48
216.552
216.606
216.726
216.923
216.857
216.829
216.993
217.13
217.198
217.192
217.162
217.165
217.219
217.307
217.399
217.481
217.551
217.614
217.674
217.732
217.785
217.834
217.879
217.92
217.956
217.99
218.02
218.047
218.072
218.095
218.116
218.135
218.151
218.164
218.177
218.19
218.209
218.234
218.264
218.288
218.287
218.247
218.221
218.208
218.215
218.244
218.273
218.295
218.73
220.3
213.126
202.975
204.325
205.481
206.457
207.293
208.014
208.646
209.213
209.739
210.249
210.737
211.132
211.485
211.804
212.096
212.367
212.618
212.854
213.077
213.287
213.485
213.673
213.851
214.022
214.182
214.328
214.461
214.593
214.742
214.923
215.126
215.311
215.44
215.5
215.535
215.64
215.791
215.756
215.679
215.733
215.754
215.841
216.014
215.95
215.928
216.092
216.21
216.25
216.228
216.207
216.234
216.313
216.415
216.513
216.597
216.672
216.743
216.812
216.878
216.938
216.993
217.044
217.089
217.13
217.167
217.2
217.23
217.258
217.284
217.308
217.331
217.352
217.372
217.393
217.416
217.445
217.482
217.525
217.568
217.596
217.602
217.61
217.626
217.659
217.712
217.763
217.805
218.251
219.843
212.995
202.397
203.72
204.859
205.82
206.642
207.352
207.975
208.533
209.042
209.511
209.94
210.328
210.678
210.999
211.294
211.566
211.82
212.058
212.282
212.492
212.691
212.877
213.055
213.226
213.39
213.546
213.688
213.821
213.96
214.125
214.315
214.501
214.645
214.723
214.766
214.867
215.009
214.958
214.803
214.812
214.765
214.792
214.982
214.893
214.852
214.988
215.063
215.06
215.016
214.995
215.026
215.094
215.168
215.229
215.277
215.319
215.358
215.394
215.425
215.451
215.472
215.49
215.506
215.521
215.536
215.552
215.57
215.591
215.615
215.643
215.674
215.708
215.745
215.786
215.833
215.889
215.954
216.028
216.106
216.179
216.243
216.301
216.362
216.439
216.533
216.624
216.705
217.19
218.825
212.084
201.824
203.122
204.243
205.189
205.998
206.696
207.31
207.861
208.361
208.816
209.231
209.613
209.959
210.276
210.569
210.839
211.091
211.327
211.55
211.759
211.956
212.141
212.316
212.486
212.653
212.819
212.979
213.127
213.271
213.427
213.605
213.787
213.937
214.023
214.068
214.161
214.291
214.274
214.351
214.237
214.017
213.808
213.557
213.344
213.191
213.217
213.183
213.081
212.963
212.884
212.854
212.845
212.835
212.821
212.812
212.815
212.827
212.847
212.869
212.895
212.925
212.96
212.999
213.043
213.092
213.145
213.203
213.266
213.334
213.406
213.483
213.562
213.645
213.731
213.822
213.921
214.027
214.142
214.259
214.374
214.48
214.577
214.676
214.786
214.912
215.032
215.142
215.659
217.299
210.529
201.263
202.536
203.641
204.571
205.368
206.055
206.659
207.203
207.698
208.151
208.563
208.939
209.281
209.593
209.881
210.148
210.397
210.631
210.851
211.059
211.256
211.439
211.612
211.779
211.946
212.119
212.295
212.466
212.629
212.793
212.967
213.147
213.302
213.391
213.431
213.517
213.648
213.454
212.379
211.857
211.1
210.525
210.777
210.298
209.969
209.877
209.769
209.639
209.533
209.484
209.486
209.512
209.549
209.604
209.682
209.779
209.887
209.998
210.109
210.221
210.333
210.447
210.562
210.677
210.792
210.909
211.027
211.146
211.265
211.386
211.507
211.628
211.748
211.869
211.992
212.119
212.252
212.389
212.526
212.658
212.779
212.891
213.001
213.121
213.254
213.377
213.491
214.004
215.595
208.778
200.729
201.977
203.066
203.983
204.767
205.443
206.038
206.575
207.065
207.515
207.924
208.294
208.631
208.94
209.225
209.489
209.735
209.966
210.185
210.393
210.589
210.773
210.946
211.11
211.272
211.442
211.625
211.812
212
212.183
212.368
212.557
212.725
212.828
212.868
212.934
213.044
213.048
213.697
211.769
209.928
208.468
206.246
205.845
205.678
205.802
205.931
206.053
206.196
206.371
206.562
206.755
206.951
207.158
207.377
207.598
207.811
208.011
208.2
208.38
208.553
208.721
208.883
209.041
209.195
209.345
209.492
209.637
209.779
209.917
210.053
210.186
210.315
210.442
210.567
210.695
210.825
210.956
211.085
211.205
211.314
211.412
211.509
211.614
211.729
211.836
211.936
212.426
213.941
207.139
200.242
201.468
202.542
203.446
204.219
204.885
205.471
206
206.485
206.929
207.334
207.7
208.033
208.338
208.62
208.882
209.127
209.357
209.575
209.782
209.979
210.165
210.34
210.503
210.659
210.82
210.994
211.182
211.384
211.588
211.791
211.998
212.193
212.335
212.41
212.496
212.612
211.876
207.857
204.6
202.577
201.598
201.834
202.048
202.4
202.98
203.495
203.952
204.373
204.759
205.103
205.412
205.705
205.993
206.272
206.532
206.766
206.978
207.175
207.362
207.541
207.714
207.881
208.041
208.197
208.348
208.493
208.633
208.768
208.898
209.022
209.14
209.252
209.36
209.465
209.571
209.677
209.783
209.887
209.982
210.065
210.139
210.211
210.291
210.381
210.463
210.54
210.998
212.443
205.693
199.826
201.033
202.095
202.988
203.751
204.41
204.989
205.511
205.99
206.429
206.828
207.19
207.52
207.822
208.102
208.362
208.606
208.835
209.053
209.261
209.46
209.65
209.828
209.993
210.146
210.296
210.452
210.628
210.827
211.039
211.257
211.48
211.706
211.908
212.057
212.23
212.404
209.586
193.373
190.657
189.118
189.926
199.942
200.435
200.99
201.729
202.376
202.97
203.511
203.988
204.404
204.776
205.12
205.439
205.73
205.99
206.22
206.426
206.618
206.799
206.973
207.141
207.303
207.457
207.605
207.746
207.881
208.008
208.129
208.243
208.349
208.448
208.539
208.624
208.705
208.784
208.863
208.942
209.017
209.083
209.139
209.186
209.231
209.283
209.347
209.406
209.461
209.886
211.263
204.573
199.505
200.697
201.75
202.634
203.391
204.044
204.619
205.137
205.612
206.047
206.443
206.803
207.13
207.43
207.708
207.966
208.208
208.437
208.654
208.863
209.064
209.257
209.439
209.608
209.762
209.905
210.048
210.213
210.402
210.612
210.836
211.065
211.317
211.577
211.813
212.101
212.372
207.262
178.969
177.412
176.414
179.222
199.511
200.016
200.551
201.239
201.837
202.418
202.96
203.448
203.887
204.293
204.673
205.026
205.344
205.626
205.875
206.101
206.311
206.508
206.695
206.873
207.043
207.202
207.354
207.497
207.632
207.759
207.877
207.987
208.087
208.177
208.257
208.327
208.389
208.447
208.501
208.553
208.599
208.636
208.661
208.676
208.689
208.711
208.745
208.775
208.803
209.195
210.514
203.882
199.291
200.473
201.52
202.399
203.152
203.802
204.375
204.892
205.367
205.802
206.199
206.559
206.887
207.187
207.465
207.723
207.965
208.193
208.41
208.617
208.819
209.014
209.2
209.373
209.529
209.67
209.808
209.975
210.161
210.371
210.597
210.824
211.076
211.372
211.655
211.995
212.351
205.956
171.403
170.569
169.857
173.836
199.677
200.154
200.608
201.175
201.643
202.126
202.595
203.036
203.459
203.874
204.282
204.673
205.036
205.364
205.661
205.936
206.204
206.44
206.661
206.869
207.066
207.253
207.431
207.601
207.763
207.917
208.062
208.196
208.317
208.425
208.518
208.596
208.659
208.708
208.745
208.77
208.781
208.776
208.756
208.725
208.692
208.669
208.66
208.65
208.641
208.994
210.263
203.675
199.18
200.356
201.4
202.276
203.027
203.676
204.248
204.766
205.242
205.681
206.081
206.446
206.778
207.084
207.366
207.629
207.874
208.105
208.324
208.533
208.736
208.934
209.125
209.305
209.467
209.605
209.737
209.907
210.091
210.303
210.535
210.764
211.161
211.445
211.696
211.937
212.34
205.842
169.717
169.158
168.591
173.497
204.112
203.865
203.505
203.324
203.161
203.173
203.293
203.486
203.746
204.065
204.426
204.803
205.171
205.516
205.841
206.142
206.335
206.615
206.872
207.12
207.357
207.581
207.793
207.995
208.193
208.392
208.595
208.803
209.011
209.21
209.389
209.536
209.645
209.712
209.739
209.734
209.703
209.651
209.584
209.507
209.43
209.361
209.301
209.233
209.163
209.454
210.661
204.106
199.152
200.327
201.369
202.243
202.992
203.64
204.21
204.727
205.203
205.643
206.046
206.414
206.751
207.063
207.353
207.624
207.878
208.117
208.345
208.563
208.774
208.981
209.187
209.384
209.559
209.705
209.851
210.007
210.165
210.354
210.549
210.741
211.112
211.279
211.348
211.36
211.852
205.642
170.213
169.688
169.21
174.856
208.689
208.585
207.921
207.337
206.717
206.282
205.95
205.712
205.591
205.591
205.689
205.848
206.038
206.243
206.465
206.695
206.816
207.08
207.326
207.564
207.792
208.013
208.246
208.514
208.835
209.209
209.62
210.039
210.43
210.762
211.014
211.176
211.255
211.264
211.22
211.139
211.031
210.901
210.753
210.595
210.439
210.298
210.177
210.06
209.954
210.221
211.423
204.921
199.176
200.351
201.393
202.267
203.015
203.661
204.229
204.743
205.216
205.653
206.053
206.419
206.756
207.068
207.361
207.636
207.897
208.145
208.383
208.612
208.836
209.06
209.289
209.514
209.717
209.875
209.96
210.087
210.185
210.309
210.479
210.532
210.686
210.514
210.186
210.095
211.229
205.182
169.228
168.599
168.166
174.421
210.563
210.618
209.472
208.874
208.344
208.028
207.743
207.48
207.28
207.155
207.093
207.069
207.079
207.13
207.23
207.361
207.404
207.605
207.784
207.967
208.205
208.553
209.032
209.616
210.243
210.839
211.339
211.709
211.945
212.069
212.104
212.077
212.009
211.916
211.811
211.698
211.58
211.454
211.318
211.176
211.038
210.914
210.809
210.706
210.611
210.893
212.135
205.526
199.217
200.394
201.438
202.313
203.062
203.708
204.276
204.788
205.259
205.692
206.089
206.45
206.782
207.091
207.38
207.653
207.913
208.162
208.403
208.637
208.868
209.103
209.348
209.595
209.822
210.046
210.396
210.46
210.437
210.347
210.039
209.831
209.625
208.943
208.113
208.581
210.206
204.805
172.469
171.661
171.272
177.638
212.732
213.663
211.649
210.964
210.147
209.45
208.893
208.487
208.254
208.11
207.98
207.83
207.695
207.649
207.74
207.904
207.915
208.092
208.397
208.934
209.645
210.382
211.015
211.483
211.789
211.964
212.04
212.047
212.007
211.939
211.857
211.769
211.685
211.607
211.539
211.479
211.423
211.362
211.293
211.215
211.136
211.066
211.008
210.946
210.887
211.212
212.51
205.696
199.25
200.43
201.475
202.352
203.103
203.751
204.321
204.835
205.307
205.741
206.137
206.498
206.829
207.135
207.422
207.693
207.951
208.199
208.439
208.674
208.907
209.146
209.398
209.66
209.909
209.991
209.301
209.156
208.799
208.461
208.704
208.177
207.726
207.076
206.838
200.393
212.497
212.245
210.825
209.69
208.976
208.51
208.362
208.317
208.308
208.313
208.321
208.351
208.486
208.838
209.338
210.062
210.667
211.087
211.356
211.507
211.561
211.545
211.485
211.406
211.321
211.241
211.17
211.107
211.055
211.011
210.978
210.956
210.948
210.949
210.954
210.954
210.943
210.921
210.896
210.878
210.869
210.852
210.833
211.199
212.528
205.566
199.264
200.444
201.49
202.368
203.12
203.77
204.341
204.858
205.333
205.769
206.168
206.531
206.864
207.172
207.461
207.733
207.993
208.243
208.487
208.726
208.965
209.21
209.467
209.728
209.963
210.317
211.771
210.799
209.638
208.456
206.104
205.661
205.508
205.573
206.275
198.483
211.744
212.437
211.174
210.178
209.503
209.122
209.04
209.171
209.414
209.67
209.855
210.037
210.274
210.553
210.666
210.858
210.909
210.869
210.788
210.694
210.596
210.498
210.408
210.332
210.275
210.235
210.21
210.197
210.195
210.202
210.218
210.245
210.282
210.327
210.374
210.414
210.441
210.456
210.467
210.482
210.505
210.519
210.531
210.925
212.27
205.25
199.259
200.439
201.484
202.362
203.114
203.763
204.335
204.852
205.328
205.765
206.165
206.529
206.864
207.174
207.464
207.739
208.001
208.255
208.503
208.748
208.994
209.247
209.513
209.787
210.005
209.756
207.293
205
203.474
202.718
202.939
203.214
203.804
204.777
206.493
199.086
211.094
212.147
211.121
210.31
209.708
209.337
209.211
209.285
209.465
209.666
209.824
209.936
210.017
210.056
209.887
209.85
209.758
209.654
209.561
209.485
209.425
209.383
209.359
209.353
209.362
209.384
209.414
209.452
209.496
209.545
209.599
209.661
209.73
209.804
209.877
209.943
209.993
210.031
210.062
210.096
210.136
210.167
210.193
210.593
211.931
204.907
199.242
200.42
201.465
202.342
203.093
203.741
204.313
204.829
205.304
205.741
206.14
206.505
206.84
207.15
207.442
207.717
207.981
208.237
208.488
208.738
208.989
209.245
209.516
209.829
210.045
207.708
192.92
190.783
189.541
190.645
201.412
202.091
203.088
204.541
206.863
199.807
210.812
211.886
210.895
210.005
209.303
208.825
208.569
208.493
208.525
208.597
208.697
208.773
208.813
208.815
208.65
208.643
208.614
208.589
208.577
208.578
208.591
208.617
208.654
208.703
208.761
208.824
208.891
208.962
209.035
209.11
209.19
209.274
209.364
209.458
209.549
209.632
209.699
209.751
209.796
209.843
209.893
209.932
209.963
210.361
211.686
204.685
199.222
200.4
201.444
202.32
203.07
203.717
204.288
204.803
205.276
205.712
206.111
206.475
206.809
207.119
207.41
207.686
207.95
208.207
208.459
208.71
208.962
209.217
209.487
209.85
210.063
205.268
177.792
176.432
175.605
178.855
200.819
201.616
202.728
204.281
206.756
199.831
210.815
211.863
210.808
209.852
209.028
208.422
208.026
207.815
207.743
207.76
207.835
207.91
207.976
208.022
207.923
207.982
208.023
208.065
208.11
208.157
208.209
208.268
208.335
208.407
208.483
208.563
208.645
208.729
208.815
208.903
208.994
209.091
209.194
209.301
209.405
209.501
209.581
209.646
209.703
209.761
209.822
209.87
209.907
210.305
211.626
204.66
199.206
200.383
201.427
202.303
203.053
203.7
204.27
204.784
205.257
205.691
206.089
206.451
206.784
207.093
207.382
207.656
207.919
208.173
208.423
208.672
208.921
209.17
209.432
209.829
210.054
203.752
169.37
168.535
167.943
172.517
200.746
201.54
202.578
203.954
206.189
199.192
211.238
212.476
211.322
210.351
209.378