/*--------------------------------*- C++ -*----------------------------------*\
| =========                 |                                                 |
| \\      /  F ield         | OpenFOAM: The Open Source CFD Toolbox           |
|  \\    /   O peration     | Version:  v2012                                 |
|   \\  /    A nd           | Website:  www.openfoam.com                      |
|    \\/     M anipulation  |                                                 |
\*---------------------------------------------------------------------------*/
FoamFile
{
    version     2.0;
    format      ascii;
    class       volScalarField;
    location    "350/air";
    object      ILambda_65_0;
}
// * * * * * * * * * * * * * * * * * * * * * * * * * * * * * * * * * * * * * //

dimensions      [1 0 -3 0 0 0 0];


internalField   nonuniform List<scalar> 
287104
(
166.693
166.696
166.699
166.706
166.712
166.712
166.728
166.784
166.866
166.927
166.939
166.917
166.896
166.894
166.905
166.918
166.927
166.933
166.939
166.945
166.951
166.958
166.964
166.971
166.977
166.984
166.99
166.996
167.002
167.009
167.015
167.021
167.027
167.033
167.039
167.045
167.051
167.057
167.062
167.068
167.074
167.08
167.086
167.092
167.097
167.103
167.109
167.115
167.12
167.126
167.132
167.138
167.143
167.149
167.155
167.16
167.166
167.172
167.177
167.183
167.189
167.194
167.2
167.205
167.211
167.217
167.222
167.228
167.233
167.238
167.244
167.249
167.255
167.26
167.265
167.271
167.276
167.281
167.287
167.292
167.297
167.302
167.308
167.313
167.318
167.324
167.329
167.335
167.342
167.351
166.693
166.696
166.699
166.706
166.712
166.712
166.728
166.783
166.866
166.927
166.939
166.917
166.896
166.893
166.904
166.917
166.926
166.932
166.938
166.944
166.95
166.957
166.963
166.969
166.976
166.982
166.988
166.994
167.001
167.007
167.013
167.019
167.025
167.031
167.036
167.042
167.048
167.054
167.06
167.065
167.071
167.077
167.083
167.088
167.094
167.1
167.105
167.111
167.117
167.122
167.128
167.133
167.139
167.145
167.15
167.156
167.162
167.167
167.173
167.178
167.184
167.189
167.195
167.2
167.206
167.211
167.217
167.222
167.227
167.233
167.238
167.243
167.249
167.254
167.259
167.264
167.27
167.275
167.28
167.285
167.29
167.295
167.301
167.306
167.311
167.317
167.322
167.327
167.334
167.343
166.693
166.696
166.698
166.706
166.712
166.712
166.727
166.783
166.865
166.927
166.938
166.916
166.895
166.892
166.903
166.916
166.925
166.931
166.937
166.943
166.949
166.956
166.962
166.968
166.975
166.981
166.987
166.993
166.999
167.005
167.011
167.017
167.023
167.029
167.035
167.04
167.046
167.052
167.058
167.063
167.069
167.075
167.08
167.086
167.092
167.097
167.103
167.108
167.114
167.119
167.125
167.131
167.136
167.142
167.147
167.153
167.158
167.164
167.169
167.175
167.18
167.186
167.191
167.196
167.202
167.207
167.213
167.218
167.223
167.228
167.234
167.239
167.244
167.249
167.254
167.259
167.265
167.27
167.275
167.28
167.285
167.29
167.295
167.3
167.305
167.31
167.316
167.321
167.327
167.336
166.693
166.695
166.698
166.706
166.711
166.712
166.727
166.783
166.865
166.926
166.938
166.916
166.894
166.892
166.902
166.915
166.924
166.93
166.936
166.942
166.948
166.955
166.961
166.967
166.973
166.979
166.986
166.992
166.998
167.004
167.01
167.016
167.021
167.027
167.033
167.039
167.044
167.05
167.056
167.061
167.067
167.073
167.078
167.084
167.089
167.095
167.1
167.106
167.111
167.117
167.122
167.128
167.133
167.139
167.144
167.149
167.155
167.16
167.166
167.171
167.177
167.182
167.187
167.193
167.198
167.203
167.208
167.214
167.219
167.224
167.229
167.234
167.24
167.245
167.25
167.255
167.26
167.265
167.27
167.275
167.28
167.285
167.29
167.295
167.3
167.305
167.31
167.315
167.322
167.33
166.693
166.695
166.698
166.705
166.711
166.711
166.727
166.782
166.864
166.926
166.937
166.915
166.894
166.891
166.902
166.914
166.923
166.93
166.935
166.941
166.947
166.954
166.96
166.966
166.972
166.978
166.984
166.99
166.996
167.002
167.008
167.014
167.02
167.025
167.031
167.037
167.042
167.048
167.054
167.059
167.065
167.07
167.076
167.081
167.087
167.092
167.097
167.103
167.108
167.114
167.119
167.124
167.13
167.135
167.141
167.146
167.151
167.157
167.162
167.167
167.172
167.178
167.183
167.188
167.193
167.199
167.204
167.209
167.214
167.219
167.224
167.229
167.234
167.239
167.244
167.249
167.254
167.259
167.264
167.269
167.274
167.278
167.283
167.288
167.293
167.298
167.303
167.308
167.314
167.323
166.693
166.695
166.698
166.705
166.711
166.711
166.726
166.782
166.864
166.925
166.937
166.915
166.893
166.89
166.901
166.914
166.923
166.929
166.934
166.94
166.946
166.953
166.959
166.965
166.971
166.977
166.983
166.989
166.995
167.001
167.007
167.012
167.018
167.024
167.029
167.035
167.04
167.046
167.051
167.057
167.062
167.068
167.073
167.078
167.084
167.089
167.094
167.1
167.105
167.11
167.115
167.121
167.126
167.131
167.137
167.142
167.147
167.152
167.157
167.163
167.168
167.173
167.178
167.183
167.188
167.193
167.198
167.203
167.208
167.213
167.217
167.222
167.227
167.232
167.236
167.241
167.246
167.25
167.255
167.26
167.264
167.269
167.273
167.278
167.282
167.287
167.292
167.296
167.302
167.31
166.693
166.695
166.698
166.705
166.711
166.711
166.726
166.782
166.864
166.925
166.936
166.914
166.893
166.89
166.901
166.913
166.922
166.928
166.933
166.939
166.945
166.952
166.958
166.964
166.97
166.976
166.982
166.988
166.994
166.999
167.005
167.011
167.016
167.022
167.027
167.033
167.038
167.044
167.049
167.054
167.059
167.065
167.07
167.075
167.081
167.086
167.091
167.096
167.101
167.107
167.112
167.117
167.122
167.127
167.132
167.137
167.142
167.147
167.152
167.157
167.162
167.167
167.171
167.176
167.181
167.186
167.19
167.195
167.2
167.204
167.209
167.213
167.218
167.222
167.226
167.231
167.235
167.239
167.244
167.248
167.252
167.256
167.26
167.264
167.268
167.273
167.277
167.281
167.286
167.293
166.693
166.695
166.698
166.705
166.711
166.711
166.726
166.781
166.863
166.924
166.936
166.914
166.892
166.889
166.9
166.912
166.921
166.927
166.933
166.938
166.944
166.951
166.957
166.963
166.969
166.975
166.981
166.986
166.992
166.998
167.004
167.009
167.015
167.021
167.026
167.032
167.037
167.042
167.048
167.053
167.058
167.063
167.068
167.073
167.079
167.084
167.089
167.094
167.099
167.104
167.109
167.114
167.119
167.124
167.129
167.134
167.139
167.144
167.148
167.153
167.158
167.162
167.167
167.172
167.176
167.181
167.185
167.189
167.194
167.198
167.202
167.206
167.211
167.215
167.219
167.223
167.227
167.231
167.235
167.239
167.243
167.247
167.251
167.255
167.259
167.263
167.267
167.271
167.277
167.285
166.693
166.695
166.698
166.705
166.71
166.71
166.726
166.781
166.863
166.924
166.935
166.913
166.892
166.889
166.9
166.912
166.921
166.927
166.933
166.939
166.945
166.951
166.957
166.963
166.97
166.976
166.982
166.988
166.994
167
167.006
167.011
167.017
167.023
167.029
167.034
167.04
167.046
167.051
167.057
167.062
167.068
167.073
167.078
167.084
167.089
167.094
167.1
167.105
167.11
167.115
167.121
167.126
167.131
167.136
167.141
167.146
167.151
167.156
167.161
167.166
167.17
167.175
167.18
167.185
167.189
167.194
167.199
167.203
167.208
167.212
167.216
167.221
167.225
167.229
167.234
167.238
167.242
167.246
167.251
167.255
167.259
167.263
167.268
167.272
167.277
167.281
167.286
167.292
167.302
166.693
166.695
166.698
166.705
166.71
166.71
166.725
166.781
166.863
166.924
166.936
166.914
166.893
166.891
166.902
166.915
166.924
166.931
166.937
166.943
166.95
166.957
166.964
166.97
166.977
166.984
166.99
166.997
167.003
167.01
167.016
167.022
167.029
167.035
167.041
167.048
167.054
167.06
167.067
167.074
167.082
167.088
167.094
167.099
167.104
167.11
167.116
167.122
167.128
167.134
167.14
167.146
167.152
167.158
167.164
167.17
167.175
167.181
167.187
167.192
167.198
167.203
167.209
167.214
167.22
167.225
167.23
167.235
167.241
167.246
167.251
167.256
167.26
167.265
167.27
167.275
167.279
167.284
167.288
167.293
167.297
167.301
167.305
167.309
167.313
167.318
167.323
167.328
167.335
167.346
166.693
166.695
166.698
166.705
166.71
166.71
166.725
166.78
166.862
166.924
166.936
166.916
166.896
166.895
166.908
166.922
166.932
166.94
166.947
166.955
166.962
166.97
166.977
166.985
166.992
166.999
167.006
167.013
167.02
167.027
167.033
167.04
167.047
167.053
167.06
167.067
167.073
167.08
167.087
167.096
167.104
167.112
167.119
167.123
167.128
167.133
167.14
167.147
167.153
167.16
167.167
167.174
167.18
167.187
167.194
167.201
167.207
167.214
167.221
167.228
167.234
167.241
167.247
167.254
167.26
167.267
167.273
167.28
167.286
167.292
167.298
167.304
167.31
167.316
167.322
167.328
167.333
167.339
167.344
167.348
167.352
167.355
167.359
167.362
167.366
167.371
167.375
167.38
167.388
167.399
166.693
166.695
166.697
166.704
166.71
166.71
166.725
166.78
166.862
166.923
166.936
166.915
166.895
166.894
166.907
166.921
166.931
166.939
166.946
166.953
166.961
166.968
166.976
166.983
166.99
166.997
167.004
167.011
167.018
167.024
167.031
167.037
167.044
167.05
167.057
167.063
167.07
167.076
167.083
167.09
167.098
167.105
167.112
167.118
167.123
167.129
167.135
167.141
167.148
167.155
167.162
167.168
167.175
167.182
167.189
167.196
167.204
167.211
167.218
167.225
167.233
167.24
167.247
167.255
167.262
167.27
167.277
167.285
167.292
167.3
167.307
167.315
167.322
167.329
167.337
167.344
167.351
167.358
167.365
167.371
167.377
167.382
167.387
167.392
167.396
167.402
167.407
167.412
167.42
167.431
166.693
166.695
166.697
166.704
166.71
166.709
166.724
166.78
166.862
166.923
166.935
166.915
166.895
166.894
166.906
166.92
166.931
166.938
166.945
166.952
166.96
166.967
166.975
166.982
166.989
166.996
167.002
167.009
167.016
167.022
167.028
167.035
167.041
167.047
167.054
167.06
167.066
167.073
167.078
167.08
167.083
167.087
167.095
167.106
167.116
167.123
167.128
167.133
167.139
167.146
167.152
167.158
167.164
167.17
167.176
167.182
167.189
167.195
167.201
167.207
167.213
167.22
167.226
167.232
167.239
167.245
167.252
167.258
167.265
167.272
167.279
167.286
167.293
167.3
167.307
167.315
167.322
167.33
167.337
167.345
167.351
167.358
167.364
167.37
167.376
167.383
167.389
167.395
167.404
167.415
166.693
166.695
166.697
166.704
166.709
166.709
166.724
166.779
166.861
166.922
166.935
166.914
166.894
166.893
166.905
166.919
166.93
166.937
166.944
166.951
166.959
166.966
166.974
166.981
166.988
166.994
167.001
167.008
167.014
167.021
167.027
167.033
167.039
167.046
167.052
167.058
167.064
167.072
167.075
167.071
167.068
167.069
167.078
167.095
167.111
167.121
167.126
167.131
167.137
167.143
167.149
167.155
167.161
167.167
167.173
167.179
167.185
167.191
167.197
167.202
167.208
167.214
167.22
167.225
167.231
167.237
167.242
167.248
167.253
167.259
167.264
167.27
167.275
167.28
167.285
167.291
167.296
167.301
167.306
167.311
167.315
167.319
167.323
167.328
167.332
167.337
167.343
167.348
167.356
167.367
166.693
166.695
166.697
166.704
166.709
166.709
166.724
166.779
166.861
166.922
166.935
166.914
166.894
166.893
166.905
166.919
166.929
166.937
166.943
166.95
166.958
166.965
166.972
166.979
166.986
166.993
167
167.006
167.013
167.019
167.026
167.032
167.038
167.044
167.05
167.056
167.062
167.07
167.073
167.07
167.067
167.068
167.075
167.089
167.106
167.117
167.124
167.13
167.135
167.141
167.148
167.154
167.16
167.166
167.172
167.178
167.184
167.19
167.196
167.202
167.209
167.215
167.221
167.227
167.233
167.239
167.245
167.251
167.256
167.262
167.268
167.274
167.28
167.285
167.291
167.296
167.302
167.307
167.313
167.317
167.321
167.325
167.329
167.333
167.337
167.342
167.346
167.351
167.358
167.369
166.693
166.695
166.697
166.704
166.709
166.709
166.724
166.779
166.861
166.922
166.934
166.913
166.893
166.892
166.904
166.918
166.928
166.936
166.942
166.95
166.957
166.964
166.971
166.978
166.985
166.992
166.998
167.005
167.011
167.018
167.024
167.03
167.037
167.043
167.049
167.055
167.061
167.066
167.073
167.085
167.093
167.099
167.101
167.098
167.102
167.112
167.121
167.128
167.134
167.14
167.146
167.152
167.158
167.164
167.171
167.177
167.183
167.189
167.195
167.202
167.208
167.214
167.221
167.227
167.233
167.24
167.246
167.253
167.259
167.266
167.272
167.279
167.285
167.292
167.299
167.305
167.312
167.319
167.325
167.331
167.337
167.342
167.348
167.353
167.359
167.366
167.372
167.379
167.388
167.401
166.693
166.695
166.697
166.704
166.709
166.709
166.723
166.779
166.86
166.921
166.934
166.913
166.893
166.891
166.903
166.917
166.928
166.935
166.942
166.949
166.956
166.963
166.97
166.977
166.984
166.991
166.997
167.003
167.01
167.016
167.022
167.028
167.035
167.041
167.047
167.052
167.06
167.06
167.074
167.11
167.136
167.152
167.145
167.12
167.103
167.105
167.115
167.124
167.13
167.135
167.141
167.148
167.154
167.16
167.166
167.172
167.178
167.185
167.191
167.197
167.203
167.21
167.216
167.223
167.229
167.236
167.242
167.249
167.255
167.262
167.269
167.276
167.283
167.289
167.296
167.304
167.311
167.318
167.325
167.332
167.338
167.344
167.35
167.357
167.363
167.37
167.377
167.384
167.393
167.405
166.693
166.694
166.697
166.704
166.709
166.708
166.723
166.778
166.86
166.921
166.933
166.912
166.892
166.891
166.903
166.917
166.927
166.934
166.941
166.948
166.955
166.962
166.969
166.976
166.982
166.989
166.995
167.001
167.007
167.013
167.019
167.025
167.031
167.037
167.043
167.048
167.056
167.053
167.071
167.118
167.155
167.176
167.169
167.134
167.104
167.098
167.106
167.115
167.121
167.127
167.133
167.139
167.144
167.15
167.156
167.162
167.168
167.174
167.18
167.185
167.191
167.197
167.203
167.209
167.215
167.221
167.227
167.233
167.239
167.245
167.251
167.257
167.263
167.269
167.275
167.281
167.287
167.293
167.299
167.304
167.309
167.314
167.318
167.322
167.327
167.331
167.336
167.34
167.346
167.355
166.693
166.694
166.697
166.703
166.709
166.708
166.723
166.778
166.86
166.921
166.933
166.912
166.892
166.89
166.902
166.916
166.926
166.933
166.939
166.946
166.953
166.96
166.966
166.973
166.979
166.985
166.991
166.997
167.003
167.009
167.014
167.019
167.025
167.03
167.035
167.041
167.046
167.044
167.058
167.087
167.113
167.129
167.131
167.117
167.098
167.092
167.096
167.103
167.109
167.115
167.12
167.125
167.131
167.136
167.142
167.147
167.152
167.158
167.163
167.168
167.174
167.179
167.184
167.189
167.194
167.199
167.204
167.209
167.214
167.219
167.223
167.228
167.233
167.237
167.242
167.246
167.25
167.254
167.258
167.262
167.265
167.267
167.27
167.272
167.274
167.277
167.28
167.282
167.286
167.291
166.693
166.694
166.697
166.703
166.708
166.708
166.723
166.778
166.859
166.92
166.932
166.911
166.89
166.888
166.899
166.913
166.922
166.929
166.935
166.941
166.947
166.953
166.959
166.965
166.971
166.976
166.982
166.989
166.995
167.001
167.006
167.01
167.013
167.018
167.023
167.03
167.03
167.034
167.037
167.025
167.024
167.028
167.046
167.072
167.084
167.084
167.085
167.089
167.095
167.1
167.105
167.111
167.116
167.121
167.126
167.131
167.136
167.14
167.145
167.15
167.154
167.159
167.163
167.168
167.172
167.176
167.18
167.184
167.189
167.192
167.196
167.2
167.204
167.208
167.211
167.215
167.218
167.222
167.225
167.228
167.23
167.232
167.235
167.237
167.239
167.242
167.245
167.247
167.251
167.256
166.693
166.694
166.696
166.703
166.708
166.708
166.722
166.777
166.859
166.92
166.931
166.908
166.886
166.883
166.893
166.905
166.914
166.919
166.924
166.93
166.935
166.941
166.947
166.953
166.958
166.963
166.969
166.977
166.985
166.991
166.996
166.999
167.002
167.006
167.011
167.017
167.019
167.04
167.03
166.977
166.95
166.945
166.978
167.044
167.083
167.082
167.075
167.076
167.081
167.086
167.091
167.096
167.101
167.105
167.11
167.115
167.12
167.124
167.129
167.133
167.138
167.142
167.147
167.151
167.155
167.159
167.164
167.168
167.172
167.176
167.18
167.183
167.187
167.191
167.195
167.198
167.202
167.205
167.209
167.212
167.215
167.219
167.222
167.225
167.228
167.231
167.234
167.237
167.241
167.246
166.693
166.694
166.696
166.703
166.708
166.707
166.722
166.777
166.859
166.92
166.931
166.908
166.886
166.883
166.893
166.905
166.914
166.919
166.924
166.929
166.935
166.941
166.947
166.952
166.958
166.963
166.969
166.975
166.982
166.988
166.994
166.999
167.003
167.007
167.012
167.012
167.027
167.089
167.063
166.984
166.945
166.935
166.99
167.088
167.128
167.101
167.074
167.074
167.081
167.088
167.092
167.097
167.102
167.107
167.112
167.117
167.122
167.127
167.132
167.137
167.142
167.147
167.151
167.156
167.16
167.165
167.169
167.174
167.178
167.182
167.186
167.19
167.194
167.198
167.202
167.206
167.209
167.213
167.217
167.22
167.224
167.227
167.23
167.234
167.237
167.24
167.244
167.246
167.251
167.256
166.693
166.694
166.696
166.703
166.708
166.707
166.722
166.777
166.859
166.92
166.931
166.908
166.886
166.883
166.893
166.905
166.913
166.919
166.924
166.929
166.935
166.941
166.946
166.952
166.957
166.964
166.969
166.97
166.972
166.976
166.983
166.993
167.002
167.008
167.014
167.006
167.041
167.138
167.095
167.013
166.975
166.966
167.034
167.143
167.163
167.107
167.07
167.071
167.082
167.09
167.095
167.1
167.106
167.111
167.117
167.122
167.127
167.133
167.138
167.143
167.148
167.154
167.159
167.164
167.169
167.173
167.178
167.183
167.188
167.192
167.197
167.201
167.206
167.21
167.214
167.218
167.222
167.226
167.23
167.234
167.238
167.242
167.245
167.249
167.253
167.257
167.26
167.263
167.268
167.274
166.693
166.694
166.696
166.703
166.708
166.707
166.722
166.777
166.859
166.92
166.931
166.908
166.886
166.883
166.893
166.905
166.914
166.919
166.924
166.929
166.935
166.941
166.946
166.952
166.957
166.965
166.968
166.963
166.959
166.96
166.968
166.985
167
167.008
167.013
167.014
167.033
167.05
167.036
167.019
166.995
166.995
166.979
166.987
167.011
167.037
167.06
167.075
167.084
167.09
167.095
167.101
167.106
167.112
167.118
167.123
167.129
167.134
167.14
167.145
167.15
167.156
167.161
167.166
167.171
167.176
167.181
167.186
167.191
167.195
167.2
167.205
167.209
167.214
167.218
167.222
167.227
167.231
167.235
167.239
167.243
167.247
167.251
167.255
167.259
167.263
167.267
167.271
167.276
167.282
166.693
166.694
166.696
166.703
166.707
166.707
166.722
166.777
166.859
166.92
166.931
166.909
166.887
166.883
166.894
166.906
166.914
166.919
166.924
166.93
166.935
166.941
166.947
166.952
166.958
166.965
166.968
166.964
166.96
166.96
166.967
166.981
166.997
167.008
167.006
167.058
166.955
166.635
166.822
167.006
167.011
167.04
166.68
166.358
166.482
166.84
167.058
167.097
167.087
167.086
167.092
167.098
167.104
167.11
167.115
167.121
167.126
167.131
167.136
167.142
167.147
167.152
167.157
167.162
167.167
167.172
167.177
167.182
167.186
167.191
167.196
167.2
167.205
167.209
167.214
167.218
167.222
167.226
167.23
167.234
167.239
167.243
167.247
167.251
167.254
167.259
167.263
167.266
167.271
167.277
166.693
166.694
166.696
166.702
166.707
166.707
166.722
166.778
166.86
166.921
166.932
166.909
166.887
166.884
166.894
166.906
166.914
166.92
166.925
166.93
166.936
166.941
166.947
166.953
166.959
166.962
166.969
166.981
166.988
166.993
166.994
166.991
166.994
167.006
166.995
167.13
166.784
165.96
166.559
167.017
167.049
167.123
166.173
165.408
165.776
166.631
167.081
167.126
167.086
167.077
167.085
167.092
167.097
167.103
167.108
167.113
167.119
167.124
167.13
167.135
167.14
167.145
167.151
167.156
167.161
167.166
167.171
167.176
167.181
167.185
167.19
167.194
167.199
167.203
167.207
167.211
167.215
167.219
167.223
167.227
167.231
167.234
167.238
167.242
167.245
167.249
167.253
167.256
167.26
167.266
166.693
166.694
166.696
166.702
166.707
166.707
166.723
166.779
166.86
166.921
166.932
166.909
166.887
166.884
166.894
166.906
166.914
166.92
166.925
166.93
166.936
166.941
166.947
166.952
166.96
166.958
166.971
167.006
167.033
167.047
167.041
167.014
166.997
167.002
166.993
167.152
166.631
165.738
166.529
166.997
167.011
167.082
165.95
165.242
165.853
166.781
167.134
167.113
167.069
167.068
167.078
167.085
167.091
167.096
167.102
167.108
167.113
167.119
167.125
167.13
167.136
167.141
167.147
167.152
167.158
167.163
167.168
167.173
167.178
167.182
167.187
167.191
167.195
167.199
167.203
167.207
167.21
167.214
167.217
167.221
167.224
167.228
167.231
167.234
167.237
167.241
167.244
167.246
167.25
167.255
166.693
166.694
166.696
166.702
166.707
166.708
166.723
166.779
166.86
166.92
166.931
166.908
166.886
166.883
166.893
166.905
166.914
166.919
166.924
166.929
166.935
166.94
166.946
166.951
166.959
166.955
166.972
167.018
167.056
167.076
167.07
167.034
167.004
166.997
167.022
166.986
166.811
167.234
167.027
166.825
166.763
166.698
167.113
167.77
168.115
167.722
167.179
166.996
167.027
167.066
167.078
167.083
167.088
167.094
167.1
167.106
167.112
167.118
167.124
167.13
167.136
167.141
167.147
167.153
167.159
167.164
167.169
167.174
167.178
167.183
167.187
167.191
167.195
167.198
167.202
167.205
167.208
167.211
167.214
167.217
167.22
167.223
167.226
167.228
167.231
167.234
167.237
167.239
167.242
167.246
166.693
166.694
166.696
166.702
166.708
166.708
166.723
166.778
166.858
166.918
166.928
166.905
166.883
166.88
166.89
166.902
166.91
166.916
166.921
166.926
166.932
166.937
166.943
166.948
166.955
166.956
166.969
166.996
167.023
167.04
167.046
167.034
167.014
166.994
167.091
166.534
167.726
171.342
168.663
167.234
167.098
166.788
171.04
174.294
173.159
169.448
167.124
166.76
166.972
167.076
167.086
167.085
167.09
167.095
167.101
167.107
167.114
167.12
167.126
167.133
167.139
167.145
167.151
167.156
167.162
167.167
167.172
167.177
167.181
167.185
167.189
167.193
167.196
167.199
167.202
167.205
167.208
167.21
167.213
167.215
167.218
167.22
167.222
167.225
167.227
167.229
167.231
167.233
167.236
167.24
166.693
166.694
166.696
166.702
166.708
166.708
166.723
166.775
166.853
166.912
166.921
166.899
166.877
166.874
166.884
166.896
166.904
166.91
166.915
166.92
166.925
166.931
166.937
166.943
166.946
166.958
166.962
166.948
166.95
166.956
166.979
167.008
167.017
166.991
167.178
165.862
169.576
177.443
173.158
170.981
170.853
170.441
178.286
183.722
179.594
171.219
166.891
166.499
166.939
167.097
167.098
167.091
167.094
167.099
167.105
167.111
167.117
167.123
167.13
167.138
167.145
167.152
167.158
167.162
167.166
167.171
167.176
167.181
167.185
167.189
167.192
167.196
167.199
167.202
167.204
167.207
167.209
167.211
167.213
167.215
167.217
167.219
167.22
167.222
167.224
167.226
167.228
167.229
167.232
167.235
166.693
166.694
166.696
166.703
166.708
166.708
166.72
166.769
166.845
166.902
166.911
166.889
166.867
166.864
166.874
166.886
166.894
166.9
166.905
166.91
166.916
166.921
166.927
166.934
166.934
166.955
166.953
166.91
166.89
166.89
166.919
166.971
167.006
166.984
167.236
165.21
172.163
183.561
181.916
180.437
180.389
180.275
187.089
192.574
184.541
171.961
166.521
166.371
166.965
167.122
167.108
167.098
167.101
167.106
167.111
167.117
167.123
167.129
167.136
167.144
167.152
167.16
167.165
167.169
167.172
167.176
167.181
167.185
167.189
167.193
167.196
167.199
167.202
167.205
167.207
167.209
167.211
167.213
167.214
167.216
167.217
167.218
167.22
167.221
167.222
167.224
167.225
167.226
167.228
167.231
166.693
166.694
166.696
166.703
166.709
166.706
166.715
166.761
166.834
166.89
166.899
166.876
166.854
166.851
166.861
166.873
166.882
166.887
166.892
166.897
166.903
166.909
166.915
166.921
166.922
166.943
166.943
166.903
166.879
166.879
166.896
166.938
166.98
166.974
167.231
164.828
175.106
188.122
191.479
191.104
191.083
191.424
193.332
197.722
185.849
171.154
166.178
166.47
167.047
167.141
167.116
167.108
167.11
167.114
167.119
167.124
167.13
167.136
167.142
167.148
167.155
167.161
167.167
167.172
167.176
167.18
167.184
167.188
167.192
167.196
167.199
167.202
167.205
167.207
167.209
167.211
167.213
167.214
167.216
167.217
167.218
167.219
167.22
167.22
167.221
167.222
167.223
167.223
167.225
167.227
166.693
166.694
166.696
166.704
166.708
166.703
166.708
166.75
166.822
166.878
166.887
166.864
166.842
166.838
166.849
166.861
166.869
166.875
166.88
166.885
166.891
166.896
166.902
166.908
166.911
166.928
166.932
166.911
166.89
166.887
166.884
166.906
166.951
166.963
167.169
164.798
178.327
191.23
194.024
192.714
192.66
192.983
194.188
199.194
183.751
169.302
166.051
166.738
167.142
167.152
167.124
167.12
167.122
167.125
167.128
167.133
167.137
167.144
167.148
167.147
167.148
167.15
167.157
167.168
167.176
167.181
167.184
167.187
167.191
167.194
167.197
167.2
167.203
167.205
167.208
167.21
167.211
167.213
167.214
167.215
167.217
167.218
167.219
167.219
167.22
167.221
167.222
167.222
167.224
167.226
166.692
166.694
166.696
166.704
166.707
166.698
166.7
166.742
166.815
166.872
166.881
166.857
166.835
166.831
166.841
166.853
166.862
166.867
166.872
166.878
166.884
166.889
166.895
166.901
166.905
166.92
166.925
166.908
166.879
166.867
166.84
166.869
166.932
166.959
167.089
165.042
182.309
193.832
188.799
184.855
184.848
184.734
192.367
199.584
180.012
167.447
166.206
167.02
167.207
167.161
167.139
167.138
167.138
167.139
167.141
167.144
167.147
167.153
167.153
167.145
167.139
167.137
167.143
167.158
167.171
167.177
167.179
167.181
167.183
167.185
167.188
167.19
167.191
167.193
167.195
167.197
167.198
167.2
167.202
167.204
167.206
167.208
167.21
167.212
167.213
167.216
167.217
167.218
167.221
167.224
166.692
166.694
166.697
166.704
166.705
166.693
166.695
166.741
166.819
166.88
166.889
166.864
166.841
166.836
166.847
166.859
166.867
166.873
166.878
166.883
166.889
166.895
166.901
166.907
166.911
166.93
166.937
166.911
166.869
166.854
166.77
166.83
166.932
166.968
167.027
165.509
188.035
196.656
182.414
177.298
177.442
177.275
193.448
201.205
175.937
166.338
166.555
167.2
167.232
167.176
167.161
167.16
167.159
167.159
167.159
167.16
167.16
167.163
167.162
167.156
167.15
167.146
167.148
167.155
167.165
167.17
167.172
167.172
167.171
167.172
167.172
167.172
167.173
167.174
167.176
167.178
167.18
167.182
167.185
167.188
167.191
167.194
167.197
167.2
167.203
167.206
167.209
167.212
167.216
167.221
166.692
166.694
166.697
166.703
166.701
166.69
166.697
166.755
166.844
166.909
166.919
166.892
166.867
166.862
166.873
166.885
166.894
166.899
166.904
166.91
166.916
166.922
166.927
166.934
166.936
166.963
166.996
166.974
166.932
166.934
166.724
166.813
166.959
166.996
167.006
166.257
196.957
200.651
173.359
169.67
169.826
170.021
199.604
204.844
171.752
166.173
166.923
167.272
167.245
167.203
167.192
167.19
167.188
167.186
167.184
167.183
167.182
167.178
167.181
167.193
167.199
167.201
167.193
167.176
167.168
167.169
167.171
167.172
167.171
167.171
167.172
167.174
167.175
167.177
167.18
167.182
167.185
167.188
167.191
167.194
167.197
167.201
167.204
167.207
167.211
167.214
167.218
167.221
167.225
167.23
166.692
166.694
166.697
166.701
166.697
166.691
166.713
166.789
166.893
166.964
166.974
166.945
166.918
166.913
166.923
166.936
166.945
166.95
166.955
166.961
166.967
166.973
166.979
166.985
166.986
167.018
167.099
167.093
167.06
167.083
166.726
166.844
167.014
167.044
167.035
167.22
167.799
166.755
167.131
167.284
167.262
167.233
167.226
167.225
167.223
167.221
167.218
167.215
167.215
167.204
167.214
167.253
167.278
167.288
167.27
167.226
167.195
167.19
167.196
167.2
167.202
167.204
167.206
167.208
167.211
167.214
167.217
167.22
167.223
167.226
167.229
167.233
167.236
167.239
167.243
167.246
167.249
167.253
167.256
167.259
167.263
167.268
166.692
166.695
166.697
166.698
166.695
166.699
166.744
166.844
166.964
167.041
167.051
167.02
166.992
166.986
166.996
167.009
167.017
167.023
167.028
167.034
167.04
167.046
167.052
167.058
167.059
167.095
167.173
167.137
167.08
167.078
166.752
166.937
167.094
167.109
167.112
167.115
168.456
166.876
167.144
167.311
167.294
167.269
167.265
167.265
167.264
167.263
167.26
167.256
167.256
167.243
167.258
167.305
167.339
167.356
167.341
167.296
167.258
167.247
167.253
167.259
167.262
167.265
167.268
167.271
167.274
167.278
167.281
167.284
167.288
167.291
167.295
167.298
167.302
167.305
167.308
167.312
167.315
167.319
167.322
167.324
167.329
167.333
166.693
166.695
166.696
166.695
166.696
166.717
166.787
166.91
167.043
167.125
167.134
167.103
167.074
167.068
167.078
167.09
167.099
167.105
167.11
167.115
167.121
167.127
167.133
167.139
167.141
167.177
167.144
167.009
166.882
166.801
166.808
167.076
167.179
167.178
167.185
167.23
168.307
166.983
167.243
167.357
167.334
167.314
167.31
167.31
167.309
167.309
167.309
167.309
167.309
167.309
167.317
167.325
167.338
167.347
167.353
167.353
167.34
167.328
167.326
167.331
167.336
167.34
167.343
167.347
167.351
167.354
167.358
167.362
167.366
167.369
167.373
167.377
167.38
167.384
167.387
167.391
167.394
167.398
167.401
167.403
167.407
167.412
166.693
166.695
166.694
166.692
166.701
166.74
166.831
166.969
167.106
167.188
167.199
167.169
167.142
167.136
167.145
167.157
167.165
167.171
167.177
167.182
167.188
167.194
167.2
167.206
167.21
167.236
167.115
166.932
166.776
166.654
166.96
167.201
167.238
167.234
167.248
167.283
168.409
167.145
167.308
167.385
167.369
167.356
167.354
167.354
167.354
167.355
167.357
167.359
167.356
167.376
167.359
167.294
167.264
167.255
167.293
167.367
167.407
167.402
167.393
167.393
167.399
167.403
167.407
167.411
167.415
167.42
167.424
167.428
167.432
167.436
167.44
167.444
167.448
167.451
167.455
167.459
167.462
167.465
167.469
167.471
167.475
167.48
166.693
166.695
166.692
166.692
166.71
166.762
166.86
166.993
167.122
167.202
167.217
167.192
167.167
167.161
167.169
167.18
167.189
167.195
167.2
167.205
167.211
167.217
167.223
167.229
167.235
167.244
167.196
167.11
167.03
166.967
167.165
167.25
167.251
167.255
167.27
167.299
168.496
167.223
167.32
167.378
167.371
167.364
167.363
167.364
167.365
167.367
167.369
167.373
167.368
167.406
167.357
167.231
167.167
167.146
167.208
167.337
167.422
167.433
167.42
167.417
167.421
167.427
167.431
167.436
167.44
167.444
167.449
167.453
167.457
167.462
167.466
167.47
167.474
167.478
167.482
167.485
167.489
167.493
167.496
167.499
167.503
167.507
166.693
166.694
166.691
166.694
166.721
166.774
166.854
166.957
167.065
167.141
167.164
167.148
167.126
167.119
167.126
167.137
167.145
167.151
167.157
167.162
167.168
167.174
167.18
167.186
167.192
167.193
167.216
167.223
167.223
167.226
167.222
167.208
167.208
167.217
167.229
167.248
168.515
167.186