/*--------------------------------*- C++ -*----------------------------------*\
| =========                 |                                                 |
| \\      /  F ield         | OpenFOAM: The Open Source CFD Toolbox           |
|  \\    /   O peration     | Version:  v2012                                 |
|   \\  /    A nd           | Website:  www.openfoam.com                      |
|    \\/     M anipulation  |                                                 |
\*---------------------------------------------------------------------------*/
FoamFile
{
    version     2.0;
    format      ascii;
    class       volScalarField;
    location    "350/air";
    object      k;
}
// * * * * * * * * * * * * * * * * * * * * * * * * * * * * * * * * * * * * * //

dimensions      [0 2 -2 0 0 0 0];


internalField   nonuniform List<scalar> 
287104
(
0.0834012
0.0717039
0.0633093
0.0569917
0.0520813
0.0481703
0.0449933
0.0423703
0.0401743
0.0383138
0.0367213
0.0353457
0.034148
0.0330977
0.0321706
0.0313477
0.0306132
0.0299544
0.029361
0.0288242
0.0283367
0.0278924
0.027486
0.0271133
0.0267703
0.0264538
0.026161
0.0258893
0.0256366
0.0254011
0.0251809
0.0249747
0.0247809
0.0245986
0.0244264
0.0242635
0.024109
0.023962
0.0238218
0.0236876
0.023559
0.0234352
0.0233159
0.0232005
0.0230886
0.0229799
0.0228739
0.0227705
0.0226694
0.0225704
0.0224732
0.0223777
0.0222839
0.0221916
0.0221006
0.022011
0.0219227
0.0218357
0.0217499
0.0216653
0.0215818
0.0214995
0.0214183
0.0213381
0.0212591
0.0211811
0.021104
0.0210279
0.0209526
0.0208781
0.0208043
0.0207312
0.0206585
0.0205862
0.0205141
0.020442
0.0203698
0.0202972
0.0202239
0.0201497
0.020074
0.0199964
0.0199162
0.0198323
0.0197431
0.0196461
0.019538
0.0194068
0.0192566
0.0189324
0.0833979
0.0716975
0.0633003
0.0569809
0.052069
0.0481568
0.044979
0.0423552
0.0401586
0.0382977
0.0367048
0.0353291
0.0341313
0.0330811
0.0321542
0.0313314
0.0305972
0.0299389
0.0293458
0.0288093
0.0283222
0.0278783
0.0274724
0.0271001
0.0267576
0.0264417
0.0261494
0.0258783
0.0256264
0.0253916
0.0251722
0.0249669
0.0247742
0.0245929
0.024422
0.0242604
0.0241072
0.0239616
0.0238229
0.0236904
0.0235633
0.0234412
0.0233235
0.0232097
0.0230995
0.0229923
0.0228879
0.0227859
0.0226862
0.0225884
0.0224924
0.022398
0.0223051
0.0222136
0.0221234
0.0220344
0.0219467
0.02186
0.0217745
0.0216901
0.0216067
0.0215244
0.0214432
0.0213629
0.0212836
0.0212053
0.0211279
0.0210513
0.0209755
0.0209005
0.0208261
0.0207522
0.0206787
0.0206055
0.0205325
0.0204594
0.020386
0.0203122
0.0202376
0.0201618
0.0200846
0.0200053
0.0199233
0.0198374
0.0197463
0.0196473
0.0195374
0.0194045
0.0192529
0.0189301
0.0833965
0.0716947
0.0632965
0.0569761
0.0520634
0.0481505
0.044972
0.0423476
0.0401505
0.0382892
0.0366961
0.0353202
0.0341224
0.0330721
0.0321454
0.0313228
0.0305888
0.0299306
0.0293378
0.0288016
0.0283148
0.0278712
0.0274656
0.0270936
0.0267515
0.026436
0.0261442
0.0258736
0.0256223
0.0253881
0.0251695
0.024965
0.0247732
0.024593
0.0244231
0.0242627
0.0241108
0.0239665
0.0238292
0.0236982
0.0235726
0.0234521
0.023336
0.0232238
0.0231152
0.0230097
0.0229069
0.0228066
0.0227085
0.0226123
0.0225179
0.0224251
0.0223338
0.0222439
0.0221552
0.0220679
0.0219817
0.0218967
0.0218128
0.0217301
0.0216484
0.0215679
0.0214884
0.0214099
0.0213325
0.0212561
0.0211806
0.0211061
0.0210324
0.0209594
0.0208872
0.0208155
0.0207443
0.0206735
0.0206029
0.0205322
0.0204614
0.0203901
0.0203181
0.0202449
0.0201703
0.0200937
0.0200144
0.0199314
0.0198433
0.0197476
0.0196413
0.019513
0.0193666
0.0190554
0.0833951
0.0716917
0.063292
0.0569702
0.0520563
0.0481421
0.0449624
0.042337
0.040139
0.0382769
0.0366832
0.0353069
0.0341089
0.0330586
0.0321319
0.0313095
0.0305756
0.0299176
0.0293249
0.0287888
0.028302
0.0278585
0.0274531
0.0270812
0.0267392
0.0264239
0.0261323
0.0258622
0.0256112
0.0253776
0.0251596
0.0249558
0.0247649
0.0245855
0.0244168
0.0242575
0.0241069
0.023964
0.0238282
0.0236986
0.0235747
0.0234557
0.0233412
0.0232307
0.0231236
0.0230196
0.0229183
0.0228194
0.0227226
0.0226276
0.0225344
0.0224426
0.0223523
0.0222632
0.0221754
0.0220887
0.0220032
0.0219187
0.0218353
0.021753
0.0216717
0.0215915
0.0215122
0.021434
0.0213568
0.0212804
0.021205
0.0211305
0.0210567
0.0209836
0.0209112
0.0208392
0.0207677
0.0206964
0.0206252
0.0205538
0.0204821
0.0204098
0.0203365
0.0202619
0.0201855
0.0201069
0.0200253
0.0199399
0.0198492
0.0197509
0.0196421
0.0195115
0.0193631
0.0190517
0.0833939
0.0716891
0.0632882
0.0569652
0.0520502
0.0481349
0.0449542
0.0423276
0.0401286
0.0382657
0.0366713
0.0352946
0.0340965
0.0330462
0.0321196
0.0312973
0.0305637
0.0299058
0.0293134
0.0287775
0.0282909
0.0278475
0.0274422
0.0270706
0.0267288
0.0264137
0.0261225
0.0258527
0.0256023
0.0253693
0.025152
0.0249491
0.0247591
0.024581
0.0244134
0.0242556
0.0241065
0.0239653
0.0238312
0.0237034
0.0235813
0.0234643
0.0233517
0.023243
0.0231379
0.0230357
0.0229362
0.022839
0.0227439
0.0226505
0.0225588
0.0224685
0.0223795
0.0222918
0.0222052
0.0221197
0.0220353
0.0219519
0.0218695
0.0217882
0.0217078
0.0216285
0.0215501
0.0214727
0.0213962
0.0213205
0.0212457
0.0211717
0.0210983
0.0210256
0.0209533
0.0208814
0.0208097
0.0207381
0.0206663
0.0205942
0.0205214
0.0204477
0.0203727
0.0202959
0.0202169
0.0201351
0.0200499
0.0199604
0.0198654
0.0197626
0.0196492
0.0195144
0.0193622
0.0190485
0.0833927
0.0716864
0.063284
0.0569597
0.0520433
0.0481266
0.0449444
0.0423165
0.0401162
0.0382523
0.0366573
0.0352804
0.0340824
0.0330325
0.0321063
0.0312843
0.030551
0.0298933
0.0293009
0.0287651
0.0282785
0.0278351
0.0274298
0.0270582
0.0267165
0.0264015
0.0261106
0.0258412
0.0255913
0.0253591
0.0251428
0.024941
0.0247524
0.0245757
0.02441
0.0242541
0.0241072
0.0239684
0.0238368
0.0237117
0.0235925
0.0234783
0.0233688
0.0232631
0.023161
0.0230619
0.0229654
0.0228712
0.022779
0.0226886
0.0225997
0.0225123
0.0224261
0.022341
0.0222571
0.0221743
0.0220926
0.0220118
0.0219321
0.0218535
0.0217758
0.0216992
0.0216235
0.0215488
0.0214751
0.0214022
0.0213302
0.021259
0.0211884
0.0211184
0.0210489
0.0209797
0.0209106
0.0208416
0.0207724
0.0207028
0.0206325
0.0205612
0.0204884
0.0204138
0.0203367
0.0202568
0.0201735
0.0200863
0.0199941
0.0198951
0.0197868
0.0196593
0.0195163
0.0192203
0.0833914
0.0716837
0.06328
0.0569543
0.0520363
0.048118
0.044934
0.0423041
0.0401017
0.0382357
0.0366392
0.0352616
0.0340633
0.0330136
0.0320878
0.0312663
0.0305334
0.0298761
0.029284
0.0287484
0.028262
0.0278188
0.0274136
0.0270422
0.0267008
0.0263863
0.026096
0.0258274
0.0255786
0.0253477
0.025133
0.0249332
0.024747
0.024573
0.0244103
0.0242578
0.0241146
0.0239798
0.0238525
0.023732
0.0236174
0.0235082
0.0234037
0.0233031
0.0232057
0.0231112
0.0230193
0.0229297
0.0228421
0.0227564
0.0226721
0.0225893
0.0225078
0.0224275
0.0223484
0.0222703
0.0221934
0.0221176
0.0220428
0.0219692
0.0218967
0.0218253
0.0217551
0.0216859
0.0216179
0.0215509
0.021485
0.0214201
0.0213562
0.0212932
0.0212312
0.0211699
0.0211094
0.0210495
0.02099
0.0209308
0.0208717
0.0208122
0.0207521
0.0206907
0.0206274
0.0205619
0.0204939
0.0204233
0.0203494
0.0202711
0.020186
0.0200852
0.0199727
0.0197315
0.0833902
0.0716811
0.0632759
0.0569486
0.052029
0.0481088
0.0449227
0.0422906
0.0400858
0.0382178
0.0366206
0.0352436
0.0340466
0.032998
0.0320731
0.0312521
0.0305192
0.0298616
0.0292688
0.0287321
0.0282445
0.0277999
0.0273934
0.0270208
0.0266784
0.0263633
0.0260727
0.0258044
0.0255564
0.0253268
0.0251141
0.0249168
0.0247334
0.0245625
0.0244031
0.0242544
0.0241152
0.0239847
0.0238618
0.0237458
0.0236358
0.0235309
0.0234305
0.023334
0.0232407
0.0231502
0.0230621
0.022976
0.0228917
0.0228089
0.0227275
0.0226474
0.0225686
0.0224911
0.0224147
0.0223396
0.0222657
0.0221931
0.0221217
0.0220516
0.0219828
0.0219153
0.021849
0.021784
0.0217203
0.0216577
0.0215964
0.0215361
0.0214768
0.0214185
0.021361
0.0213042
0.0212481
0.0211923
0.0211368
0.0210814
0.0210257
0.0209693
0.0209119
0.0208526
0.0207905
0.0207255
0.0206578
0.0205872
0.0205135
0.020436
0.0203549
0.0202674
0.0201902
0.0200467
0.0833891
0.0716784
0.0632717
0.0569427
0.0520209
0.0480981
0.0449087
0.042272
0.0400609
0.0381853
0.0365922
0.0352318
0.0340564
0.033028
0.0321176
0.031304
0.0305712
0.0299073
0.0293031
0.0287517
0.0282474
0.0277854
0.0273618
0.0269732
0.0266167
0.0262894
0.0259889
0.0257128
0.0254591
0.0252257
0.0250108
0.0248128
0.0246302
0.0244616
0.0243057
0.0241611
0.0240265
0.0239009
0.0237827
0.0236707
0.023564
0.0234617
0.023363
0.0232674
0.0231744
0.0230835
0.0229946
0.0229077
0.0228226
0.0227392
0.0226573
0.0225769
0.0224979
0.0224202
0.0223439
0.0222689
0.0221953
0.0221231
0.0220523
0.0219828
0.0219148
0.0218482
0.0217829
0.0217189
0.0216563
0.021595
0.0215348
0.0214759
0.021418
0.0213612
0.0213052
0.0212501
0.0211956
0.0211417
0.0210883
0.021035
0.0209818
0.0209282
0.0208737
0.0208166
0.0207554
0.0206908
0.0206241
0.0205554
0.0204845
0.0204106
0.0203339
0.0202527
0.0201817
0.0200733
0.0833879
0.0716758
0.0632675
0.0569367
0.0520129
0.0480876
0.0448949
0.0422541
0.0400372
0.0381578
0.0376015
0.0373287
0.0369126
0.036279
0.0354693
0.0345518
0.0335879
0.0326233
0.0316894
0.0308057
0.0299833
0.0292277
0.0285401
0.0279192
0.0273618
0.0268638
0.0264198
0.0260236
0.0256685
0.0253477
0.0250541
0.0247795
0.0245492
0.024356
0.0241911
0.0240476
0.0239199
0.0238038
0.0236964
0.0235954
0.0234989
0.0234055
0.0233142
0.023225
0.0231402
0.0230607
0.0229862
0.0229161
0.0228498
0.0227866
0.022726
0.0226674
0.0226106
0.0225554
0.0225016
0.0224491
0.0223979
0.022348
0.0222992
0.0222515
0.0222049
0.0221594
0.0221148
0.0220711
0.0220283
0.0219864
0.0219452
0.0219048
0.0218653
0.0218264
0.0217882
0.0217507
0.0217136
0.021677
0.0216406
0.0216045
0.0215681
0.0215314
0.021494
0.0214539
0.0213213
0.0211684
0.0210191
0.0208798
0.020751
0.0206308
0.0205171
0.0204054
0.0203067
0.0201741
0.0833867
0.0716731
0.0632631
0.0569303
0.0520039
0.0480747
0.0448754
0.0422229
0.0399743
0.0382101
0.118855
0.142449
0.142271
0.133903
0.123668
0.113868
0.10522
0.0978507
0.0916831
0.0865837
0.0824141
0.0790474
0.0763707
0.0742834
0.0726944
0.0715203
0.0706841
0.0701147
0.0697478
0.0695261
0.0694018
0.0693341
0.0693095
0.0693271
0.069375
0.0694388
0.0695065
0.0695701
0.069626
0.0696734
0.0697143
0.0697518
0.069782
0.0698063
0.0698244
0.0698412
0.0698647
0.0699024
0.069962
0.0700486
0.0701655
0.0703155
0.0705003
0.0707205
0.0709757
0.0712663
0.0715936
0.0719581
0.0723599
0.0727987
0.0732737
0.0737841
0.0743285
0.0749053
0.0755128
0.0761491
0.0768115
0.077497
0.0782031
0.0789275
0.0796675
0.0804203
0.0811836
0.0819555
0.0827361
0.0835273
0.0843411
0.0852051
0.0862562
0.0873524
0.0559159
0.0406484
0.0324236
0.0276624
0.0247672
0.0229436
0.0217638
0.0209765
0.0204471
0.0200157
0.0833856
0.0716705
0.0632591
0.0569246
0.0519961
0.0480644
0.044862
0.0422056
0.0399516
0.0381821
0.118848
0.142495
0.142255
0.133745
0.123335
0.113348
0.104514
0.0969685
0.0906381
0.0853916
0.0810927
0.0776161
0.0748505
0.0726966
0.0710642
0.0698702
0.0690364
0.0684902
0.0681638
0.0679963
0.0679338
0.0679303
0.0679485
0.0679598
0.0679433
0.0678842
0.0677722
0.0676009
0.0673669
0.0670693
0.0667092
0.0662901
0.0658247
0.065317
0.0647727
0.0641988
0.0636029
0.0629917
0.0623698
0.0617421
0.0611135
0.060489
0.0598729
0.0592704
0.0586877
0.0581281
0.0575951
0.0570936
0.0566287
0.0562053
0.0558285
0.0555035
0.0552358
0.0550305
0.0548927
0.0548273
0.0548384
0.0549299
0.0551045
0.0553638
0.0557085
0.0561386
0.0566535
0.0572522
0.057934
0.0586994
0.0595558
0.0605107
0.0616808
0.0628475
0.043667
0.0336191
0.0278668
0.0243659
0.0221481
0.0207065
0.0197522
0.0190962
0.0186284
0.0181437
0.0833845
0.071668
0.0632551
0.0569189
0.0519884
0.0480542
0.0448484
0.0421876
0.0399272
0.0381496
0.11862
0.142259
0.142073
0.133619
0.123249
0.113284
0.104456
0.0969077
0.0905696
0.0853156
0.0810132
0.077541
0.0747909
0.0726661
0.0710784
0.0699453
0.069189
0.0687355
0.0685155
0.0684656
0.0685297
0.0686597
0.0688162
0.0689683
0.0690934
0.0691761
0.0692061
0.069177
0.0690859
0.0689322
0.0687171
0.0684433
0.0681145
0.0677354
0.0673113
0.0668485
0.0663534
0.0658323
0.0652911
0.0647355
0.0641702
0.0635991
0.0630248
0.0624483
0.0618679
0.0612845
0.0606978
0.060106
0.0595073
0.0588997
0.0582816
0.0576513
0.0570072
0.0563482
0.0556736
0.0549833
0.0542777
0.0535579
0.052826
0.0520849
0.051339
0.0505938
0.0498564
0.0491357
0.0484429
0.0477918
0.0472026
0.0466921
0.0463472
0.0459608
0.032388
0.0254207
0.0214911
0.0191103
0.0175923
0.0165879
0.0159046
0.0154084
0.0150405
0.01458
0.0833834
0.0716656
0.0632513
0.0569138
0.0519818
0.0480459
0.0448382
0.0421753
0.0399127
0.038133
0.118541
0.142178
0.142003
0.133555
0.123186
0.113216
0.104381
0.0968235
0.0904771
0.0852162
0.0809093
0.0774353
0.0746869
0.0725677
0.0709899
0.0698715
0.0691346
0.0687053
0.068514
0.068497
0.0685976
0.0687675
0.0689669
0.0691649
0.0693386
0.0694719
0.069554
0.0695773
0.0695377
0.0694338
0.0692659
0.0690358
0.0687473
0.0684051
0.0680162
0.0675893
0.0671334
0.0666576
0.0661706
0.0656802
0.0651931
0.0647151
0.0642587
0.0638344
0.0634404
0.0630722
0.0627255
0.0623971
0.0620847
0.0617862
0.0615013
0.0612302
0.0609723
0.0607256
0.0604872
0.0602537
0.0600222
0.0597895
0.059552
0.059306
0.0590474
0.0587722
0.0584764
0.0581568
0.0578116
0.0574415
0.0570554
0.0566699
0.0563885
0.0562712
0.0401977
0.0321979
0.0276923
0.0248814
0.0230798
0.0218153
0.0208344
0.019979
0.0191726
0.0181315
0.0833823
0.0716633
0.0632478
0.0569091
0.0519758
0.0480385
0.0448292
0.0421644
0.0398999
0.038118
0.118444
0.142055
0.141879
0.133439
0.123076
0.113112
0.10428
0.0967226
0.0903751
0.0851124
0.0808039
0.0773294
0.0745819
0.0724658
0.0708935
0.0697832
0.0690569
0.0686408
0.068465
0.0684656
0.0685858
0.0687771
0.0689998
0.0692227
0.0694229
0.0695837
0.0696933
0.069743
0.0697271
0.0696423
0.0694867
0.0692608
0.0689675
0.0686113
0.0682001
0.067744
0.0672534
0.0667392
0.0662113
0.0656787
0.0651492
0.0646287
0.0641221
0.0636324
0.0631618
0.0627119
0.0622837
0.0618773
0.0615003
0.061156
0.0608406
0.0605495
0.0602793
0.0600278
0.0597934
0.0595765
0.0593784
0.0592005
0.0590435
0.0589082
0.058796
0.0587089
0.0586489
0.0586183
0.058621
0.0586629
0.0587566
0.0589208
0.0592587
0.0598102
0.0427011
0.0344092
0.0299326
0.0272939
0.0256076
0.024438
0.0235516
0.0227984
0.0220652
0.0210918
0.0833813
0.0716611
0.0632445
0.0569048
0.0519705
0.0480323
0.044822
0.0421562
0.0398907
0.0381076
0.118376
0.14196
0.141771
0.133322
0.122955
0.112987
0.104152
0.0965933
0.0902447
0.0849819
0.0806743
0.0772018
0.0744576
0.0723461
0.0707797
0.0696764
0.0689583
0.0685509
0.0683846
0.0683951
0.0685256
0.0687278
0.0689623
0.0691983
0.069413
0.0695897
0.0697161
0.0697819
0.0697792
0.069702
0.0695453
0.0693071
0.0689889
0.0685951
0.0681347
0.06762
0.0670642
0.0664803
0.0658807
0.0652759
0.0646744
0.064083
0.0635066
0.0629486
0.0624113
0.0618951
0.0613993
0.0609234
0.0604665
0.0600274
0.0596049
0.0591977
0.0588045
0.0584239
0.0580546
0.0576956
0.0573462
0.0570059
0.0566747
0.0563527
0.0560403
0.0557385
0.0554486
0.0551727
0.054914
0.0546771
0.0544727
0.0543143
0.0543406
0.0546506
0.0394523
0.0320198
0.0279616
0.0255358
0.023961
0.0228506
0.0219938
0.0212463
0.0205219
0.0197397
0.0833803
0.0716589
0.0632414
0.0569009
0.051966
0.0480272
0.0448166
0.0421507
0.0398851
0.038102
0.118341
0.141897
0.141683
0.133212
0.122827
0.112844
0.103999
0.0964336
0.0900817
0.0848187
0.0805137
0.0770464
0.0743096
0.072207
0.0706504
0.0695569
0.0688479
0.0684484
0.0682879
0.0683023
0.068435
0.0686387
0.068875
0.0691148
0.0693364
0.0695241
0.0696654
0.0697484
0.0697622
0.069696
0.0695397
0.069287
0.0689366
0.0684927
0.0679666
0.0673739
0.0667317
0.0660569
0.0653645
0.0646672
0.0639747
0.0632944
0.0626309
0.061987
0.0613637
0.0607611
0.0601782
0.0596127
0.0590622
0.058524
0.0579956
0.0574744
0.0569579
0.056444
0.0559303
0.0554151
0.0548968
0.0543744
0.0538471
0.0533146
0.0527768
0.0522341
0.0516877
0.0511389
0.0505904
0.0500455
0.0495119
0.0489934
0.0485525
0.0480013
0.0341289
0.0272345
0.0234707
0.0212362
0.0197935
0.0187744
0.0179849
0.0172987
0.0166675
0.0158176
0.0833793
0.0716569
0.0632385
0.0568973
0.051962
0.048023
0.0448123
0.0421465
0.039881
0.0380975
0.118279
0.141781
0.141528
0.133037
0.122644
0.112662
0.103823
0.0962664
0.0899262
0.084677
0.0803885
0.0769409
0.0742273
0.0721516
0.0706247
0.0695624
0.0688843
0.0685143
0.0683812
0.0684215
0.0685801
0.0688121
0.0690825
0.0693653
0.0696415
0.0698964
0.0701163
0.0702851
0.070384
0.0703918
0.0702871
0.0700549
0.06969
0.0691989
0.0685992
0.0679161
0.0671765
0.0664057
0.0656256
0.0648532
0.0641009
0.0633763
0.0626838
0.0620245
0.0613974
0.0608003
0.0602295
0.0596813
0.0591519
0.0586378
0.0581356
0.0576418
0.0571534
0.0566675
0.0561815
0.0556935
0.0552019
0.0547056
0.0542042
0.0536976
0.0531867
0.0526727
0.052158
0.0516456
0.0511405
0.0506491
0.0501832
0.0497518
0.0494292
0.0490098
0.0346703
0.0274316
0.0234074
0.0209813
0.0194087
0.0183171
0.0175067
0.0168451
0.0162773
0.0155499
0.0833783
0.0716549
0.0632359
0.0568943
0.051959
0.0480206
0.0448113
0.042148
0.0398869
0.0381093
0.118377
0.141835
0.141504
0.132944
0.122503
0.112501
0.103672
0.096159
0.0898971
0.0847637
0.0806293
0.0773723
0.074881
0.0730511
0.071784
0.0709858
0.0705676
0.070448
0.0705543
0.0708246
0.0712082
0.0716659
0.0721683
0.0726936
0.0732248
0.0737455
0.0742352
0.0746653
0.074998
0.0751877
0.0751886
0.0749683
0.0745169
0.0738495
0.0730038
0.0720308
0.0709842
0.0699142
0.0688632
0.0678634
0.066937
0.0660967
0.0653477
0.0646889
0.064115
0.0636182
0.063189
0.0628182
0.0624977
0.0622194
0.0619751
0.0617569
0.0615576
0.0613718
0.0611948
0.0610239
0.0608573
0.0606947
0.0605365
0.0603843
0.0602405
0.0601084
0.0599922
0.0598969
0.0598293
0.0597984
0.0598197
0.0599112
0.0601758
0.060434
0.0423261
0.0331027
0.0279
0.0247315
0.0226865
0.021311
0.0203425
0.0196146
0.0190389
0.0184035
0.0833774
0.071653
0.0632333
0.0568914
0.051956
0.0480181
0.0448099
0.0421483
0.0398902
0.0381145
0.118206
0.141546
0.14126
0.132827
0.122636
0.11304
0.104786
0.098011
0.09263
0.0884854
0.0854041
0.0832171
0.0817671
0.0809113
0.0805234
0.0804945
0.0807336
0.081167
0.0817372
0.0824015
0.0831293
0.0839
0.0847002
0.0855214
0.086356
0.0871939
0.088016
0.0887875
0.0894544
0.0899408
0.0901584
0.0900314
0.0895165
0.0886123
0.08736
0.0858311
0.084112
0.0822935
0.0804622
0.0786952
0.0770567
0.0755959
0.0743466
0.0733268
0.07254
0.0719778
0.071621
0.0714585
0.0714735
0.0716259
0.0718716
0.0721729
0.0725015
0.0728386
0.0731724
0.0734968
0.0738096
0.0741108
0.0744026
0.074688
0.0749708
0.0752554
0.0755468
0.0758505
0.0761735
0.0765257
0.0769265
0.0774081
0.078109
0.0789487
0.0521925
0.039077
0.0319284
0.0277221
0.0251035
0.0233985
0.0222437
0.0214231
0.0208155
0.0202485
0.0833764
0.0716511
0.0632309
0.056889
0.0519543
0.0480182
0.0448147
0.0421628
0.0399348
0.0380425
0.0367446
0.0356352
0.0345144
0.033486
0.032538
0.0316643
0.0308615
0.0301264
0.0294557
0.0288455
0.0282919
0.0277908
0.0273382
0.0269301
0.0265629
0.0262329
0.025937
0.0256722
0.0254357
0.0252255
0.0250395
0.0248762
0.0247346
0.0246141
0.0245146
0.0244364
0.0243799
0.0243448
0.0243295
0.0243305
0.0243415
0.0243545
0.0243616
0.024356
0.0243332
0.0242902
0.0242258
0.0241416
0.0240405
0.0239257
0.023801
0.0236702
0.0235369
0.0234044
0.0232755
0.0231524
0.0230368
0.0229299
0.0228322
0.022744
0.0226648
0.0225941
0.0225308
0.022474
0.0224226
0.0223755
0.0223315
0.0222899
0.0222497
0.0222102
0.0221708
0.0221309
0.02209
0.0220478
0.022004
0.0219584
0.0219108
0.0218608
0.0218082
0.0217509
0.0216158
0.0214612
0.0213071
0.0211593
0.0210185
0.0208833
0.0207526
0.0206217
0.0205011
0.0203335
0.0833755
0.0716493
0.0632284
0.0568861
0.0519514
0.0480156
0.044813
0.0421628
0.0399376
0.0380472
0.0364292
0.0350341
0.0338198
0.0327537
0.0318108
0.0309713
0.0302194
0.0295425
0.0289306
0.0283754
0.0278701
0.0274091
0.0269878
0.0266023
0.0262494
0.0259264
0.025631
0.0253613
0.0251156
0.0248929
0.0246921
0.0245126
0.0243543
0.0242174
0.0241029
0.0240124
0.0239476
0.0239096
0.023898
0.0239089
0.023934
0.0239624
0.0239837
0.023989
0.0239737
0.0239359
0.0238763
0.0237967
0.0237001
0.0235897
0.0234691
0.0233417
0.0232106
0.0230781
0.0229466
0.0228179
0.0226934
0.0225744
0.0224616
0.0223555
0.0222565
0.0221644
0.0220792
0.0220004
0.0219275
0.0218599
0.021797
0.0217381
0.0216825
0.0216296
0.0215787
0.0215292
0.0214806
0.0214325
0.0213843
0.0213358
0.0212864
0.0212358
0.0211833
0.0211275
0.0210666
0.0210016
0.0209335
0.020863
0.0207898
0.0207136
0.0206345
0.02055
0.0204731
0.0203505
0.0833746
0.0716474
0.0632258
0.0568831
0.0519484
0.0480131
0.0448118
0.0421638
0.0399425
0.0380573
0.0364419
0.0350457
0.0338283
0.0327583
0.0318111
0.0309671
0.0302107
0.0295292
0.0289125
0.0283522
0.0278414
0.0273744
0.0269467
0.0265544
0.0261942
0.0258634
0.02556
0.0252819
0.0250278
0.0247965
0.0245873
0.0243997
0.0242339
0.0240907
0.0239719
0.0238804
0.0238201
0.0237948
0.0238069
0.0238523
0.0239188
0.0239902
0.0240504
0.024087
0.0240938
0.0240692
0.0240143
0.0239323
0.0238275
0.0237046
0.0235692
0.0234252
0.0232764
0.0231252
0.0229748
0.0228281
0.0226876
0.0225548
0.0224308
0.0223164
0.0222119
0.0221171
0.0220319
0.0219557
0.0218879
0.0218276
0.0217741
0.0217264
0.0216837
0.0216451
0.0216097
0.0215768
0.0215455
0.0215152
0.0214853
0.021455
0.0214238
0.021391
0.021356
0.0213177
0.0212753
0.0212283
0.0211769
0.0211209
0.0210601
0.0209935
0.0209206
0.0208364
0.0207486
0.0205768
0.0833737
0.0716454
0.063223
0.0568797
0.0519444
0.0480087
0.044807
0.0421588
0.0399371
0.0380508
0.036433
0.0350328
0.0338108
0.0327361
0.0317842
0.0309356
0.0301747
0.0294888
0.0288675
0.0283025
0.027787
0.0273152
0.0268824
0.0264849
0.0261195
0.0257835
0.0254747
0.0251913
0.0249318
0.0246951
0.0244804
0.0242873
0.0241162
0.0239681
0.0238458
0.023754
0.0236993
0.0236905
0.0237373
0.0238375
0.0239743
0.024122
0.0242531
0.024348
0.0243981
0.0244019
0.0243626
0.0242854
0.024177
0.0240465
0.0239011
0.0237462
0.0235867
0.0234269
0.0232705
0.0231204
0.0229791
0.0228487
0.0227304
0.0226251
0.0225331
0.0224543
0.0223883
0.022334
0.0222904
0.0222559
0.022229
0.0222079
0.0221908
0.0221761
0.0221621
0.0221472
0.0221301
0.0221097
0.0220848
0.0220549
0.0220191
0.021977
0.0219281
0.0218721
0.0218084
0.0217369
0.0216575
0.0215704
0.0214753
0.0213714
0.0212578
0.0211281
0.020986
0.0207391
0.0833728
0.0716435
0.0632202
0.056876
0.0519401
0.0480038
0.0448016
0.0421528
0.0399306
0.0380435
0.0364241
0.0350214
0.033796
0.0327172
0.0317606
0.0309068
0.0301404
0.0294486
0.0288213
0.02825
0.0277281
0.0272497
0.0268104
0.0264063
0.0260344
0.0256921
0.0253771
0.0250876
0.0248221
0.0245792
0.0243581
0.0241583
0.0239798
0.023824
0.0236938
0.0235961
0.0235412
0.0235472
0.0236469
0.0238588
0.0241666
0.0245189
0.0248517
0.0251249
0.0253218
0.0254406
0.0254883
0.0254759
0.0254159
0.0253231
0.0252204
0.0251162
0.0250171
0.0249282
0.0248533
0.0247947
0.0247535
0.0247294
0.024721
0.0247259
0.024741
0.0247626
0.024787
0.0248103
0.024829
0.0248399
0.0248404
0.0248285
0.0248025
0.0247616
0.0247055
0.024634
0.0245476
0.0244471
0.0243333
0.0242071
0.0240698
0.0239223
0.0237658
0.0236009
0.0234285
0.0232493
0.0230637
0.0228723
0.0226751
0.0224714
0.0222602
0.0220348
0.0217984
0.021458
0.0833719
0.0716414
0.0632171
0.056872
0.0519351
0.0479978
0.0447944
0.0421443
0.0399204
0.0380312
0.0364089
0.0350026
0.033773
0.0326895
0.0317277
0.0308685
0.0300963
0.0293986
0.0287649
0.0281872
0.0276584
0.0271731
0.0267267
0.0263155
0.0259365
0.0255872
0.0252653
0.0249691
0.0246968
0.024447
0.0242185
0.0240104
0.0238224
0.0236555
0.0235121
0.0234011
0.0233362
0.0233549
0.0235999
0.0242146
0.0251911
0.0263343
0.0274272
0.0283756
0.0291477
0.02975
0.0302057
0.0305428
0.0307878
0.0309605
0.0310921
0.0312116
0.0313121
0.0313869
0.0314314
0.0314425
0.0314194
0.0313628
0.0312743
0.0311564
0.0310117
0.0308426
0.0306518
0.0304414
0.0302135
0.0299702
0.0297131
0.029444
0.0291644
0.0288759
0.0285799
0.0282779
0.0279711
0.027661
0.0273487
0.0270352
0.0267215
0.0264085
0.0260967
0.0257867
0.0254788
0.0251732
0.0248699
0.0245687
0.0242692
0.02397
0.0236694
0.0233606
0.0230445
0.022638
0.083371
0.0716395
0.0632141
0.0568679
0.0519299
0.0479914
0.0447866
0.042135
0.0399093
0.0380178
0.0363928
0.0349831
0.0337495
0.0326614
0.0316945
0.0308296
0.0300512
0.0293466
0.0287057
0.0281202
0.0275833
0.0270896
0.0266346
0.0262147
0.0258271
0.0254692
0.0251391
0.0248349
0.0245546
0.0242967
0.0240595
0.0238416
0.0236415
0.0234587
0.0232938
0.0231557
0.0230587
0.0230854
0.0240228
0.0266106
0.0305708
0.0347887
0.0384304
0.0412841
0.043332
0.0446775
0.0454511
0.0457793
0.0457732
0.0455262
0.0450864
0.0445055
0.0438178
0.043058
0.042257
0.0414396
0.0406246
0.0398246
0.0390476
0.0382977
0.0375764
0.0368835
0.0362177
0.0355771
0.0349596
0.0343633
0.0337864
0.0332275
0.0326852
0.0321587
0.0316472
0.0311502
0.0306673
0.0301982
0.0297427
0.0293005
0.0288714
0.0284552
0.0280515
0.0276598
0.0272797
0.0269107
0.026552
0.0262028
0.0258621
0.0255289
0.0252006
0.0248714
0.0245375
0.0241356
0.0833701
0.0716375
0.0632111
0.0568638
0.0519245
0.0479846
0.0447782
0.0421247
0.0398967
0.0380026
0.0363744
0.0349609
0.0337229
0.0326298
0.0316573
0.0307862
0.0300009
0.0292888
0.0286399
0.0280457
0.0274996
0.0269963
0.0265313
0.0261014
0.0257038
0.0253362
0.0249967
0.0246834
0.0243944
0.0241278
0.0238816
0.023654
0.0234423
0.0232446
0.0230568
0.0228869
0.0227399
0.0228584
0.0276142
0.0387134
0.0519979
0.0625599
0.0688889
0.0716533
0.0718204
0.0703596
0.0680075
0.06526
0.0624186
0.0596474
0.0570211
0.0545623
0.0523076
0.0502656
0.048428
0.0467774
0.0452927
0.043952
0.0427347
0.0416223
0.0405991
0.0396516
0.0387688
0.0379415
0.0371627
0.0364265
0.0357284
0.0350649
0.0344332
0.0338312
0.0332575
0.0327108
0.0321902
0.0316947
0.0312231
0.0307745
0.030348
0.0299426
0.0295586
0.0291942
0.028846
0.0285115
0.0281887
0.0278756
0.0275699
0.0272683
0.0269666
0.0266603
0.0263501
0.0259946
0.0833693
0.0716358
0.0632083
0.0568599
0.0519193
0.0479779
0.0447698
0.0421142
0.0398839
0.037987
0.0363555
0.0349381
0.0336957
0.0325974
0.031619
0.0307412
0.0299484
0.0292281
0.02857
0.0279658
0.027409
0.0268942
0.0264174
0.0259754
0.0255658
0.0251866
0.024836
0.0245123
0.0242134
0.0239374
0.023682
0.0234452
0.0232233
0.0230123
0.0228007
0.0225887
0.0223365
0.022898
0.0428321
0.0735401
0.0976093
0.108744
0.109156
0.103519
0.0954438
0.0870418
0.0793147
0.0726143
0.0669716
0.0622816
0.0584021
0.0551894
0.0525143
0.050264
0.048348
0.046701
0.0452875
0.0440375
0.0429049
0.0418625
0.0408933
0.0399863
0.0391338
0.0383306
0.0375729
0.0368582
0.0361847
0.035551
0.0349562
0.0343993
0.0338787
0.0333928
0.0329402
0.0325189
0.0321268
0.0317617
0.0314209
0.0311018
0.0308015
0.0305174
0.0302469
0.0299876
0.0297376
0.0294947
0.0292565
0.0290208
0.028781
0.0285331
0.0282442
0.0279152
0.0833687
0.0716343
0.0632058
0.0568563
0.0519144
0.0479715
0.0447616
0.0421039
0.0398711
0.0379712
0.0363361
0.0349147
0.0336674
0.0325636
0.0315788
0.0306938
0.0298928
0.0291632
0.0284947
0.0278791
0.0273098
0.0267817
0.0262909
0.0258346
0.0254107
0.0250179
0.0246546
0.0243192
0.0240098
0.0237243
0.0234612
0.0232197
0.0229986
0.0227973
0.0226056
0.022424
0.0221953
0.0228174
0.044683
0.0781977
0.104249
0.115095
0.114962
0.108585
0.0995298
0.0900669
0.0813333
0.0737545
0.0673908
0.0621416
0.0578514
0.0543605
0.0515365
0.0492731
0.0473993
0.0458056
0.0444184
0.0431869
0.0420757
0.0410598
0.0401215
0.0392484
0.0384316
0.0376654
0.0369458
0.0362708
0.0356392
0.0350508
0.0345056
0.0340038
0.0335449
0.0331283
0.0327531
0.0324174
0.0321188
0.0318541
0.0316194
0.0314106
0.0312231
0.0310525
0.0308948
0.0307459
0.0306024
0.0304612
0.030319
0.0301734
0.0300179
0.0298522
0.0296396
0.0294159
0.0833682
0.0716331
0.0632038
0.0568532
0.0519101
0.0479657
0.044754
0.0420942
0.0398588
0.0379558
0.0363172
0.0348916
0.0336393
0.0325297
0.0315382
0.0306454
0.0298354
0.0290955
0.0284153
0.0277866
0.0272027
0.0266586
0.0261509
0.0256772
0.0252361
0.0248269
0.0244487
0.0241002
0.023779
0.0234832
0.0232123
0.022969
0.0227581
0.0225911
0.0224695
0.0224094
0.0223157
0.0229424
0.043983
0.0772603
0.10366
0.114895
0.114993
0.108841
0.0999966
0.0907348
0.0821693
0.074703
0.0683774
0.0630779
0.0586567
0.0550167
0.0520247
0.0495172
0.0473847
0.0455487
0.0439499
0.0425419
0.0412876
0.0401569
0.0391263
0.0381772
0.0372962
0.0364738
0.0357042
0.0349844
0.0343137
0.0336932
0.0331247
0.0326104
0.0321524
0.0317521
0.03141
0.0311255
0.0308961
0.0307182
0.0305864
0.0304944
0.0304352
0.0304015
0.0303861
0.0303822
0.0303836
0.0303851
0.0303811
0.0303676
0.0303362
0.0302882
0.0301826
0.0300794
0.0833679
0.0716322
0.0632022
0.0568507
0.0519064
0.0479606
0.0447471
0.0420852
0.0398472
0.0379412
0.036299
0.034869
0.0336116
0.032496
0.0314974
0.0305962
0.0297765
0.0290252
0.0283319
0.027688
0.0270871
0.0265243
0.0259963
0.0255015
0.0250395
0.0246108
0.0242157
0.0238529
0.0235194
0.0232128
0.0229345
0.022694
0.0225102
0.0224255
0.0224811
0.0227525
0.0229992
0.0236488
0.0417766
0.071982
0.096985
0.1087
0.109739
0.104559
0.0968894
0.08892
0.0815761
0.0751274
0.0695391
0.0646847
0.0604426
0.0567786
0.0535806
0.0507632
0.0482738
0.0460734
0.0441275
0.0424022
0.0408644
0.0394825
0.0382278
0.0370759
0.0360076
0.0350088
0.0340692
0.0331829
0.0323489
0.0315706
0.0308534
0.0302063
0.0296357
0.0291452
0.0287377
0.0284154
0.0281731
0.0280131
0.027935
0.0279369
0.02801
0.0281412
0.0283154
0.028516
0.0287268
0.0289355
0.0291323
0.0293105
0.0294591
0.0295803
0.0296263
0.0296728
0.0833677
0.0716317
0.0632012
0.0568488
0.0519035
0.0479562
0.0447411
0.0420771
0.0398366
0.0379276
0.0362818
0.0348475
0.0335849
0.0324631
0.0314572
0.0305472
0.029717
0.0289533
0.0282453
0.0275842
0.0269635
0.0263781
0.0258254
0.0253045
0.0248165
0.024364
0.0239496
0.0235725
0.023228
0.0229135
0.022634
0.0224132
0.0223014
0.0224171
0.0229247
0.0240501
0.0249783
0.0255082
0.0264911
0.0302678
0.0372397
0.0447026
0.0510654
0.0561632
0.059719
0.061767
0.0625341
0.0622742
0.061206
0.059522
0.0574074
0.0550714
0.0526413
0.0502208
0.0478875
0.0456923
0.0436614
0.0417999
0.0400983
0.0385375
0.0370937
0.0357436
0.0344704
0.0332719
0.0321644
0.0311389
0.0301687
0.0292361
0.0283341
0.0274471
0.0265864
0.0257777