/*--------------------------------*- C++ -*----------------------------------*\
| =========                 |                                                 |
| \\      /  F ield         | OpenFOAM: The Open Source CFD Toolbox           |
|  \\    /   O peration     | Version:  v2012                                 |
|   \\  /    A nd           | Website:  www.openfoam.com                      |
|    \\/     M anipulation  |                                                 |
\*---------------------------------------------------------------------------*/
FoamFile
{
    version     2.0;
    format      ascii;
    class       volScalarField;
    location    "350/air";
    object      nut;
}
// * * * * * * * * * * * * * * * * * * * * * * * * * * * * * * * * * * * * * //

dimensions      [0 2 -1 0 0 0 0];


internalField   nonuniform List<scalar> 
287104
(
0.00648531
0.00601334
0.00565039
0.00536106
0.00512491
0.00492873
0.00476343
0.00462249
0.00450112
0.00439566
0.00430334
0.00422197
0.00414983
0.00408551
0.00402789
0.00397604
0.00392919
0.00388669
0.003848
0.00381267
0.00378029
0.00375054
0.00372313
0.0036978
0.00367435
0.00365257
0.0036323
0.0036134
0.00359573
0.00357918
0.00356364
0.00354902
0.00353524
0.00352221
0.00350987
0.00349816
0.00348701
0.00347637
0.00346619
0.00345643
0.00344704
0.00343798
0.00342923
0.00342074
0.00341249
0.00340446
0.00339661
0.00338894
0.00338142
0.00337404
0.00336678
0.00335964
0.00335261
0.00334567
0.00333883
0.00333207
0.0033254
0.00331881
0.00331231
0.00330588
0.00329953
0.00329325
0.00328706
0.00328093
0.00327487
0.00326889
0.00326297
0.00325711
0.00325131
0.00324556
0.00323986
0.0032342
0.00322856
0.00322295
0.00321734
0.00321174
0.0032061
0.00320044
0.0031947
0.00318889
0.00318295
0.00317685
0.00317054
0.00316392
0.00315688
0.00314919
0.0031406
0.00313014
0.00311811
0.00309188
0.00648518
0.00601307
0.00564999
0.00536055
0.0051243
0.00492804
0.00476267
0.00462167
0.00450024
0.00439473
0.00430238
0.00422098
0.00414881
0.00408448
0.00402686
0.00397501
0.00392817
0.00388568
0.003847
0.00381168
0.00377933
0.0037496
0.00372221
0.00369691
0.00367348
0.00365173
0.0036315
0.00361263
0.00359501
0.00357851
0.00356302
0.00354847
0.00353475
0.0035218
0.00350955
0.00349793
0.00348687
0.00347634
0.00346627
0.00345662
0.00344735
0.00343841
0.00342978
0.00342142
0.00341329
0.00340537
0.00339764
0.00339008
0.00338266
0.00337538
0.00336821
0.00336115
0.00335419
0.00334732
0.00334054
0.00333383
0.00332721
0.00332065
0.00331417
0.00330777
0.00330143
0.00329516
0.00328896
0.00328283
0.00327676
0.00327076
0.00326481
0.00325893
0.00325309
0.0032473
0.00324155
0.00323584
0.00323015
0.00322447
0.0032188
0.00321311
0.0032074
0.00320164
0.00319581
0.00318988
0.00318382
0.00317759
0.00317114
0.00316438
0.00315718
0.00314935
0.00314061
0.00313002
0.00311788
0.00309177
0.00648513
0.00601296
0.00564982
0.00536033
0.00512403
0.00492772
0.0047623
0.00462126
0.00449978
0.00439425
0.00430186
0.00422045
0.00414827
0.00408393
0.00402631
0.00397446
0.00392762
0.00388514
0.00384648
0.00381117
0.00377883
0.00374912
0.00372175
0.00369646
0.00367306
0.00365133
0.00363113
0.0036123
0.00359472
0.00357826
0.00356283
0.00354833
0.00353468
0.00352181
0.00350963
0.00349809
0.00348713
0.00347669
0.00346673
0.00345719
0.00344803
0.00343921
0.00343069
0.00342245
0.00341445
0.00340665
0.00339905
0.00339161
0.00338432
0.00337716
0.00337012
0.00336318
0.00335634
0.00334959
0.00334293
0.00333635
0.00332985
0.00332343
0.00331708
0.0033108
0.0033046
0.00329847
0.00329241
0.00328642
0.0032805
0.00327465
0.00326887
0.00326314
0.00325747
0.00325186
0.00324629
0.00324075
0.00323525
0.00322977
0.00322429
0.0032188
0.0032133
0.00320774
0.00320213
0.00319641
0.00319058
0.00318457
0.00317835
0.00317183
0.00316489
0.00315734
0.00314892
0.00313871
0.00312703
0.00310194
0.00648507
0.00601283
0.00564962
0.00536005
0.00512367
0.00492728
0.00476179
0.00462068
0.00449914
0.00439354
0.00430111
0.00421965
0.00414745
0.0040831
0.00402547
0.00397362
0.00392678
0.00388429
0.00384563
0.00381032
0.00377798
0.00374827
0.00372089
0.00369562
0.00367221
0.0036505
0.00363031
0.0036115
0.00359394
0.00357752
0.00356213
0.00354768
0.00353408
0.00352127
0.00350917
0.00349772
0.00348685
0.00347651
0.00346665
0.00345722
0.00344817
0.00343947
0.00343108
0.00342295
0.00341506
0.00340738
0.00339989
0.00339256
0.00338536
0.0033783
0.00337134
0.00336449
0.00335772
0.00335104
0.00334444
0.00333792
0.00333147
0.00332509
0.00331878
0.00331254
0.00330637
0.00330026
0.00329423
0.00328826
0.00328236
0.00327652
0.00327074
0.00326502
0.00325935
0.00325372
0.00324814
0.00324259
0.00323706
0.00323154
0.00322602
0.00322048
0.00321491
0.00320928
0.00320356
0.00319774
0.00319176
0.0031856
0.0031792
0.00317248
0.00316533
0.00315757
0.00314894
0.00313855
0.0031267
0.00310158
0.00648503
0.00601272
0.00564945
0.00535981
0.00512337
0.00492692
0.00476135
0.00462017
0.00449856
0.0043929
0.00430041
0.00421892
0.00414669
0.00408233
0.00402469
0.00397285
0.00392601
0.00388353
0.00384488
0.00380957
0.00377724
0.00374753
0.00372016
0.00369489
0.0036715
0.0036498
0.00362963
0.00361084
0.00359331
0.00357693
0.00356159
0.0035472
0.00353368
0.00352094
0.00350893
0.00349758
0.00348682
0.0034766
0.00346686
0.00345756
0.00344866
0.0034401
0.00343184
0.00342386
0.00341611
0.00340857
0.00340122
0.00339401
0.00338695
0.00338
0.00337317
0.00336642
0.00335977
0.00335319
0.00334669
0.00334026
0.00333389
0.0033276
0.00332137
0.00331521
0.00330912
0.00330309
0.00329712
0.00329122
0.00328538
0.0032796
0.00327387
0.0032682
0.00326257
0.00325697
0.00325141
0.00324587
0.00324034
0.0032348
0.00322925
0.00322366
0.00321801
0.00321228
0.00320644
0.00320045
0.00319427
0.00318787
0.00318118
0.00317415
0.00316667
0.00315854
0.00314956
0.00313884
0.00312668
0.00310138
0.00648498
0.00601261
0.00564926
0.00535956
0.00512303
0.00492649
0.00476084
0.00461956
0.00449786
0.00439213
0.00429959
0.00421807
0.00414584
0.00408148
0.00402386
0.00397202
0.00392519
0.00388272
0.00384406
0.00380875
0.00377641
0.00374669
0.00371932
0.00369404
0.00367065
0.00364896
0.0036288
0.00361004
0.00359255
0.00357621
0.00356093
0.00354662
0.00353319
0.00352057
0.00350868
0.00349747
0.00348687
0.00347682
0.00346727
0.00345817
0.00344947
0.00344113
0.0034331
0.00342534
0.00341782
0.00341051
0.00340338
0.00339641
0.00338957
0.00338284
0.00337623
0.0033697
0.00336326
0.00335689
0.0033506
0.00334438
0.00333823
0.00333214
0.00332613
0.00332018
0.0033143
0.00330849
0.00330274
0.00329707
0.00329145
0.0032859
0.0032804
0.00327496
0.00326956
0.00326419
0.00325886
0.00325355
0.00324824
0.00324293
0.0032376
0.00323223
0.0032268
0.00322128
0.00321564
0.00320984
0.00320385
0.00319762
0.00319113
0.00318431
0.00317708
0.0031693
0.00316078
0.0031507
0.00313934
0.00311561
0.00648493
0.0060125
0.00564908
0.0053593
0.00512269
0.00492605
0.00476029
0.00461889
0.00449705
0.00439118
0.00429852
0.00421694
0.00414468
0.00408031
0.0040227
0.00397088
0.00392406
0.0038816
0.00384295
0.00380765
0.00377531
0.00374559
0.00371822
0.00369295
0.00366957
0.0036479
0.00362778
0.00360907
0.00359165
0.00357541
0.00356024
0.00354607
0.00353281
0.00352037
0.00350871
0.00349774
0.00348741
0.00347765
0.00346842
0.00345965
0.0034513
0.00344332
0.00343567
0.00342828
0.00342112
0.00341416
0.00340738
0.00340075
0.00339426
0.0033879
0.00338164
0.00337547
0.00336939
0.00336339
0.00335747
0.00335162
0.00334585
0.00334015
0.00333452
0.00332897
0.0033235
0.0033181
0.00331279
0.00330755
0.00330239
0.00329731
0.0032923
0.00328737
0.0032825
0.00327771
0.00327297
0.0032683
0.00326368
0.0032591
0.00325455
0.00325002
0.00324549
0.00324093
0.00323632
0.0032316
0.00322673
0.00322169
0.00321645
0.00321099
0.00320528
0.00319921
0.00319263
0.00318479
0.003176
0.00315696
0.00648488
0.00601239
0.0056489
0.00535903
0.00512233
0.00492558
0.00475969
0.00461815
0.00449616
0.00439015
0.00429743
0.00421587
0.00414366
0.00407935
0.00402178
0.00396997
0.00392315
0.00388066
0.00384195
0.00380657
0.00377413
0.00374432
0.00371685
0.00369149
0.00366803
0.00364631
0.00362617
0.00360747
0.00359009
0.00357394
0.00355891
0.00354491
0.00353184
0.00351962
0.00350819
0.00349749
0.00348745
0.00347801
0.0034691
0.00346066
0.00345264
0.00344499
0.00343764
0.00343056
0.00342371
0.00341704
0.00341054
0.00340418
0.00339794
0.00339181
0.00338576
0.00337981
0.00337394
0.00336815
0.00336244
0.00335682
0.00335128
0.00334583
0.00334047
0.00333519
0.00333001
0.00332492
0.00331991
0.003315
0.00331018
0.00330544
0.00330079
0.00329622
0.00329172
0.00328729
0.00328292
0.00327861
0.00327433
0.00327009
0.00326586
0.00326164
0.00325739
0.00325309
0.0032487
0.00324416
0.0032394
0.00323442
0.00322921
0.00322378
0.00321811
0.00321213
0.00320586
0.00319909
0.00319312
0.00318194
0.00648484
0.00601227
0.00564871
0.00535875
0.00512193
0.00492503
0.00475894
0.00461713
0.00449476
0.00438828
0.00429577
0.00421516
0.00414426
0.0040812
0.00402457
0.00397327
0.00392649
0.00388363
0.00384421
0.00380787
0.00377433
0.00374334
0.00371471
0.00368824
0.00366379
0.0036412
0.00362033
0.00360106
0.00358325
0.0035668
0.00355159
0.00353751
0.00352447
0.0035124
0.00350119
0.00349077
0.00348105
0.00347194
0.00346335
0.0034552
0.00344741
0.00343993
0.00343269
0.00342567
0.00341882
0.00341212
0.00340555
0.00339912
0.00339281
0.00338661
0.00338052
0.00337453
0.00336863
0.00336282
0.0033571
0.00335148
0.00334595
0.00334052
0.00333518
0.00332995
0.00332481
0.00331977
0.00331483
0.00330999
0.00330524
0.00330059
0.00329602
0.00329154
0.00328715
0.00328282
0.00327856
0.00327437
0.00327022
0.00326612
0.00326205
0.00325799
0.00325394
0.00324985
0.00324569
0.00324133
0.00323664
0.0032317
0.00322658
0.00322131
0.00321586
0.00321017
0.00320426
0.00319799
0.00319251
0.00318408
0.00648479
0.00601216
0.00564852
0.00535847
0.00512154
0.00492449
0.00475821
0.00461616
0.00449343
0.0043867
0.00435462
0.0043388
0.00431456
0.00427738
0.00422938
0.00417433
0.00411569
0.00405618
0.0039977
0.00394157
0.00388861
0.00383931
0.00379389
0.00375239
0.00371475
0.0036808
0.00365025
0.00362278
0.00359798
0.00357543
0.00355465
0.00353511
0.00351867
0.00350482
0.00349295
0.00348258
0.00347333
0.0034649
0.00345709
0.00344972
0.00344266
0.00343582
0.00342912
0.00342256
0.00341631
0.00341045
0.00340494
0.00339976
0.00339485
0.00339016
0.00338566
0.00338131
0.00337708
0.00337297
0.00336896
0.00336504
0.00336122
0.00335749
0.00335384
0.00335028
0.00334679
0.00334338
0.00334004
0.00333677
0.00333357
0.00333043
0.00332735
0.00332433
0.00332137
0.00331847
0.00331562
0.00331282
0.00331005
0.00330732
0.00330462
0.00330193
0.00329923
0.0032965
0.00329373
0.00329074
0.00328064
0.00326894
0.00325748
0.00324677
0.00323685
0.00322758
0.0032188
0.00321016
0.00320252
0.00319221
0.00648475
0.00601205
0.00564833
0.00535817
0.00512109
0.00492383
0.00475718
0.00461445
0.0044899
0.00438971
0.00774205
0.00847574
0.00847046
0.00821756
0.00789729
0.00757794
0.0072845
0.00702479
0.00679981
0.00660802
0.00644696
0.00631392
0.00620611
0.00612072
0.00605491
0.00600581
0.0059706
0.0059465
0.00593091
0.00592147
0.00591617
0.00591327
0.00591224
0.00591304
0.00591514
0.00591793
0.00592087
0.00592364
0.00592608
0.00592815
0.00592994
0.00593159
0.00593292
0.005934
0.00593482
0.00593559
0.00593664
0.0059383
0.0059409
0.00594465
0.00594969
0.00595613
0.00596404
0.00597344
0.0059843
0.00599665
0.00601051
0.0060259
0.00604282
0.00606124
0.00608112
0.00610241
0.00612503
0.00614893
0.00617399
0.00620015
0.00622727
0.00625522
0.00628389
0.00631318
0.00634297
0.00637315
0.0064036
0.00643427
0.00646514
0.00649628
0.00652814
0.00656177
0.00660224
0.00664413
0.00531536
0.00453162
0.00404702
0.00373794
0.00353684
0.00340413
0.00331548
0.00325504
0.00321379
0.00317983
0.0064847
0.00601194
0.00564815
0.0053579
0.00512071
0.00492331
0.00475647
0.0046135
0.00448862
0.0043881
0.00774184
0.00847709
0.00846997
0.00821273
0.00788666
0.00756061
0.00726003
0.00699305
0.00676095
0.00656237
0.00639507
0.0062565
0.00614403
0.006055
0.00598664
0.00593613
0.00590061
0.00587721
0.00586319
0.00585598
0.00585328
0.00585312
0.00585389
0.00585437
0.00585365
0.0058511
0.00584626
0.00583886
0.00582874
0.00581584
0.00580019
0.00578193
0.00576159
0.00573931
0.00571534
0.00568995
0.00566346
0.00563617
0.00560827
0.00557996
0.00555146
0.00552301
0.0054948
0.00546705
0.00544009
0.00541407
0.00538918
0.00536566
0.00534376
0.00532375
0.00530589
0.00529046
0.00527773
0.00526798
0.00526148
0.00525846
0.00525914
0.0052637
0.00527227
0.0052849
0.00530161
0.00532235
0.00534704
0.00537558
0.00540786
0.00544385
0.0054838
0.00552795
0.00558146
0.0056343
0.00469658
0.00412097
0.00375186
0.00350824
0.00334476
0.00323408
0.00315871
0.00310587
0.00306767
0.00302762
0.00648466
0.00601184
0.00564797
0.00535763
0.00512033
0.00492279
0.00475575
0.00461252
0.00448725
0.00438623
0.00773439
0.00847009
0.00846456
0.00820885
0.00788389
0.00755845
0.00725802
0.00699086
0.00675839
0.00655945
0.00639194
0.00625347
0.00614159
0.00605373
0.00598724
0.00593934
0.00590715
0.00588776
0.00587834
0.0058762
0.00587895
0.00588454
0.00589125
0.00589776
0.00590312
0.00590666
0.00590796
0.00590673
0.00590285
0.0058963
0.00588711
0.00587539
0.00586128
0.00584496
0.00582666
0.00580661
0.00578509
0.00576234
0.00573862
0.00571417
0.00568919
0.00566383
0.00563822
0.00561241
0.00558631
0.00555995
0.00553332
0.00550635
0.00547894
0.00545099
0.00542242
0.00539315
0.00536309
0.00533217
0.00530034
0.00526758
0.00523388
0.00519929
0.00516388
0.00512779
0.00509119
0.00505436
0.00501765
0.00498149
0.00494648
0.00491333
0.00488313
0.00485681
0.00483895
0.00481881
0.0040452
0.00358387
0.00329536
0.00310755
0.00298163
0.00289529
0.00283503
0.00279042
0.0027566
0.0027139
0.00648462
0.00601174
0.0056478
0.00535739
0.00512001
0.00492236
0.00475521
0.00461184
0.00448644
0.00438527
0.00773182
0.00846766
0.00846246
0.00820689
0.00788186
0.00755619
0.00725539
0.00698782
0.00675494
0.00655563
0.00638783
0.00624921
0.00613732
0.00604963
0.00598352
0.0059362
0.00590483
0.00588647
0.00587827
0.00587755
0.00588187
0.00588916
0.0058977
0.00590617
0.0059136
0.0059193
0.00592281
0.00592382
0.00592215
0.00591775
0.00591061
0.00590081
0.00588849
0.00587384
0.00585714
0.00583876
0.00581906
0.00579843
0.00577724
0.00575582
0.00573447
0.00571344
0.00569334
0.00567459
0.00565714
0.00564078
0.00562533
0.00561067
0.0055967
0.00558334
0.00557058
0.00555844
0.00554691
0.00553589
0.00552526
0.00551488
0.0055046
0.0054943
0.00548381
0.00547294
0.00546152
0.00544935
0.00543624
0.00542203
0.00540662
0.00539004
0.00537268
0.00535529
0.00534278
0.00533793
0.00451083
0.00403679
0.00374365
0.00354773
0.00341656
0.00332175
0.00324661
0.00317987
0.00311603
0.00303153
0.00648458
0.00601164
0.00564765
0.00535717
0.00511971
0.00492198
0.00475473
0.00461125
0.00448572
0.00438441
0.00772865
0.00846401
0.00845878
0.00820331
0.00787837
0.00755272
0.00725187
0.00698417
0.00675113
0.00655163
0.00638367
0.00624493
0.006133
0.00604538
0.00597945
0.00593245
0.00590151
0.0058837
0.00587617
0.0058762
0.00588136
0.00588957
0.0058991
0.00590864
0.00591718
0.00592404
0.00592872
0.00593085
0.00593019
0.0059266
0.00591999
0.00591038
0.00589787
0.00588264
0.005865
0.00584537
0.00582418
0.00580189
0.00577891
0.00575563
0.0057324
0.00570946
0.00568705
0.00566531
0.00564435
0.00562423
0.00560502
0.00558674
0.00556974
0.00555418
0.0055399
0.0055267
0.00551444
0.00550301
0.00549236
0.0054825
0.00547351
0.00546546
0.00545838
0.00545231
0.00544733
0.00544353
0.00544101
0.00543988
0.00544033
0.00544262
0.00544736
0.00545539
0.00547148
0.00549738
0.00464477
0.00416939
0.00388878
0.00371357
0.00359728
0.0035145
0.00345057
0.00339541
0.00334099
0.00326748
0.00648453
0.00601155
0.0056475
0.00535697
0.00511945
0.00492166
0.00475435
0.0046108
0.0044852
0.00438381
0.00772645
0.00846118
0.00845554
0.00819973
0.00787448
0.00754855
0.00724743
0.0069795
0.00674626
0.00654661
0.00637854
0.00623977
0.00612788
0.00604038
0.00597464
0.0059279
0.00589728
0.00587984
0.00587271
0.00587316
0.00587877
0.00588744
0.00589748
0.00590757
0.00591674
0.00592427
0.00592966
0.00593247
0.00593236
0.00592908
0.00592242
0.00591228
0.0058987
0.00588185
0.00586208
0.0058399
0.00581584
0.00579047
0.00576429
0.00573776
0.00571125
0.00568506
0.00565941
0.00563447
0.00561035
0.00558708
0.00556464
0.00554301
0.00552217
0.00550206
0.00548265
0.00546387
0.00544567
0.005428
0.0054108
0.00539402
0.00537764
0.00536164
0.00534603
0.0053308
0.00531598
0.00530162
0.00528779
0.00527458
0.00526216
0.00525074
0.00524083
0.00523299
0.00523326
0.00524748
0.00445831
0.00401624
0.00375293
0.00358633
0.00347391
0.00339241
0.00332816
0.00327114
0.00321628
0.00315515
0.0064845
0.00601146
0.00564736
0.00535679
0.00511923
0.0049214
0.00475406
0.0046105
0.00448489
0.00438349
0.0077253
0.00845931
0.00845292
0.00819635
0.00787038
0.00754379
0.00724211
0.00697373
0.00674016
0.00654031
0.00637219
0.00623349
0.00612179
0.00603457
0.00596918
0.00592281
0.00589255
0.00587543
0.00586854
0.00586916
0.00587486
0.0058836
0.00589372
0.00590397
0.00591343
0.00592143
0.00592745
0.00593098
0.00593157
0.00592875
0.0059221
0.00591133
0.00589636
0.00587734
0.00585472
0.00582912
0.00580126
0.00577183
0.00574148
0.00571074
0.00568005
0.00564972
0.00561999
0.00559098
0.00556276
0.00553532
0.00550865
0.00548265
0.00545723
0.00543227
0.00540765
0.00538326
0.00535898
0.00533471
0.00531035
0.00528578
0.00526095
0.00523578
0.00521023
0.00518427
0.00515789
0.00513112
0.00510397
0.00507654
0.00504894
0.00502135
0.00499415
0.00496754
0.00494473
0.00491607
0.00414444
0.0037012
0.00343493
0.00326644
0.00315278
0.00306994
0.00300422
0.00294596
0.00289144
0.00281634
0.00648446
0.00601137
0.00564723
0.00535662
0.00511903
0.00492118
0.00475383
0.00461027
0.00448466
0.00438323
0.00772328
0.00845583
0.0084483
0.00819095
0.0078645
0.00753768
0.00723596
0.00696768
0.00673434
0.00653485
0.00636723
0.00622921
0.0061184
0.00603225
0.00596809
0.00592304
0.00589411
0.00587825
0.00587255
0.00587427
0.00588108
0.00589102
0.00590258
0.00591465
0.00592642
0.00593726
0.00594661
0.00595377
0.00595797
0.00595831
0.00595389
0.00594406
0.00592857
0.00590766
0.00588201
0.00585265
0.00582069
0.00578719
0.00575308
0.00571911
0.00568583
0.00565358
0.0056226
0.00559294
0.00556461
0.00553749
0.00551147
0.00548638
0.00546207
0.00543839
0.00541519
0.00539232
0.00536965
0.00534703
0.00532436
0.00530154
0.00527848
0.00525513
0.00523146
0.00520748
0.0051832
0.0051587
0.00513408
0.00510949
0.00508517
0.00506145
0.00503894
0.00501811
0.00500275
0.00498246
0.00419047
0.00372731
0.00344304
0.00325978
0.00313534
0.00304609
0.00297826
0.00292189
0.00287275
0.00280864
0.00648442
0.00601129
0.00564711
0.00535648
0.00511888
0.00492106
0.00475378
0.00461035
0.00448499
0.00438391
0.00772648
0.00845746
0.00844759
0.00818808
0.00785998
0.00753229
0.00723071
0.00696379
0.00673325
0.0065382
0.00637677
0.00624666
0.00614529
0.00606976
0.0060169
0.00598337
0.00596574
0.0059607
0.00596521
0.00597664
0.00599282
0.00601207
0.00603313
0.00605508
0.00607719
0.0060988
0.00611905
0.0061368
0.0061505
0.00615833
0.00615842
0.00614945
0.00613096
0.0061035
0.0060685
0.00602797
0.00598406
0.00593883
0.00589405
0.00585114
0.00581109
0.00577454
0.00574177
0.00571282
0.00568751
0.00566556
0.00564657
0.00563019
0.00561608
0.00560391
0.0055933
0.00558389
0.00557539
0.00556753
0.00556012
0.00555302
0.00554615
0.00553948
0.00553304
0.0055269
0.00552115
0.00551593
0.00551144
0.00550791
0.00550563
0.00550502
0.00550678
0.00551174
0.00552464
0.0055372
0.00463358
0.0040978
0.0037621
0.00354201
0.0033917
0.00328685
0.00321111
0.00315315
0.00310669
0.00305483
0.00648438
0.00601121
0.005647
0.00535634
0.00511874
0.00492093
0.00475371
0.00461037
0.00448517
0.00438421
0.00772089
0.00844882
0.00844029
0.00818448
0.00786426
0.00755032
0.00726946
0.00703056
0.00683486
0.00668024
0.00656293
0.00647838
0.00642173
0.00638807
0.00637277
0.00637166
0.00638115
0.00639829
0.00642076
0.00644683
0.00647528
0.00650526
0.00653625
0.0065679
0.00659991
0.0066319
0.00666314
0.00669233
0.00671748
0.00673579
0.00674401
0.00673935
0.00672015
0.00668624
0.00663896
0.00658075
0.00651467
0.00644402
0.00637209
0.00630189
0.0062361
0.00617687
0.00612578
0.00608379
0.00605124
0.00602796
0.00601324
0.00600686
0.00600803
0.00601499
0.00602583
0.00603897
0.00605322
0.0060678
0.00608221
0.00609621
0.00610971
0.0061227
0.00613527
0.00614755
0.00615969
0.00617187
0.00618427
0.00619711
0.00621069
0.00622539
0.006242
0.00626179
0.00629034
0.00632426
0.00514117
0.00444777
0.00401977
0.00374517
0.00356358
0.00344024
0.0033542
0.00329177
0.00324488
0.00320074
0.00648435
0.00601113
0.00564689
0.00535623
0.00511865
0.00492094
0.00475396
0.00461116
0.00448768
0.00438007
0.00430469
0.0042392
0.004172
0.00410939
0.00405081
0.00399606
0.00394508
0.00389782
0.00385419
0.00381407
0.0037773
0.0037437
0.00371309
0.00368528
0.00366007
0.00363728
0.00361671
0.0035982
0.0035816
0.00356677
0.0035536
0.003542
0.00353191
0.00352331
0.00351618
0.00351058
0.00350653
0.00350401
0.00350292
0.003503
0.00350379
0.00350474
0.00350526
0.00350487
0.00350325
0.00350016
0.00349552
0.00348946
0.00348215
0.00347384
0.00346479
0.00345527
0.00344553
0.00343582
0.00342635
0.00341727
0.00340873
0.0034008
0.00339354
0.00338697
0.00338107
0.00337579
0.00337107
0.00336683
0.00336299
0.00335948
0.00335622
0.00335314
0.00335017
0.00334727
0.00334438
0.00334146
0.00333848
0.0033354
0.00333222
0.0033289
0.00332543
0.00332179
0.00331795
0.00331375
0.00330359
0.00329189
0.0032802
0.00326897
0.00325825
0.00324794
0.00323796
0.00322793
0.00321871
0.00320581
0.00648431
0.00601105
0.00564678
0.00535609
0.00511851
0.00492081
0.00475387
0.00461116
0.00448784
0.00438034
0.00428619
0.00420331
0.00412983
0.00406422
0.0040053
0.00395209
0.00390383
0.00385986
0.00381969
0.00378286
0.00374903
0.0037179
0.00368922
0.00366278
0.00363841
0.00361596
0.0035953
0.00357634
0.00355898
0.00354317
0.00352886
0.00351601
0.00350464
0.00349479
0.00348652
0.00347997
0.00347527
0.00347252
0.00347168
0.00347248
0.0034743
0.00347637
0.00347792
0.00347831
0.00347721
0.00347448
0.00347016
0.00346438
0.00345735
0.00344929
0.00344047
0.00343112
0.00342147
0.00341169
0.00340195
0.00339239
0.00338311
0.00337421
0.00336576
0.00335779
0.00335034
0.0033434
0.00333697
0.00333102
0.00332552
0.00332042
0.00331569
0.00331126
0.00330709
0.00330313
0.00329933
0.00329565
0.00329204
0.00328847
0.00328491
0.00328132
0.00327767
0.00327393
0.00327004
0.0032659
0.00326137
0.00325651
0.00325142
0.00324612
0.00324062
0.00323488
0.0032289
0.0032225
0.00321667
0.00320725
0.00648428
0.00601097
0.00564666
0.00535595
0.00511836
0.00492068
0.0047538
0.00461121
0.00448811
0.00438092
0.00428694
0.00420401
0.00413035
0.0040645
0.00400531
0.00395182
0.00390326
0.003859
0.00381849
0.00378131
0.0037471
0.00371555
0.00368641
0.00365948
0.00363457
0.00361156
0.00359031
0.00357073
0.00355275
0.0035363
0.00352135
0.0035079
0.00349596
0.00348562
0.00347701
0.00347038
0.00346599
0.00346415
0.00346504
0.00346835
0.00347318
0.00347837
0.00348273
0.00348539
0.0034859
0.00348413
0.00348016
0.00347423
0.00346662
0.00345768
0.0034478
0.00343725
0.00342632
0.00341516
0.00340402
0.00339312
0.00338264
0.0033727
0.0033634
0.00335479
0.00334691
0.00333975
0.00333331
0.00332755
0.00332242
0.00331787
0.00331384
0.00331027
0.00330708
0.00330422
0.00330162
0.00329921
0.00329695
0.00329476
0.00329262
0.00329045
0.00328822
0.00328588
0.00328336
0.0032806
0.00327753
0.0032741
0.00327033
0.00326622
0.00326172
0.00325677
0.00325132
0.00324498
0.00323835
0.00322511
0.00648424
0.00601089
0.00564654
0.00535579
0.00511816
0.00492046
0.00475355
0.00461094
0.00448781
0.00438055
0.00428641
0.00420324
0.00412928
0.00406313
0.00400362
0.00394982
0.00390094
0.00385635
0.00381552
0.003778
0.00374343
0.00371152
0.00368201
0.00365469
0.00362939
0.00360597
0.00358432
0.00356433
0.00354593
0.00352906
0.00351368
0.0034998
0.00348745
0.00347673
0.00346785
0.00346117
0.00345719
0.00345655
0.00345996
0.00346726
0.0034772
0.0034879
0.00349738
0.00350422
0.00350784
0.00350814
0.00350533
0.00349979
0.00349199
0.00348256
0.00347203
0.00346076
0.00344912
0.0034374
0.00342589
0.00341481
0.00340434
0.00339463
0.00338581
0.00337793
0.00337105
0.00336515
0.0033602
0.00335615
0.00335292
0.00335039
0.00334845
0.00334697
0.00334582
0.00334486
0.00334397
0.00334303
0.00334194
0.0033406
0.00333894
0.00333689
0.00333441
0.00333144
0.00332795
0.0033239
0.00331927
0.00331402
0.00330817
0.0033017
0.0032946
0.0032868
0.00327824
0.00326841
0.00325758
0.00323857
0.0064842
0.00601081
0.00564641
0.00535561
0.00511795
0.0049202
0.00475326
0.00461061
0.00448744
0.00438012
0.00428589
0.00420255
0.00412838
0.00406195
0.00400213
0.00394798
0.00389872
0.00385372
0.00381246
0.00377449
0.00373946
0.00370707
0.00367707
0.00364926
0.00362347
0.00359957
0.00357744
0.00355698
0.00353811
0.00352076
0.00350489
0.00349049
0.00347757
0.00346626
0.00345678
0.00344965
0.00344563
0.00344607
0.00345336
0.0034688
0.00349112
0.00351648
0.0035403
0.00355973
0.00357369
0.0035821
0.0035855
0.00358466
0.00358048
0.00357396
0.00356672
0.00355935
0.00355232
0.00354599
0.00354064
0.00353644
0.00353348
0.00353174
0.00353113
0.00353148
0.00353258
0.00353417
0.00353599
0.00353775
0.00353922
0.00354017
0.0035404
0.00353977
0.00353817
0.00353551
0.00353178
0.00352696
0.00352106
0.00351414
0.00350624
0.00349742
0.00348776
0.00347732
0.00346616
0.00345435
0.00344193
0.00342894
0.00341541
0.00340138
0.00338685
0.00337175
0.00335601
0.00333911
0.00332128
0.00329541
0.00648417
0.00601072
0.00564628
0.00535543
0.00511771
0.00491989
0.00475288
0.00461015
0.00448687
0.00437941
0.00428499
0.00420143
0.00412697
0.00406023
0.00400006
0.00394553
0.00389587
0.00385045
0.00380873
0.00377029
0.00373476
0.00370185
0.00367133
0.00364298
0.00361665
0.00359222
0.00356955
0.00354857
0.00352917
0.00351128
0.00349483
0.00347979
0.00346614
0.00345398
0.0034435
0.00343536
0.00343059
0.00343196
0.00344992
0.00349457
0.00356437
0.0036444
0.00371931
0.00378315
0.00383436
0.00387386
0.0039035
0.00392529
0.00394107
0.00395216
0.00396052
0.00396808
0.0039744
0.00397908
0.00398183
0.00398246
0.00398094
0.00397731
0.00397169
0.00396421
0.00395503
0.00394432
0.00393223
0.00391887
0.00390438
0.00388886
0.00387241
0.00385512
0.00383707
0.00381836
0.00379907
0.00377927
0.00375904
0.00373847
0.00371761
0.00369654
0.00367532
0.00365399
0.00363261
0.00361119
0.00358978
0.00356837
0.00354697
0.00352557
0.00350414
0.00348257
0.00346075
0.00343817
0.00341487
0.00338467
0.00648413
0.00601064
0.00564614
0.00535523
0.00511745
0.00491956
0.00475247
0.00460964
0.00448624
0.00437864
0.00428404
0.00420026
0.00412554
0.00405849
0.00399797
0.00394304
0.00389295
0.00384704
0.00380481
0.00376581
0.00372969
0.00369616
0.00366499
0.00363599
0.00360901
0.00358393
0.00356063
0.00353902
0.003519
0.00350047
0.00348334
0.00346753
0.00345295
0.00343958
0.00342746
0.00341729
0.00341013
0.00341209
0.00348069
0.00366341
0.00392663
0.00418885
0.00440273
0.00456335
0.00467524
0.00474733
0.00478828
0.00480554
0.00480519
0.00479214
0.00476886
0.00473796
0.00470112
0.00466009
0.00461644
0.00457149
0.00452624
0.00448142
0.00443748
0.00439469
0.00435319
0.00431299
0.00427404
0.00423627
0.00419958
0.00416386
0.00412904
0.00409503
0.00406178
0.00402923
0.00399735
0.00396612
0.00393553
0.00390557
0.00387624
0.00384753
0.00381945
0.00379199
0.00376514
0.00373889
0.00371321
0.00368807
0.00366346
0.00363931
0.00361552
0.00359207
0.00356877
0.0035452
0.0035211
0.00349184
0.0064841
0.00601056
0.00564601
0.00535504
0.00511719
0.00491922
0.00475203
0.00460908
0.00448554
0.00437777
0.00428296
0.00419892
0.00412391
0.00405652
0.00399562
0.00394026
0.00388969
0.00384325
0.00380044
0.00376081
0.00372402
0.00368979
0.00365788
0.00362813
0.00360039
0.00357455
0.00355053
0.00352821
0.00350749
0.00348828
0.00347044
0.00345386
0.00343837
0.00342384
0.00340999
0.0033974
0.00338646
0.00339527
0.00373181
0.00441865
0.00512101
0.00561713
0.00589445
0.00601157
0.00601858
0.00595703
0.00585658
0.005737
0.00561065
0.00548464
0.0053625
0.00524554
0.00513594
0.00503461
0.00494164
0.00485664
0.00477891
0.00470764
0.00464202
0.00458129
0.00452473
0.00447176
0.00442186
0.00437461
0.00432966
0.00428674
0.00424564
0.0042062
0.00416829
0.00413181
0.00409671
0.00406294
0.00403049
0.00399933
0.00396942
0.00394074
0.00391326
0.00388694
0.00386178
0.00383775
0.00381465
0.00379232
0.00377062
0.00374945
0.00372867
0.003708
0.00368715
0.00366594
0.0036443
0.00361922
0.00648407
0.00601049
0.00564588
0.00535485
0.00511693
0.00491887
0.00475158
0.0046085
0.00448482
0.00437687
0.00428185
0.00419755
0.00412224
0.00405451
0.0039932
0.00393738
0.00388629
0.00383927
0.0037958
0.00375545
0.00371788
0.00368281
0.00365002
0.00361936
0.00359071
0.00356398
0.0035391
0.00351596
0.00349446
0.00347448
0.0034559
0.00343858
0.00342227
0.00340669
0.00339099
0.00337519
0.00335628
0.0033982
0.00464761
0.00608985
0.00701601
0.00740539
0.00741942
0.00722531
0.00693777
0.00662537
0.00632445
0.0060514
0.0058115
0.00560427
0.00542687
0.00527543
0.00514592
0.0050344
0.00493749
0.00485269
0.00477882
0.00471254
0.00465168
0.00459495
0.00454158
0.00449104
0.004443
0.00439722
0.00435356
0.0043119
0.00427221
0.00423444
0.00419861
0.00416471
0.00413274
0.00410262
0.00407431
0.00404775
0.00402286
0.00399954
0.00397766
0.00395708
0.00393764
0.00391918
0.00390155
0.00388459
0.00386816
0.00385213
0.00383635
0.00382066
0.00380465
0.00378797
0.00376843
0.00374593
0.00648405
0.00601042
0.00564577
0.00535469
0.00511669
0.00491855
0.00475114
0.00460794
0.00448409
0.00437596
0.00428071
0.00419614
0.00412051
0.0040524
0.00399066
0.00393435
0.00388267
0.003835
0.0037908
0.00374963
0.00371115
0.0036751
0.00364127
0.00360953
0.00357981
0.00355203
0.00352615
0.00350209
0.00347974
0.00345899
0.00343976
0.00342201
0.00340567
0.00339073
0.00337645
0.00336285
0.00334566
0.0033922
0.00474693
0.00627969
0.00725064
0.0076185
0.00761409
0.00739986
0.00708459
0.00673936
0.00640428
0.00609861
0.00582957
0.00559794
0.00540124
0.00523573
0.00509788
0.0049847
0.00488906
0.00480624
0.004733
0.00466704
0.00460672
0.00455088
0.00449868
0.00444953
0.00440303
0.00435888