/*--------------------------------*- C++ -*----------------------------------*\
| =========                 |                                                 |
| \\      /  F ield         | OpenFOAM: The Open Source CFD Toolbox           |
|  \\    /   O peration     | Version:  v2012                                 |
|   \\  /    A nd           | Website:  www.openfoam.com                      |
|    \\/     M anipulation  |                                                 |
\*---------------------------------------------------------------------------*/
FoamFile
{
    version     2.0;
    format      ascii;
    class       volScalarField;
    location    "350/air";
    object      qin;
}
// * * * * * * * * * * * * * * * * * * * * * * * * * * * * * * * * * * * * * //

dimensions      [1 0 -3 0 0 0 0];


internalField   uniform 0;

boundaryField
{
    inlet
    {
        type            calculated;
        value           nonuniform List<scalar> 
3200
(
582.144
586.292
584.601
583.3
582.212
581.17
580.14
579.115
578.093
577.076
576.067
575.071
574.089
573.123
572.171
571.232
570.305
569.39
568.492
567.609
566.739
565.878
565.024
564.176
563.334
562.504
561.702
560.95
560.278
559.718
559.295
559.022
558.895
558.882
558.921
558.948
558.94
558.908
558.873
558.843
558.811
558.772
558.732
558.705
558.688
558.675
558.666
558.657
558.646
558.629
558.603
558.571
558.536
558.507
558.486
558.472
558.45
558.401
558.308
558.169
558
557.833
557.703
557.624
557.577
557.511
557.362
557.087
556.699
556.274
555.93
555.777
555.872
556.185
556.604
556.962
557.049
556.597
555.193
549.579
572.369
584.099
583.761
582.135
580.758
579.546
578.436
577.384
576.359
575.358
574.389
573.459
572.563
571.681
570.789
569.873
568.937
568.003
567.089
566.199
565.333
564.487
563.658
562.845
562.046
561.27
560.527
559.837
559.225
558.715
558.329
558.082
557.972
557.964
557.995
558.015
558.015
558.005
557.995
557.983
557.964
557.939
557.92
557.917
557.927
557.942
557.964
557.99
558.019
558.046
558.07
558.089
558.105
558.122
558.142
558.165
558.185
558.19
558.172
558.126
558.063
558.001
557.962
557.95
557.948
557.907
557.768
557.488
557.057
556.52
555.949
555.423
554.982
554.608
554.207
553.612
552.636
551.241
549.214
542.688
562.749
578.213
580.839
579.948
578.783
577.637
576.527
575.475
574.483
573.547
572.662
571.813
570.977
570.131
569.262
568.37
567.474
566.593
565.732
564.883
564.031
563.165
562.292
561.426
560.586
559.795
559.073
558.435
557.895
557.466
557.156
556.97
556.896
556.9
556.932
556.957
556.966
556.967
556.965
556.963
556.957
556.949
556.95
556.967
556.996
557.034
557.083
557.141
557.206
557.277
557.351
557.429
557.511
557.6
557.698
557.802
557.905
557.991
558.046
558.058
558.025
557.954
557.854
557.725
557.54
557.254
556.81
556.169
555.335
554.371
553.382
552.48
551.737
551.134
550.547
549.811
548.918
548.083
546.455
539.693
555.45
571.648
577.015
577.344
576.74
575.932
574.968
573.934
572.915
571.941
571.033
570.163
569.283
568.379
567.469
566.579
565.727
564.911
564.101
563.263
562.343
561.339
560.295
559.272
558.327
557.504
556.828
556.299
555.909
555.644
555.49
555.431
555.443
555.491
555.541
555.573
555.588
555.593
555.595
555.596
555.597
555.603
555.619
555.652
555.699
555.76
555.837
555.93
556.039
556.164
556.302
556.45
556.604
556.76
556.911
557.05
557.167
557.243
557.256
557.186
557.018
556.751
556.392
555.951
555.43
554.817
554.094
553.263
552.362
551.467
550.669
550.03
549.535
549.083
548.548
547.926
547.472
547.176
545.144
537.978
550.138
565.556
572.958
574.442
574.286
573.821
573.12
572.234
571.258
570.258
569.286
568.332
567.365
566.378
565.389
564.431
563.529
562.679
561.84
560.963
559.991
558.934
557.858
556.845
555.969
555.27
554.752
554.388
554.145
553.993
553.912
553.888
553.902
553.936
553.971
553.999
554.02
554.035
554.047
554.059
554.076
554.104
554.146
554.205
554.281
554.375
554.487
554.616
554.761
554.918
555.081
555.241
555.388
555.513
555.604
555.652
555.643
555.564
555.397
555.13
554.761
554.304
553.785
553.237
552.684
552.139
551.602
551.072
550.554
550.058
549.582
549.104
548.579
547.98
547.375
546.998
547.056
546.824
543.853
536.706
546.077
559.8
568.538
571.138
571.322
571.11
570.736
570.172
569.457
568.64
567.687
566.584
565.421
564.268
563.134
562.032
560.998
560.053
559.179
558.314
557.463
556.656
555.875
555.135
554.503
554.02
553.668
553.402
553.179
552.98
552.808
552.674
552.587
552.544
552.537
552.552
552.58
552.614
552.648
552.685
552.728
552.784
552.853
552.937
553.033
553.139
553.252
553.369
553.485
553.593
553.687
553.757
553.794
553.79
553.741
553.644
553.496
553.295
553.036
552.721
552.358
551.973
551.601
551.278
551.027
550.84
550.679
550.486
550.193
549.752
549.147
548.409
547.624
546.939
546.564
546.693
547.087
546.354
542.384
535.762
542.789
554.397
563.872
567.692
568.34
568.361
568.309
568.118
567.772
567.32
566.53
565.277
563.821
562.413
561.094
559.85
558.715
557.727
556.899
556.131
555.524
555.149
554.824
554.412
553.966
553.574
553.245
552.938
552.621
552.293
551.98
551.719
551.536
551.434
551.397
551.405
551.438
551.484
551.534
551.583
551.635
551.692
551.754
551.819
551.884
551.943
551.993
552.03
552.053
552.058
552.042
552.004
551.941
551.854
551.747
551.625
551.494
551.356
551.211
551.059
550.91
550.779
550.692
550.663
550.681
550.695
550.622
550.365
549.861
549.111
548.199
547.282
546.549
546.179
546.304
546.849
547.111
545.499
540.844
535.091
540.165
549.658
559.317
564.405
565.707
565.962
566.173
566.282
566.223
566.109
565.585
564.341
562.693
561.079
559.624
558.303
557.138
556.171
555.43
554.766
554.337
554.285
554.309
554.1
553.678
553.206
552.767
552.354
551.943
551.538
551.165
550.862
550.651
550.534
550.488
550.486
550.506
550.536
550.567
550.591
550.608
550.618
550.623
550.622
550.614
550.598
550.572
550.537
550.495
550.45
550.403
550.358
550.316
550.282
550.258
550.252
550.267
550.303
550.354
550.413
550.474
550.536
550.597
550.641
550.628
550.491
550.156
549.575
548.766
547.828
546.924
546.234
545.897
545.994
546.496
547.083
546.8
544.282
539.392
534.628
538.147
545.747
555.06
561.294
563.393
563.858
564.241
564.597
564.736
564.798
564.501
563.436
561.83
560.18
558.703
557.386
556.237
555.298
554.606
553.992
553.595
553.617
553.772
553.643
553.177
552.58
552.014
551.518
551.074
550.669
550.312
550.02
549.809
549.679
549.61
549.574
549.553
549.537
549.519
549.495
549.46
549.413
549.36
549.305
549.254
549.209
549.172
549.144
549.13
549.134
549.157
549.2
549.262
549.344
549.448
549.577
549.731
549.905
550.086
550.25
550.371
550.425
550.388
550.236
549.943
549.484
548.855
548.088
547.269
546.52
545.965
545.698
545.763
546.159
546.755
547.065
546.07
542.86
538.121
534.306
536.618
542.613
551.094
558.185
561.195
561.881
562.324
562.908
563.282
563.435
563.234
562.354
560.911
559.355
557.958
556.731
555.659
554.766
554.094
553.498
553.04
552.943
553.041
552.926
552.455
551.801
551.166
550.628
550.179
549.79
549.449
549.157
548.926
548.759
548.642
548.557
548.486
548.422
548.364
548.309
548.251
548.194
548.144
548.108
548.091
548.092
548.11
548.149
548.209
548.291
548.392
548.513
548.653
548.813
548.995
549.199
549.419
549.639
549.826
549.941
549.94
549.794
549.491
549.041
548.474
547.834
547.173
546.554
546.038
545.679
545.512
545.56
545.838
546.324
546.808
546.679
544.993
541.38
537.056
534.065
535.515
540.192
547.436
554.955
558.951
559.973
560.356
561.053
561.729
562.066
561.924
561.129
559.777
558.283
556.967
555.884
554.983
554.231
553.636
553.079
552.556
552.266
552.199
552.053
551.627
551.001
550.36
549.803
549.335
548.93
548.569
548.25
547.982
547.771
547.61
547.488
547.389
547.307
547.24
547.186
547.142
547.121
547.132
547.179
547.25
547.332
547.419
547.513
547.619
547.735
547.861
547.998
548.153
548.332
548.534
548.749
548.952
549.106
549.168
549.091
548.844
548.429
547.879
547.262
546.655
546.127
545.721
545.448
545.295
545.245
545.296
545.475
545.821
546.281
546.541
545.911
543.652
539.926
536.169
533.857
534.775
538.414
544.157
551.577
556.52
558.091
558.362
558.936
559.835
560.505
560.567
559.851
558.485
556.907
555.54
554.542
553.86
553.367
552.962
552.517
551.993
551.55
551.296
551.08
550.703
550.148
549.539
548.975
548.482
548.045
547.652
547.303
547.008
546.771
546.592
546.462
546.368
546.301
546.252
546.216
546.199
546.217
546.281
546.38
546.496
546.613
546.726
546.839
546.956
547.08
547.211
547.354
547.513
547.686
547.857
548.001
548.079
548.054
547.89
547.571
547.106
546.541
545.953
545.428
545.038
544.814
544.739
544.762
544.823
544.897
545.012
545.233
545.591
545.955
545.907
544.769
542.109
538.524
535.398
533.632
534.203
537.094
541.277
548.081
553.768
556.112
556.384
556.617
557.483
558.481
558.926
558.45
557.125
555.404
553.844
552.788
552.255
552.033
551.875
551.603
551.166
550.68
550.295
549.994
549.638
549.147
548.58
548.025
547.523
547.075
546.673
546.317
546.014
545.771
545.593
545.475
545.408
545.377
545.363
545.364
545.388
545.426
545.453
545.452
545.439
545.45
545.506
545.608
545.744
545.91
546.104
546.321
546.534
546.705
546.796
546.782
546.65
546.399
546.037
545.587
545.091
544.609
544.211
543.955
543.863
543.915
544.049
544.195
544.308
544.399
544.536
544.785
545.115
545.303
544.878
543.276
540.411
537.163
534.659
533.334
533.542
535.977
538.758
544.549
550.614
553.856
554.415
554.309
554.88
555.991
556.826
556.757
555.667
553.916
552.141
550.895
550.341
550.25
550.269
550.176
549.904
549.506
549.102
548.758
548.412
547.97
547.443
546.905
546.413
545.979
545.595
545.254
544.958
544.716
544.54
544.436
544.402
544.415
544.456
544.529
544.628
544.668
544.541
544.235
543.864
543.586
543.486
543.55
543.719
543.965
544.283
544.647
544.983
545.191
545.208
545.034
544.722
544.34
543.943
543.572
543.254
543.02
542.895
542.892
542.998
543.172
543.357
543.504
543.607
543.711
543.885
544.141
544.372
544.292
543.456
541.483
538.606
535.815
533.875
532.908
532.665
534.916
536.597
541.152
547.136
551.221
552.426
552.275
552.481
553.41
554.412
554.737
554.043
552.485
550.653
549.222
548.499
548.321
548.331
548.314
548.189
547.939
547.613
547.305
547.012
546.649
546.187
545.681
545.201
544.78
544.414
544.09
543.802
543.56
543.383
543.29
543.286
543.343
543.448
543.621
543.806
543.809
543.44
542.715
541.886
541.255
540.967
540.97
541.142
541.429
541.838
542.341
542.823
543.128
543.162
542.947
542.599
542.253
542.003
541.887
541.9
542.02
542.212
542.446
542.691
542.924
543.132
543.324
543.531
543.786
544.078
544.306
544.279
543.713
542.264
539.808
536.873
534.448
532.902
532.228
531.636
533.917
534.846
538.117
543.566
548.238
550.338
550.545
550.495
550.988
551.797
552.307
552.064
550.993
549.482
548.128
547.277
546.855
546.622
546.456
546.292
546.075
545.803
545.566
545.386
545.172
544.846
544.424
543.975
543.558
543.19
542.863
542.573
542.328
542.149
542.064
542.077
542.163
542.325
542.575
542.782
542.662
542.013
540.932
539.789
538.966
538.597
538.559
538.678
538.897
539.264
539.787
540.352
540.778
540.943
540.865
540.673
540.509
540.463
540.549
540.734
540.972
541.225
541.469
541.692
541.892
542.078
542.277
542.522
542.813
543.075
543.16
542.872
541.967
540.198
537.638
534.984
533.07
531.891
531.453
530.598
533.043
533.535
535.616
540.167
545.022
548.005
548.849
548.711
548.631
548.921
549.326
549.463
549.089
548.296
547.405
546.64
546.001
545.424
544.937
544.531
544.164
543.825
543.597
543.516
543.482
543.361
543.102
542.747
542.365
542.003
541.674
541.382
541.134
540.943
540.837
540.825
540.895
541.075
541.337
541.452
541.103
540.184
538.921
537.751
537.019
536.76
536.756
536.793
536.844
537.021
537.4
537.916
538.406
538.743
538.911
538.989
539.072
539.214
539.416
539.654
539.9
540.136
540.355
540.556
540.747
540.948
541.19
541.481
541.767
541.92
541.787
541.211
539.993
537.983
535.437
533.139
531.684
530.765
530.509
529.629
532.273
532.566
533.641
537.087
541.69
545.334
546.936
546.94
546.384
546.045
546.103
546.382
546.599
546.586
546.322
545.837
545.158
544.373
543.632
542.976
542.399
541.908
541.59
541.507
541.582
541.653
541.602
541.415
541.148
540.861
540.591
540.344
540.106
539.87
539.665
539.524
539.486
539.609
539.807
539.752
539.147
538.03
536.762
535.777
535.314
535.278
535.364
535.331
535.178
535.083
535.202
535.541
535.996
536.462
536.898
537.304
537.679
538.012
538.292
538.525
538.733
538.933
539.134
539.337
539.553
539.803
540.1
540.408
540.618
540.587
540.204
539.358
537.879
535.711
533.285
531.382
530.306
529.55
529.428
528.692
531.48
531.723
532.024
534.347
538.374
542.385
544.779
545.244
544.564
543.759
543.38
543.506
543.934
544.369
544.56
544.374
543.832
543.085
542.312
541.565
540.862
540.231
539.768
539.571
539.624
539.784
539.898
539.896
539.803
539.678
539.561
539.431
539.225
538.901
538.495
538.1
537.844
537.826
537.907
537.696
536.929
535.761
534.617
533.868
533.637
533.758
533.902
533.805
533.469
533.115
532.967
533.099
533.464
534.002
534.677
535.425
536.139
536.714
537.106
537.349
537.52
537.683
537.872
538.094
538.358
538.671
539.008
539.274
539.332
539.077
538.46
537.39
535.707
533.471
531.258
529.755
528.963
528.294
528.266
527.676
530.525
530.812
530.588
531.926
535.2
539.286
542.42
543.631
543.257
542.297
541.555
541.354
541.628
542.091
542.415
542.404
542.067
541.535
540.921
540.255
539.549
538.844
538.246
537.888
537.816
537.941
538.111
538.224
538.278
538.328
538.397
538.409
538.231
537.787
537.136
536.447
535.944
535.761
535.727
535.436
534.671
533.631
532.706
532.151
531.997
532.095
532.171
531.981
531.509
530.99
530.688
530.703
531.008
531.582
532.416
533.436
534.461
535.294
535.837
536.126
536.279
536.41
536.585
536.832
537.155
537.525
537.856
538.006
537.861
537.39
536.591
535.347
533.512
531.295
529.376
528.253
527.652
527.017
527.058
526.422
529.288
529.714
529.21
529.725
532.054
535.787
539.433
541.597
541.994
541.275
540.363
539.824
539.752
539.931
540.073
540.025
539.82
539.548
539.223
538.831
538.314
537.684
537.05
536.564
536.329
536.322
536.42
536.506
536.562
536.64
536.744
536.749
536.479
535.877
535.059
534.257
533.724
533.553
533.522
533.265
532.642
531.866
531.229
530.834
530.625
530.515
530.373
530.049
529.555
529.112
528.941
529.072
529.42
529.961
530.748
531.765
532.858
533.801
534.448
534.801
534.973
535.101
535.283
535.563
535.921
536.265
536.456
536.372
535.989
535.349
534.413
533.002
531.063
529.007
527.514
526.761
526.261
525.631
525.73
525.122
527.967
528.574
528.002
527.954
529.31
532.248
535.887
538.821
540.208
540.082
539.278
538.554
538.165
537.994
537.825
537.572
537.312
537.146
537.048
537.015
536.872
536.519
536.026
535.541
535.199
535.043
535.003
534.96
534.872
534.774
534.655
534.39
533.847
533.06
532.23
531.604
531.362
531.471
531.632
531.517
531.076
530.547
530.153
529.886
529.627
529.324
528.967
528.555
528.185
528.064
528.291
528.737
529.198
529.626
530.132
530.812
531.614
532.376
532.958
533.326
533.55
533.74
533.983
534.295
534.606
534.781
534.702
534.35
533.796
533.061
531.997
530.419
528.476
526.754
525.758
525.292
524.801
524.174
524.322
524.064
526.817
527.575
527.054
526.742
527.363
529.367
532.504
535.725
537.949
538.574
538.135
537.437
536.872
536.452
536.044
535.585
535.154
534.879
534.779
534.957
535.164
535.164
534.947
534.614
534.289
534.061
533.916
533.755
533.502
533.152
532.687
532.025
531.131
530.15
529.351
528.967
529.081
529.534
529.967
530.067
529.822
529.477
529.235
529.073
528.863
528.548
528.149
527.746
527.531
527.717
528.306
529.029
529.586
529.901
530.117
530.398
530.783
531.2
531.565
531.853
532.105
532.378
532.695
533.004
533.189
533.137
532.828
532.342
531.752
530.962
529.742
528.035
526.225
524.926
524.347
524.017
523.471
522.864
523.049
523.134
525.724
526.599
526.169
525.786
525.958
527.134
529.513
532.568
535.311
536.686
536.802
536.328
535.722
535.155
534.615
534.047
533.469
532.991
532.685
532.821
533.174
533.425
533.497
533.422
533.267
533.108
532.957
532.729
532.332
531.734
530.933
529.909
528.716
527.564
526.753
526.498
526.818
527.494
528.155
528.503
528.511
528.378
528.284
528.239
528.163
528
527.724
527.398
527.24
527.5
528.18
528.982
529.571
529.843
529.92
529.96
530.031
530.124
530.23
530.372
530.59
530.889
531.213
531.445
531.473
531.265
530.899
530.467
529.927
529.055
527.661
525.911
524.36
523.492
523.196
522.872
522.256
521.693
521.9
522.177
524.582
525.574
525.252
524.91
524.881
525.46
527.05
529.61
532.491
534.461
535.221
535.149
534.646
534.012
533.401
532.803
532.169
531.536
530.971
530.879
531.134
531.431
531.68
531.875
532
532.052
531.994
531.729
531.177
530.34
529.276
528.037
526.713
525.511
524.705
524.491
524.865
525.602
526.373
526.924
527.207
527.339
527.434
527.521
527.594
527.625
527.542
527.316
527.111
527.202
527.683
528.347
528.894
529.185
529.27
529.247
529.171
529.067
528.986
528.998
529.141
529.375
529.587
529.657
529.54
529.302
529.048
528.769
528.26
527.254
525.725
524.07
522.873
522.38
522.224
521.828
521.16
520.662
520.88
521.144
523.407
524.541
524.348
524.089
524.019
524.244
525.164
527.07
529.737
532.033
533.391
533.842
533.593
532.981
532.315
531.701
531.078
530.404
529.678
529.343
529.376
529.539
529.796
530.153
530.535
530.821
530.875
530.565
529.853
528.832
527.654
526.425
525.223
524.177
523.491
523.324
523.668
524.33
525.052
525.66
526.117
526.467
526.737
526.935
527.097
527.253
527.324
527.2
526.939
526.791
526.951
527.363
527.81
528.125
528.27
528.277
528.186
528.043
527.923
527.896
527.968
528.065
528.073
527.938
527.718
527.534
527.426
527.226
526.63
525.451
523.889
522.475
521.676
521.468
521.344
520.858
520.181
519.77
519.989
520.101
522.299
523.603
523.553
523.373
523.329
523.384
523.822
525.074
527.278
529.588
531.362
532.353
532.494
532.022
531.335
530.683
530.079
529.453
528.717
528.259
528.103
528.069
528.189
528.524
528.98
529.357
529.43
529.051
528.242
527.194
526.135
525.184
524.355
523.667
523.22
523.123
523.378
523.85
524.366
524.838
525.267
525.666
526
526.231
526.399
526.57
526.706
526.674
526.438
526.169
526.093
526.276
526.6
526.901
527.088
527.155
527.138
527.093
527.071
527.09
527.108
527.04
526.833
526.538
526.285
526.168
526.098
525.787
524.957
523.61
522.132
521.053
520.626
520.601
520.449
519.902
519.272
518.969
519.2
519.166
521.367
522.849
522.94
522.804
522.784
522.779
522.923
523.628
525.254
527.295
529.224
530.658
531.272
531.089
530.471
529.781
529.165
528.6
527.954
527.516
527.289
527.106
527.025
527.156
527.443
527.677
527.628
527.174
526.398
525.541
524.835
524.355
524.032
523.778
523.596
523.548
523.661
523.872
524.093
524.297
524.518
524.772
525.015
525.185
525.294
525.408
525.533
525.572
525.448
525.234
525.102
525.162
525.376
525.626
525.827
525.968
526.084
526.207
526.329
526.398
526.34
526.115
525.771
525.438
525.242
525.162
524.978
524.385
523.252
521.797
520.498
519.762
519.612
519.66
519.447
518.879
518.348
518.173
518.446
518.441
520.667
522.301
522.505
522.367
522.333
522.31
522.304
522.614
523.668
525.255
527.076
528.78
529.871
530.108
529.693
529.011
528.346
527.79
527.238
526.892
526.705
526.463
526.193
526.027
525.969
525.885
525.618
525.118
524.5
523.982
523.727
523.73
523.851
523.944
523.956
523.923
523.896
523.878
523.841
523.783
523.742
523.753
523.804
523.85
523.88
523.926
524.011
524.092
524.101
524.036
523.977
524.007
524.139
524.325
524.526
524.747
525.006
525.278
525.482
525.521
525.343
525.001
524.642
524.414
524.345
524.262
523.869
522.949
521.58
520.138
519.079
518.626
518.62
518.634
518.33
517.764
517.35
517.303
517.647
517.961
520.175
521.906
522.18
521.993
521.903
521.865
521.801
521.868
522.445
523.519
525.039
526.811
528.29
528.998
528.897
528.295
527.564
526.943
526.421
526.162
526.066
525.845
525.446
524.99
524.553
524.118
523.645
523.152
522.742
522.552
522.64
522.934
523.277
523.533
523.65
523.655
523.599
523.504
523.36
523.162
522.937
522.736
522.594
522.51
522.471
522.477
522.534
522.632
522.73
522.789
522.814
522.843
522.91
523.03
523.218
523.493
523.833
524.154
524.322
524.243
523.939
523.564
523.314
523.279
523.342
523.209
522.597
521.446
520.017
518.742
517.962
517.714
517.733
517.633
517.21
516.638
516.321
516.37
516.781
517.66
519.787
521.552
521.851
521.591
521.42
521.358
521.288
521.238
521.484
522.1
523.225
524.869
526.555
527.656
527.893
527.427
526.649
525.928
525.381
525.174
525.175
525.018
524.556
523.887
523.156
522.466
521.881
521.448
521.212
521.201
521.387
521.683
521.988
522.24
522.431
522.573
522.671
522.706
522.643
522.461
522.183
521.871
521.602
521.424
521.342
521.335
521.39
521.493
521.618
521.718
521.766
521.771
521.773
521.821
521.96
522.205
522.501
522.73
522.762
522.554
522.208
521.927
521.876
522.032
522.152
521.91
521.125
519.91
518.627
517.655
517.174
517.075
517.058
516.813
516.266
515.672
515.407
515.495
515.924
517.425
519.391
521.14
521.443
521.115
520.867
520.78
520.727
520.652
520.716
520.992
521.714
523.065
524.712
526.005
526.497
526.189
525.429
524.656
524.092
523.93
524.02
523.941
523.466
522.676
521.779
520.975
520.388
520.045
519.901
519.886
519.934
520.004
520.108
520.288
520.584
520.973
521.381
521.701
521.848
521.791
521.56
521.235
520.919
520.693
520.584
520.576
520.639
520.745
520.86
520.942
520.96
520.917
520.85
520.811
520.839
520.935
521.04
521.059
520.926
520.67
520.431
520.376
520.557
520.824
520.88
520.472
519.579
518.451
517.458
516.858
516.669
516.692
516.634
516.27
515.628
515.015
514.767
514.844
515.216
517.144
518.91
520.623
520.938
520.573
520.272
520.17
520.143
520.092
520.088
520.15
520.51
521.45
522.811
524.038
524.639
524.493
523.856
523.156
522.665
522.581
522.756
522.746
522.282
521.441
520.485
519.677
519.157
518.9
518.774
518.642
518.445
518.229
518.12
518.256
518.695
519.368
520.111
520.736
521.116
521.215
521.078
520.801
520.497
520.26
520.135
520.119
520.182
520.286
520.385
520.438
520.421
520.336
520.207
520.063
519.919
519.766
519.579
519.343
519.088
518.907
518.915
519.159
519.538
519.802
519.686
519.084
518.145
517.196
516.541
516.293
516.349
516.469
516.394
515.967
515.289
514.69
514.453
514.498
514.759
516.782
518.349
520.028
520.382
520.02
519.697
519.587
519.579
519.563
519.551
519.495
519.552
520.031
520.934
521.885
522.458
522.477
522.084
521.618
521.318
521.364
521.619
521.654
521.201
520.348
519.397
518.638
518.198
517.999
517.849
517.591
517.197
516.79
516.576
516.73
517.299
518.169
519.124
519.939
520.473
520.697
520.663
520.469
520.22
520.005
519.873
519.839
519.886
519.977
520.066
520.11
520.084
519.981
519.801
519.541
519.194
518.763
518.283
517.838
517.553
517.544
517.848
518.362
518.84
518.996
518.657
517.888
516.965
516.222
515.862
515.875
516.092
516.271
516.19
515.746
515.091
514.554
514.354
514.38
514.526
516.359
517.751
519.41
519.832
519.504
519.178
519.062
519.059
519.06
519.05
518.925
518.746
518.793
519.193
519.774
520.249
520.443
520.388
520.279
520.263
520.47
520.785
520.835
520.384
519.544
518.631
517.934
517.553
517.376
517.197
516.873
516.414
515.979
515.785
515.991
516.609
517.504
518.461
519.278
519.841
520.13
520.19
520.101
519.942
519.781
519.663
519.615
519.639
519.712
519.795
519.844
519.824
519.711
519.478
519.101
518.571
517.919
517.248
516.719
516.502
516.693
517.23
517.882
518.324
518.3
517.759
516.898
516.053
515.506
515.355
515.512
515.793
515.977
515.874
515.43
514.831
514.389
514.255
514.293
514.364
515.921
517.165
518.813
519.319
519.042
518.719
518.591
518.574
518.563
518.537
518.362
518.018
517.734
517.713
517.957
518.335
518.707
519.012
519.299
519.591
519.952
520.299
520.336
519.886
519.081
518.233
517.602
517.256
517.076
516.877
516.555
516.148
515.807
515.704
515.941
516.495
517.241
518.007
518.658
519.135
519.428
519.56
519.58
519.534
519.458
519.384
519.347
519.364
519.429
519.508
519.556
519.526
519.376
519.068
518.58
517.925
517.175
516.474
516.009
515.936
516.286
516.913
517.523
517.8
517.568
516.893
516.043
515.331
514.955
514.927
515.13
515.393
515.526
515.371
514.915
514.373
514.03
513.974
514.044
514.098
515.498
516.613
518.253
518.847
518.623
518.3
518.151
518.105
518.059
517.994
517.778
517.343
516.864
516.578
516.598
516.915
517.435
518.047
518.677
519.234
519.718
520.071
520.083
519.645
518.905
518.151
517.597
517.278
517.084
516.872
516.585
516.274
516.055
516.036
516.251
516.654
517.148
517.623
518.026
518.352
518.6
518.765
518.867
518.93
518.956
518.96
518.973
519.022
519.104
519.186
519.215
519.133
518.895
518.476
517.888
517.184
516.472
515.899
515.619
515.717
516.145
516.703
517.112
517.134
516.71
515.987
515.237
514.698
514.468
514.508
514.701
514.905
514.955
514.722
514.233
513.729
513.463
513.468
513.569
513.644
515.082
516.077
517.705
518.381
518.211
517.882
517.705
517.62
517.525
517.409
517.162
516.702
516.164
515.775
515.694
515.977
516.578
517.375
518.23
518.97
519.539
519.891
519.894
519.497
518.859
518.228
517.766
517.477
517.265
517.033
516.764
516.515
516.369
516.372
516.515
516.74
516.983
517.187
517.36
517.534
517.706
517.85
517.981
518.111
518.226
518.321
518.417
518.532
518.656
518.747
518.738
518.57
518.208
517.666
517.008
516.335
515.768
515.425
515.381
515.622
516.029
516.394
516.505
516.248
515.677
514.984
514.392
514.04
513.942
514.029
514.204
514.348
514.315
514
513.477
512.997
512.782
512.819
512.93
513.03
514.731
515.627
517.243
517.985
517.856
517.521
517.319
517.202
517.067
516.909
516.647
516.208
515.697
515.312
515.208
515.465
516.078
516.95
517.922
518.776
519.403
519.761
519.768
519.422
518.887
518.378
518.01
517.758
517.534
517.276
516.997
516.76
516.623
516.601
516.658
516.737
516.799
516.814
516.825
516.884
516.976
517.063
517.166
517.317
517.498
517.688
517.887
518.098
518.291
518.402
518.351
518.076
517.572
516.901
516.186
515.572
515.184
515.088
515.268
515.615
515.952
516.085
515.896
515.395
514.729
514.103
513.675
513.49
513.502
513.633
513.804
513.912
513.814
513.432
512.873
512.403
512.208
512.246
512.343
512.449
514.128
514.896
516.474
517.318
517.269
516.928
516.68
516.51
516.314
516.094
515.818
515.442
515.045
514.761
514.679
514.853
515.322
516.066
516.983
517.862
518.548
518.977
519.089
518.9
518.555
518.221
517.963
517.737
517.467
517.124
516.747
516.408
516.165
516.03
515.972
515.95
515.934
515.913
515.915
515.936
515.93
515.89
515.872
515.936
516.093
516.321
516.583
516.844
517.053
517.139
517.027
516.675
516.111
515.447
514.841
514.443
514.338
514.508
514.835
515.133
515.218
514.976
514.427
513.714
513.039
512.564
512.351
512.359
512.516
512.752
512.998
513.136
513.029
512.643
512.133
511.747
511.606
511.638
511.698
511.776
)
;
    }
    outlet
    {
        type            calculated;
        value           nonuniform List<scalar> 
3200
(
619.474
619.36
615.145
612.176
609.57
606.809
603.502
599.699
596.578
595.05
595.101
597
599.432
595.95
592.14
591.986
593.321
592.219
588.299
584.614
582.197
580.994
580.799
580.102
578.472
576.161
573.671
571.334
569.286
567.763
566.881
566.687
567.306
568.474
569.318
569.658
569.56
569.171
568.753
568.538
568.619
569.019
569.648
570.07
569.936
569.275
568.36
567.442
566.726
566.399
566.506
567.048
568.008
569.589
572.02
574.363
575.224
575.505
575.692
575.813
575.859
575.857
575.837
575.835
575.878
575.98
576.13
576.282
576.363
576.312
576.129
575.846
575.538
575.313
575.265
575.45
575.844
576.431
577.474
577.9
600.683
613.113
611.578
608.924
606.43
603.829
600.86
597.584
594.888
593.501
593.455
594.909
596.701
594.101
590.927
590.29
590.916
590.025
586.808
583.482
581.14
579.813
579.31
578.501
576.933
574.742
572.344
570.058
568.069
566.591
565.724
565.495
565.958
566.93
567.724
568.1
568.081
567.786
567.438
567.243
567.298
567.637
568.173
568.556
568.439
567.802
566.88
565.944
565.212
564.87
564.969
565.51
566.473
567.969
570.118
572.166
573.047
573.364
573.533
573.625
573.649
573.624
573.583
573.565
573.602
573.711
573.87
574.024
574.097
574.029
573.826
573.538
573.257
573.087
573.074
573.146
573.155
573.113
572.618
567.322
586.215
605.196
607.642
606.256
604.307
601.986
599.285
596.356
593.864
592.421
592.094
593.032
594.25
592.283
589.686
588.713
588.733
587.915
585.35
582.442
580.21
578.749
577.933
576.979
575.478
573.455
571.223
569.057
567.162
565.725
564.834
564.514
564.783
565.512
566.213
566.622
566.711
566.553
566.315
566.16
566.181
566.424
566.829
567.146
567.077
566.558
565.754
564.912
564.252
563.944
564.044
564.553
565.47
566.854
568.759
570.572
571.492
571.898
572.102
572.204
572.226
572.194
572.137
572.097
572.107
572.184
572.315
572.453
572.531
572.499
572.355
572.123
571.842
571.524
571.112
570.548
569.976
569.662
568.093
560.359
575.978
596.787
602.504
602.573
601.514
599.832
597.559
594.935
592.575
591.123
590.562
591.017
591.722
590.117
587.999
586.948
586.61
585.743
583.566
580.966
578.902
577.472
576.519
575.479
574.027
572.139
570.047
567.992
566.173
564.754
563.827
563.427
563.564
564.126
564.743
565.16
565.311
565.237
565.063
564.925
564.916
565.094
565.421
565.711
565.714
565.342
564.704
564.006
563.442
563.161
563.226
563.665
564.513
565.803
567.527
569.17
570.118
570.614
570.889
571.041
571.096
571.076
571.015
570.959
570.953
571.025
571.167
571.334
571.452
571.445
571.259
570.864
570.246
569.414
568.433
567.548
567.19
567.074
564.286
555.639
568.791
589.089
597.208
598.435
598.017
596.953
595.245
593.127
591.131
589.884
589.103
588.945
589.11
587.776
586.073
585.003
584.367
583.372
581.449
579.112
577.286
576.043
575.104
574.035
572.63
570.857
568.891
566.939
565.188
563.787
562.831
562.365
562.386
562.791
563.29
563.655
563.802
563.747
563.595
563.473
563.477
563.663
563.992
564.305
564.387
564.143
563.64
563.048
562.539
562.255
562.279
562.674
563.489
564.707
566.275
567.779
568.742
569.31
569.655
569.874
569.99
570.019
569.994
569.967
569.993
570.101
570.276
570.448
570.504
570.327
569.834
569.009
567.915
566.707
565.671
565.226
565.494
565.095
560.778
552.298
563.506
582.157
592.034
594.256
594.116
593.39
592.176
590.674
589.282
588.471
587.593
586.835
586.506
585.383
583.992
582.863
581.941
580.823
579.14
577.108
575.559
574.553
573.692
572.615
571.239
569.554
567.685
565.811
564.114
562.742
561.789
561.291
561.223
561.476
561.826
562.086
562.181
562.118
561.991
561.924
562.001
562.254
562.625
562.966
563.094
562.922
562.492
561.948
561.458
561.171
561.195
561.605
562.419
563.565
564.982
566.367
567.332
567.945
568.341
568.621
568.811
568.92
568.975
569.019