/*--------------------------------*- C++ -*----------------------------------*\
| =========                 |                                                 |
| \\      /  F ield         | OpenFOAM: The Open Source CFD Toolbox           |
|  \\    /   O peration     | Version:  v2012                                 |
|   \\  /    A nd           | Website:  www.openfoam.com                      |
|    \\/     M anipulation  |                                                 |
\*---------------------------------------------------------------------------*/
FoamFile
{
    version     2.0;
    format      ascii;
    class       volScalarField;
    location    "350/air";
    object      qr;
}
// * * * * * * * * * * * * * * * * * * * * * * * * * * * * * * * * * * * * * //

dimensions      [1 0 -3 0 0 0 0];


internalField   uniform 0;

boundaryField
{
    inlet
    {
        type            calculated;
        value           nonuniform List<scalar> 
3200
(
73.6329
77.7807
76.0896
74.7889
73.7005
72.6586
71.629
70.604
69.5818
68.5645
67.556
66.5597
65.5778
64.6116
63.6601
62.721
61.7934
60.8791
59.9807
59.0979
58.2278
57.367
56.5129
55.6642
54.8222
53.9931
53.1906
52.4382
51.7666
51.2071
50.7841
50.5108
50.3837
50.3707
50.4094
50.437
50.4283
50.3964
50.3619
50.3318
50.2998
50.2602
50.2212
50.1936
50.1767
50.1641
50.1547
50.1461
50.1349
50.1176
50.0921
50.0595
50.0249
49.9953
49.9749
49.9604
49.9384
49.8894
49.7969
49.6579
49.4889
49.3222
49.1916
49.1124
49.0659
49.0001
48.8505
48.5756
48.1877
47.763
47.4185
47.2657
47.3604
47.6732
48.0929
48.4509
48.5375
48.0855
46.6814
41.0672
63.8575
75.5873
75.2496
73.6241
72.2463
71.0344
69.9251
68.8727
67.8477
66.8467
65.8779
64.948
64.0516
63.1696
62.2778
61.3613
60.4257
59.4916
58.5772
57.6877
56.8219
55.9761
55.1472
54.3332
53.5351
52.7585
52.0157
51.326
50.7139
50.2038
49.8173
49.5702
49.4605
49.4524
49.4834
49.504
49.5036
49.4941
49.4835
49.4716
49.453
49.4276
49.4084
49.4059
49.4153
49.4305
49.4524
49.479
49.5074
49.5347
49.5583
49.5773
49.5934
49.6102
49.6306
49.6538
49.6735
49.679
49.6602
49.6147
49.5515
49.49
49.4505
49.4391
49.4362
49.3952
49.257
48.9763
48.5462
48.0082
47.4378
46.9116
46.4711
46.0967
45.6955
45.1011
44.125
42.7293
40.703
34.177
54.2378
69.7018
72.3272
71.4371
70.2715
69.1255
68.016
66.9635
65.9714
65.0355
64.1506
63.3021
62.4659
61.6198
60.7502
59.859
58.963
58.0814
57.2207
56.3722
55.5194
54.654
53.7811
52.9145
52.0744
51.2834
50.5613
49.9237
49.3841
48.9544
48.6446
48.4585
48.3846
48.3882
48.4205
48.4453
48.4544
48.4553
48.4539
48.4513
48.4453
48.4377
48.4387
48.4554
48.4847
48.5231
48.5716
48.6293
48.6944
48.7653
48.84
48.9179
49.0001
49.0891
49.1867
49.2909
49.3933
49.48
49.5349
49.5467
49.5134
49.4425
49.3432
49.2134
49.0292
48.7431
48.2989
47.6576
46.8241
45.8598
44.8704
43.9691
43.2262
42.6231
42.0361
41.2994
40.4068
39.5718
37.9432
31.1819
46.9384
63.1369
68.5036
68.8324
68.2283
67.4211
66.4565
65.4231
64.4032
63.4295
62.5221
61.6519
60.772
59.8681
58.9575
58.0673
57.2157
56.3993
55.59
54.7517
53.8321
52.8275
51.7839
50.761
49.8155
48.9927
48.3162
47.7881
47.398
47.1327
46.9787
46.92
46.9319
46.9799
47.0293
47.0614
47.0762
47.0815
47.0833
47.0845
47.086
47.0914
47.108
47.1406
47.1878
47.249
47.3259
47.4188
47.5278
47.6523
47.7906
47.9389
48.0931
48.2484
48.3994
48.5389
48.6552
48.7312
48.7449
48.675
48.5071
48.2394
47.8804
47.4401
46.9192
46.3053
45.5823
44.7515
43.8503
42.9553
42.1576
41.5183
41.0233
40.572
40.0363
39.4152
38.9605
38.6648
36.6329
29.4664
41.6263
57.0442
64.4468
65.9311
65.7745
65.3098
64.6091
63.7224
62.7468
61.747
60.775
59.8209
58.8538
57.8665
56.8774
55.9196
55.0178
54.1673
53.3291
52.452
51.4794
50.4225
49.3469
48.334
47.4574
46.7589
46.2406
45.877
45.6337
45.4816
45.401
45.3767
45.3912
45.4243
45.4592
45.4876
45.5083
45.5233
45.5352
45.5477
45.565
45.5922
45.6342
45.6934
45.7697
45.8637
45.9757
46.1049
46.2497
46.4066
46.5693
46.7295
46.8771
47.0017
47.0931
47.1407
47.1322
47.0525
46.8856
46.6188
46.2501
45.793
45.2742
44.7257
44.1731
43.6281
43.0911
42.5611
42.043
41.5462
41.0707
40.5925
40.0677
39.4687
38.8635
38.4871
38.5444
38.313
35.3414
28.1942
37.5662
51.2886
60.0264
62.6262
62.8111
62.5991
62.2249
61.6611
60.9461
60.1291
59.1756
58.0726
56.9098
55.757
54.6224
53.5204
52.487
51.5416
50.6678
49.8024
48.9513
48.1446
47.3638
46.6239
45.9919
45.5085
45.157
44.8907
44.6679
44.469
44.2964
44.1625
44.0756
44.0331
44.0252
44.0405
44.0688
44.1023
44.1369
44.1736
44.217
44.2722
44.3421
44.426
44.5221
44.6281
44.741
44.8575
44.9732
45.0819
45.1758
45.2456
45.2824
45.2786
45.2295
45.1323
44.9848
44.7836
44.5251
44.2095
43.8469
43.4616
43.0896
42.7671
42.5157
42.3286
42.1681
41.9742
41.6818
41.2411
40.6361
39.898
39.1129
38.4276
38.0528
38.1814
38.5761
37.8422
33.8722
27.2504
34.278
45.8856
55.3609
59.1808
59.8285
59.8495
59.7976
59.6064
59.2605
58.8087
58.0183
56.7659
55.3096
53.9018
52.5832
51.3389
50.2033
49.2159
48.3879
47.6194
47.0125
46.6374
46.3127
45.9007
45.4548
45.0626
44.7335
44.427
44.11
43.7814
43.4684
43.2078
43.0246
42.9223
42.8858
42.8935
42.9269
42.9728
43.0223
43.072
43.1236
43.1802
43.2424
43.3079
43.3725
43.4316
43.4813
43.5187
43.5412
43.5462
43.5308
43.4924
43.4292
43.3424
43.2353
43.1138
42.9827
42.8447
42.6995
42.5481
42.3982
42.2679
42.1808
42.1519
42.1698
42.1841
42.1102
41.8539
41.3499
40.5993
39.6874
38.7705
38.0373
37.6681
37.7929
38.3373
38.5997
36.9872
32.3328
26.5794
31.6541
41.1466
50.8059
55.894
57.1958
57.4511
57.6613
57.7705
57.7115
57.5982
57.0739
55.8294
54.1816
52.5672
51.1126
49.7919
48.6265
47.6599
46.9191
46.2545
45.8261
45.7737
45.7978
45.5889
45.1663
44.6944
44.2557
43.8424
43.4318
43.0262
42.6537
42.3503
42.14
42.0227
41.977
41.9749
41.9951
42.025
42.0553
42.0798
42.0969
42.1071
42.1116
42.1107
42.1032
42.0869
42.0609
42.0259
41.9841
41.9384
41.8918
41.8467
41.8051
41.7704
41.7471
41.741
41.7558
41.7914
41.8424
41.9013
41.9625
42.0248
42.0856
42.1296
42.1164
41.9794
41.6443
41.0636
40.2545
39.3165
38.413
37.7223
37.386
37.4822
37.9851
38.572
38.2883
35.7709
30.8803
26.1171
29.6357
37.2355
46.5489
52.7825
54.8814
55.3468
55.7295
56.0859
56.2243
56.2865
55.9893
54.9251
53.3184
51.6685
50.1912
48.8745
47.726
46.7863
46.0944
45.4807
45.0833
45.1059
45.2606
45.1317
44.6654
44.0685
43.5031
43.0067
42.5624
42.1579
41.8002
41.5083
41.2977
41.1675
41.0982
41.063
41.042
41.0256
41.0079
40.9833
40.9482
40.9021
40.8488
40.7942
40.743
40.6978
40.6602
40.6329
40.6191
40.6224
40.6452
40.6882
40.7508
40.833
40.9368
41.0653
41.2195
41.3941
41.5745
41.7384
41.8596
41.9133
41.8763
41.7247
41.4318
40.9731
40.3435
39.5769
38.7578
38.0083
37.4536
37.1862
37.2519
37.6473
38.244
38.5539
37.5585
34.3484
29.6093
25.7943
28.1063
34.1016
42.5827
49.6737
52.6834
53.3701
53.8131
54.3962
54.7703
54.9235
54.7222
53.8431
52.3993
50.8437
49.4468
48.2201
47.1482
46.2543
45.5827
44.9862
44.5288
44.4316
44.5299
44.4151
43.9435
43.2893
42.6544
42.1171
41.6678
41.279
40.9374
40.6461
40.4151
40.2472
40.1308
40.0455
39.9745
39.9109
39.853
39.7973
39.7398
39.6824
39.6323
39.597
39.5796
39.5802
39.599
39.6377
39.6977
39.7794
39.8811
40.002
40.1416
40.3015
40.4834
40.6877
40.908
41.1274
41.3148
41.4295
41.4291
41.2828
40.9792
40.5294
39.9628
39.3226
38.6622
38.0426
37.5266
37.1674
37.0006
37.0482
37.3269
37.8124
38.2972
38.168
36.4817
32.8691
28.545
25.5539
27.0037
31.6803
38.9248
46.4438
50.4396
51.4619
51.8442
52.5415
53.2175
53.5545
53.4129
52.6173
51.2657
49.7713
48.456
47.3724
46.4713
45.7199
45.1244
44.5678
44.0449
43.7545
43.6873
43.542
43.1156
42.4902
41.8486
41.2913
40.8239
40.4188
40.0576
39.7391
39.4711
39.2593
39.0991
38.9766
38.8773
38.7952
38.7289
38.6743
38.631
38.6092
38.6211
38.6679
38.7386
38.8203
38.9074
39.0021
39.1078
39.2241
39.3494
39.4863
39.6412
39.8205
40.023
40.2377
40.4403
40.595
40.6563
40.5792
40.3331
39.9175
39.368
38.7508
38.1439
37.6159
37.2094
36.9362
36.7841
36.7341
36.7842
36.9639
37.3099
37.7696
38.0298
37.3993
35.1405
31.4147
27.658
25.346
26.2635
29.9028
35.6458
43.0653
48.0091
49.5792
49.8507
50.4249
51.3235
51.9933
52.0554
51.3393
49.9735
48.3955
47.0283
46.0303
45.3482
44.8557
44.4503
44.0059
43.4814
43.0385
42.7845
42.5686
42.1916
41.6369
41.0272
40.4635
39.9704
39.5335
39.1403
38.7919
38.4963
38.2595
38.0808
37.9509
37.8568
37.7893
37.7407
37.7046
37.6875
37.7061
37.7692
37.8682
37.9843
38.1014
38.2144
38.3274
38.4449
38.5688
38.7001
38.8429
39.0018
39.1745
39.346
39.4893
39.5677
39.5424
39.3789
39.0597
38.5947
38.0301
37.4417
36.9172
36.5271
36.3029
36.2279
36.2502
36.312
36.3861
36.5005
36.7213
37.0793
37.444
37.396
36.2573
33.5975
30.0127
26.8864
25.1211
25.6921
28.5825
32.7655
39.5693
45.2568
47.6007
47.8729
48.1058
48.9715
49.9693
50.4144
49.9387
48.6138
46.893
45.3326
44.2771
43.7437
43.522
43.3635
43.092
42.6545
42.1685
41.7833
41.4832
41.1267
40.6362
40.0688
39.5135
39.0118
38.5637
38.1613
37.8052
37.5022
37.2596
37.0812
36.9634
36.8965
36.8653
36.8519
36.8528
36.8762
36.9148
36.9415
36.9405
36.928
36.9383
36.9943
37.0962
37.2329
37.3986
37.5932
37.8094
38.0222
38.1933
38.2846
38.2703
38.1382
37.8874
37.5258
37.0762
36.5797
36.0979
35.7001
35.4437
35.3519
35.4032
35.5376
35.6839
35.7965
35.8879
36.0248
36.2734
36.604
36.7922
36.3664
34.7643
31.9001
28.6514
26.1479
24.8225
25.0306
27.4661
30.2471
36.038
42.1029
45.3446
45.9033
45.7979
46.3688
47.4794
48.3148
48.2461
47.1559
45.4049
43.6299
42.384
41.8292
41.7383
41.7579
41.6646
41.3922
40.9949
40.5909
40.247
39.9002
39.4582
38.9314
38.3937
37.9014
37.4675
37.0835
36.7425
36.4464
36.2045
36.0282
35.9243
35.8903
35.9041
35.9443
36.0182
36.1171
36.1568
36.03
35.7237
35.3527
35.0745
34.9751
35.0384
35.2079
35.4535
35.7714
36.1361
36.4713
36.6797
36.6967
36.5231
36.2109
35.8287
35.4322
35.0604
34.7428
34.5086
34.3836
34.3806
34.4867
34.6611
34.8456
34.9927
35.0952
35.2
35.3734
35.6301
35.8603
35.7812
34.9446
32.9719
30.0946
27.3038
25.3634
24.3963
24.1534
26.4048
28.0853
32.6405
38.6249
42.7093
43.9151
43.7639
43.9699
44.899
45.9011
46.2258
45.5313
43.9735
42.1417
40.7103
39.9881
39.8093
39.8194
39.8024
39.6781
39.4276
39.1012
38.7934
38.5012
38.1373
37.6752
37.1695
36.6899
36.2689
35.9031
35.5788
35.2906
35.0487
34.8718
34.779
34.7744
34.8315
34.9368
35.1094
35.2943
35.2976
34.9284
34.2037
33.3745
32.7438
32.4561
32.4583
32.6308
32.918
33.3262
33.8294
34.3116
34.6169
34.6502
34.4356
34.088
33.742
33.4916
33.3753
33.3891
33.5084
33.7009
33.9346
34.1796
34.4124
34.6207
34.8128
35.0198
35.2752
35.5663
35.7945
35.7678
35.2014
33.7528
31.2963
28.3613
25.9368
24.3905
23.7162
23.1245
25.4061
26.3344
29.6059
35.0544
39.7265
41.8262
42.0336
41.9837
42.4768
43.2855
43.7953
43.553
42.4816
40.9703
39.6165
38.7652
38.3439
38.1111
37.9445
37.7811
37.5639
37.2914
37.0542
36.8749
36.6604
36.3348
35.9123
35.4638
35.0468
34.6786
34.3521
34.0613
33.8163
33.6377
33.5524
33.566
33.6513
33.8132
34.0636
34.2705
34.1506
33.5014
32.4203
31.2779
30.455
30.0854
30.0477
30.1664
30.3859
30.7525
31.2754
31.8407
32.2663
32.4313
32.354
32.1612
31.9979
31.9518
32.0379
32.2227
32.4606
32.7134
32.9578
33.1811
33.3808
33.5663
33.7653
34.0103
34.3015
34.5637
34.6482
34.3605
33.4557
31.6869
29.1266
26.4725
24.5584
23.38
22.942
22.0867
24.5322
25.0239
27.105
31.6558
36.5104
39.4935
40.338
40.1993
40.1193
40.4092
40.8146
40.9512
40.5773
39.785
38.8935
38.1286
37.49
36.9132
36.4259
36.0201
35.6529
35.3134
35.0859
35.0047
34.9703
34.8496
34.5903
34.2352
33.854
33.4914
33.1628
32.8711
32.623
32.4316
32.3254
32.3135
32.3836
32.5635
32.8261
32.9405
32.5922
31.6724
30.4098
29.2397
28.5081
28.249
28.2448
28.282
28.3331
28.5098
28.889
29.4043
29.8947
30.2316
30.4
30.478
30.561
30.7023
30.9047
31.1424
31.3882
31.6243
31.8437
32.045
32.2359
32.4368
32.6785
32.9695
33.2553
33.4085
33.2755
32.6992
31.4818
29.4712
26.9257
24.628
23.1727
22.2538
21.9981
21.1181
23.7621
24.0548
25.1298
28.5759
33.179
36.8223
38.4245
38.4291
37.8729
37.5332
37.5917
37.8706
38.0881
38.0742
37.8107
37.3253
36.6462
35.8615
35.1205
34.465
33.8879
33.3967
33.079
32.9954
33.0703
33.1419
33.0906
32.9038
32.6365
32.3494
32.0795
31.8325
31.5951
31.3591
31.1534
31.0125
30.9743
31.0976
31.2957
31.2409
30.6354
29.5185
28.2504
27.2661
26.8025
26.7662
26.8529
26.82
26.6671
26.5721
26.6909
27.0298
27.4844
27.9506
28.3865
28.7922
29.1679
29.5006
29.7804
30.014
30.2216
30.4215
30.6223
30.8258
31.0417
31.2912
31.5888
31.897
32.1063
32.0753
31.6924
30.8463
29.3675
27.1998
24.7741
22.8711
21.7947
21.0388
20.9165
20.1806
22.9686
23.2118
23.5125
25.8356
29.8625
33.8734
36.2681
36.733
36.0525
35.2472
34.8686
34.9947
35.4222
35.8575
36.0488
35.8625
35.3202
34.5735
33.8003
33.054
32.3508
31.7194
31.2562
31.0596
31.1125
31.273
31.3862
31.3847
31.2916
31.1669
31.0495
30.9194
30.7135
30.3894
29.9837
29.5889
29.3323
29.3142
29.3956
29.1844
28.4174
27.2498
26.1055
25.3568
25.1253
25.2468
25.3902
25.2941
24.958
24.6038
24.4561
24.5877
24.9522
25.4909
26.1654
26.9134
27.6281
28.2029
28.5943
28.8373
29.0082
29.1719
29.3606
29.5824
29.8462
30.1593
30.4964
30.7628
30.8207
30.5652
29.9482
28.8785
27.1961
24.9593
22.7467
21.2433
20.4517
19.7824
19.7547
19.1642
22.0133
22.3006
22.0771
23.4145
26.689
30.7745
33.9082
35.1197
34.7453
33.7857
33.0435
32.8426
33.117
33.5797
33.9033
33.8926
33.556
33.0234
32.4101
31.744
31.0373
30.3322
29.7351
29.3767
29.3047
29.4298
29.5994
29.7126
29.7668
29.8171
29.8858
29.8978
29.7194
29.2752
28.6242
27.9352
27.4325
27.2497
27.2153
26.9252
26.1602
25.1199
24.1943
23.6399
23.4861
23.5834
23.6602
23.4698
22.9976
22.479
22.1768
22.1914
22.497
23.0702
23.9051
24.9247
25.9499
26.7832
27.3259
27.615
27.768
27.8982
28.0736
28.3205
28.6434
29.0137
29.3443
29.4949
29.3493
28.8787
28.0797
26.8352
25.0007
22.7835
20.8649
19.7416
19.1408
18.5061
18.5472
17.9107
20.7769
21.2028
20.6984
21.2132
23.5429
27.2759
30.9221
33.0856
33.4826
32.7641
31.8515
31.313
31.2405
31.4193
31.5614
31.5139
31.3088
31.037
30.7119
30.3194
29.8026
29.1728
28.5388
28.0529
27.8177
27.8108
27.9088
27.995
28.0503
28.1285
28.2328
28.2372
27.9675
27.3657
26.5481
25.7461
25.2131
25.0413
25.011
24.754
24.1309
23.3545
22.7176
22.3222
22.1134
22.0039
21.8617
21.538
21.0437
20.6008
20.4295
20.5604
20.9086
21.4502
22.2362
23.254
24.3465
25.2894
25.9366
26.2899
26.4621
26.5893
26.772
27.0518
27.4093
27.7538
27.9451
27.861
27.4778
26.8375
25.9012
24.4905
22.5516
20.496
19.0027
18.2497
17.7495
17.1201
17.2191
16.6106
19.4552
20.0627
19.4906
19.443
20.7983
23.7362
27.3759
30.3099
31.697
31.5709
30.7663
30.0426
29.6541
29.4827
29.3139
29.0605
28.8004
28.6342
28.5365
28.5039
28.3607
28.0072
27.5148
27.03
26.6875
26.5321
26.4913
26.4489
26.361
26.2626
26.1439
25.8782
25.3354
24.5491
23.719
23.0925
22.8511
22.9599
23.1205
23.0053
22.5645
22.0357
21.6416
21.3748
21.1157
20.8125
20.4561
20.0432
19.6739
19.5529
19.7802
20.2257
20.6869
21.1146
21.6211
22.3012
23.1029
23.8649
24.4467
24.8145
25.0383
25.2283
25.4715
25.7836
26.0944
26.2696
26.191
25.8385
25.2846
24.5501
23.4854
21.9074
19.965
18.2425
17.2462
16.781
16.2894
15.6624
15.8109
15.5525
18.3057
19.0634
18.5431
18.2312
18.8518
20.8558
23.9925
27.2141
29.4376
30.0626
29.6237
28.9257
28.3609
27.9407
27.5326
27.0739
26.6428
26.3679
26.2674
26.4459
26.6531
26.6522
26.4354
26.1027
25.778
25.55
25.4048
25.2432
24.9902
24.6407
24.1757
23.5132
22.6193
21.6383
20.8394
20.4556
20.5693
21.023
21.4556
21.5554
21.3108
20.9658
20.7238
20.5616
20.3516
20.037
19.6377
19.2348
19.0197
19.2059
19.7951
20.5179
21.0745
21.3894
21.6055
21.8863
22.2713
22.6884
23.0536
23.3421
23.5938
23.8668
24.1837
24.4922
24.6773
24.6258
24.3162
23.8305
23.2407
22.4502
21.2309
19.5238
17.7136
16.4142
15.8362
15.5054
14.9599
14.3527
14.5373
14.6228
17.2124
18.0876
17.6572
17.2749
17.4467
18.6226
21.0013
24.0562
26.8001
28.1746
28.2907
27.8162
27.2105
26.6437
26.104
25.5357
24.9574
24.4795
24.1739
24.3098
24.6625
24.9139
24.9857
24.9106
24.7555
24.5968
24.4456
24.2179
23.8202
23.2231
22.4216
21.398
20.2045
19.0529
18.2418
17.9869
18.3069
18.9832
19.6439
19.9915
19.9997
19.8669
19.7725
19.7272
19.6518
19.4883
19.2129
18.8866
18.7291
18.989
19.669
20.4705
21.0593
21.3317
21.4085
21.4485
21.5194
21.6128
21.7183
21.8604
22.0783
22.3781
22.7017
22.9334
22.9613
22.7535
22.3873
21.9558
21.4162
20.5435
19.1494
17.3995
15.8484
14.9804
14.6849
14.3606
13.7448
13.1813
13.3891
13.6657
16.0704
17.0625
16.7407
16.3982
16.3692
16.9488
18.5386
21.0988
23.9801
25.9499
26.7098
26.6379
26.1342
25.5011
24.8895
24.2914
23.6574
23.0243
22.4599
22.3677
22.6231
22.9195
23.1691
23.3635
23.489
23.5408
23.4823
23.218
22.6653
21.8288
20.765
19.5255
18.2017
16.9993
16.1936
15.9799
16.3533
17.0909
17.8618
18.4126
18.6961
18.8275
18.9222
19.0101
19.0825
19.1136
19.0308
18.8047
18.5999
18.691
19.1715
19.8353
20.3826
20.6742
20.7586
20.7356
20.6592
20.5559
20.4751
20.4867
20.6295
20.8634
21.0761
21.1459
21.0288
20.7905
20.5365
20.2572
19.7488
18.7422
17.2136
15.5583
14.3618
13.8684
13.7124
13.3168
12.6488
12.1511
12.3685
12.6331
14.8955
16.03
15.8363
15.5775
15.5075
15.7328
16.6528
18.559
21.2255
23.5219
24.8795
25.3306
25.0818
24.4694
23.8037
23.1894
22.5671
21.893
21.1669
20.8321
20.8649
21.0273
21.2844
21.6419
22.0236
22.3101
22.3633
22.0538
21.3413
20.3203
19.1423
17.9141
16.7112
15.666
14.9796
14.8124
15.1563
15.8184
16.5407
17.1483
17.6055
17.9552
18.2256
18.4233
18.5856
18.7413
18.8131
18.6887
18.4274
18.2797
18.4394
18.8512
19.2985
19.6135
19.7585
19.766
19.6744
19.5319
19.4119
19.3842
19.4569
19.5534
19.5619
19.4269
19.2069
19.0229
18.9144
18.7148
18.1182
16.94
15.378
13.9635
13.1648
12.9562
12.8326
12.347
11.6697
11.2583
11.4774
11.5897
13.7874
15.0922
15.0416
14.8617
14.8174
14.873
15.3108
16.5625
18.7669
21.0764
22.8511
23.8415
23.9822
23.5104
22.8236
22.1712
21.5681
20.9414
20.2052
19.7482
19.5914
19.5574
19.6782
20.0122
20.4688
20.8455
20.9184
20.5394
19.7302
18.6829
17.624
16.6729
15.8433
15.156
14.7085
14.6114
14.8671
15.3387
15.8549
16.3264
16.7557
17.1548
17.4885
17.7199
17.8875
18.0586
18.1949
18.1625
17.9265
17.6577
17.5815
17.7646
18.0883
18.3892
18.5765
18.6434
18.6268
18.5813
18.5594
18.579
18.5968
18.5282
18.322
18.0263
17.7739
17.657
17.5862
17.2756
16.4454
15.0982
13.6211
12.5416
12.115
12.0895
11.9377
11.3903
10.7604
10.4578
10.6886
10.6544
12.8556
14.3379
14.4283
14.2931
14.2729
14.2681
14.4118
15.1163
16.7427
18.7836
20.7128
22.147
22.7604
22.5773
21.9596
21.2695
20.6534
20.0884
19.4425
19.0046
18.7781
18.5946
18.5132
18.6448
18.9315
19.1662
19.1164
18.6624
17.8863
17.0295
16.3237
15.8442
15.5206
15.2671
15.0842
15.0363
15.1492
15.3604
15.5817
15.7857
16.0063
16.2609
16.5032
16.6736
16.7828
16.8971
17.0217
17.0604
16.9369
16.723
16.5909
16.6504
16.8642
17.1148
17.3155
17.4563
17.5725
17.6954
17.8178
17.887
17.8292
17.604
17.2592
16.9265
16.7306
16.651
16.4667
15.8734
14.7406
13.2854
11.9871
11.2507
11.1003
11.1488
10.9355
10.368
9.83619
9.66162
9.93437
9.9296
12.1554
13.7895
13.9939
13.8553
13.8215
13.7986
13.793
14.1027
15.1565
16.7435
18.5642
20.269
21.3598
21.5969
21.1813
20.5
19.8344
19.2785
18.7262
18.3805
18.1935
17.952
17.682
17.5159
17.4575
17.3734
17.1069
16.6066
15.9884
15.4705
15.2155
15.2186
15.3401
15.433
15.4442
15.4114
15.3847
15.3671
15.3301
15.2714
15.2305
15.2421
15.2927
15.3391
15.3686
15.4147
15.4993
15.5802
15.5899
15.5249
15.4652
15.4955
15.6275
15.8134
16.0143
16.2357
16.4944
16.7665
16.9712
17.0093
16.8313
16.4898
16.1303
15.9025
15.8332
15.7507
15.3573
14.4376
13.0682
11.6264
10.5681
10.1149
10.1082
10.1231
9.81883
9.25294
8.83906
8.79204
9.13587
9.44965
11.6637
13.3951
13.6685
13.4818
13.3915
13.3532
13.2902
13.3568
13.9341
15.008
16.5275
18.2993
19.7785
20.4869
20.3853
19.7835
19.0522
18.4315
17.9098
17.6507
17.5546
17.3335
16.9342
16.4785
16.0414
15.6064
15.1337
14.6402
14.2305
14.0402
14.1285
14.4225
14.766
15.0213
15.1383
15.1438
15.0878
14.9926
14.8486
14.6504
14.4261
14.2251
14.0822
13.9986
13.9601
13.9652
14.0223
14.1208
14.2185
14.2775
14.3022
14.3315
14.3983
14.5182
14.7068
14.9812
15.3221
15.6426
15.8108
15.7314
15.4278
15.0531
14.8029
14.7677
14.8305
14.6979
14.0853
12.9349
11.506
10.2312
9.45075
9.20243
9.22138
9.12119
8.69852
8.12683
7.81011
7.8584
8.26956
9.14883
11.2759
13.0406
13.3394
13.0797
12.9085
12.8468
12.7765
12.727
12.9731
13.5882
14.7135
16.3575
18.0434
19.1452
19.3818
18.9153
18.1374
17.417
16.8693
16.6629
16.6634
16.5063
16.0446
15.3757
14.6444
13.9546
13.3699
12.9368
12.7009
12.6896
12.8756
13.1717
13.4768
13.729
13.9193
14.0613
14.1601
14.195
14.1314
13.9498
13.6717
13.3601
13.0911
12.9131
12.8304
12.8237
12.8782
12.9821
13.1065
13.207
13.2551
13.2601
13.2613
13.3094
13.449
13.6932
13.9895
14.2186
14.251
14.0431
13.6969
13.4161
13.3649
13.5203
13.6405
13.399
12.614
11.399
10.1154
9.14393
8.66275
8.56391
8.54658
8.30174
7.75428
7.16032
6.89589
6.98397
7.41262
8.91325
10.8797
12.6287
12.9313
12.6037
12.3553
12.2691
12.216
12.1409
12.2048
12.4805
13.2026
14.5533
16.2002
17.4933
17.9855
17.678
16.9177
16.1442
15.5811
15.4192
15.5091
15.4293
14.9549
14.1648
13.2676
12.4639
11.8769
11.5334
11.3897
11.3749
11.4222
11.4931
11.5963
11.7771
12.0722
12.4621
12.8697
13.1893
13.3366
13.2799
13.0491
12.7238
12.4075
12.1812
12.0723
12.0645
12.1278
12.2339
12.3487
12.4305
12.4486
12.4057
12.3384
12.2992
12.3279
12.4238
12.5284
12.5478
12.4144
12.1585
11.9201
11.8649
12.0457
12.3125
12.3691
11.9608
11.0674
9.93954
8.94708
8.34705
8.15801
8.18038
8.12278
7.75912
7.11712
6.50412
6.25577
6.33248
6.70487
8.63231
10.3987
12.1112
12.4262
12.0617
11.7611
11.6588
11.6312
11.5803
11.5763
11.639
11.9984
12.9385
14.2993
15.5268
16.1276
15.9815
15.3442
14.6448
14.1532
14.0698
14.2451
14.2347
13.7707
12.9292
11.9732
11.1659
10.646
10.3889
10.2625
10.1307
9.93382
9.71742
9.60885
9.74492
10.1838
10.8565
11.5994
12.2251
12.6048
12.7036
12.5669
12.2894
11.9853
11.7486
11.6234
11.6072
11.6709
11.7744
11.8733
11.9267
11.9099
11.825
11.6958
11.5516
11.4075
11.2551
11.0681
10.8315
10.5763
10.3953
10.4035
10.6482
11.0265
11.2908
11.175
10.5728
9.63404
8.68478
8.0298
7.78152
7.83755
7.95817
7.88265
7.45527
6.77733
6.17855
5.94204
5.98649
6.24794
8.27051
9.83747
11.5164
11.8708
11.5088
11.1854
11.0754
11.0678
11.0518
11.0397
10.9833
11.0403
11.5196
12.4227
13.3732
13.9464
13.9654
13.5725
13.1067
12.8069
12.8527
13.1072
13.1429
12.6897
11.8369
10.8855
10.127
9.68681
9.48731
9.33778
9.07922
8.6857
8.27904
8.06431
8.21828
8.78754
9.65767
10.6127
11.4277
11.9621
12.1856
12.1521
11.9575
11.7087
11.4933
11.3617
11.3273
11.3744
11.4659
11.5547
11.5988
11.5729
11.4697
11.2895
11.0298
10.6831
10.252
9.77172
9.32708
9.04151
9.03247
9.33704
9.85076
10.3289
10.4846
10.1461
9.37631
8.45348
7.71054
7.35045
7.36341
7.5803
7.76017
7.67853
7.23464
6.57981
6.0425
5.84248
5.86861
6.01422
7.84781
9.23996
10.8984
11.3206
10.993
10.6665
10.5505
10.5477
10.549
10.5389
10.4133
10.2343
10.2817
10.6821
11.2622
11.7372
11.9318
11.8762
11.7679
11.7518
11.9585
12.2736
12.3237
11.8731
11.0325
10.1194
9.42296
9.04161
8.86474
8.68608
8.36147
7.9025
7.46763
7.27391
7.47942
8.09731
8.99255
9.94968
10.7666
11.3292
11.6182
11.6789
11.5894
11.4311
11.2698
11.1518
11.1033
11.1273
11.2009
11.2836
11.3326
11.3131
11.1993
10.9664
10.5899
10.0592
9.40786
8.73636
8.20722
7.99092
8.18187
8.71883
9.37022
9.81316
9.78868
9.24735
8.38696
7.54212
6.9948
6.8435
7.00114
7.28156
7.46529
7.36258
6.9183
6.31952
5.87743
5.74355
5.78136
5.85281
7.40958
8.65367
10.3014
10.8081
10.5311
10.2076
10.0795
10.0622
10.0519
10.0255
9.85042
9.50687
9.22243
9.20161
9.44603
9.82366
10.1953
10.5011
10.788
11.0792
11.4411
11.7876
11.8245
11.3742
10.5695
9.72134
9.0904
8.74448
8.56428
8.36597
8.04406
7.63697
7.29554
7.19295
7.43017
7.984
8.72944
9.49543
10.1471
10.6234
10.9166
11.0488
11.0683
11.0229
10.9466
10.8729
10.8353
10.8527
10.9172
10.9963
11.0447
11.0151
10.8646
10.5567
10.0691
9.414
8.66401
7.96303
7.49812
7.42434
7.77437
8.40129
9.01137
9.28835
9.05707
8.38215
7.53149
6.82004
6.44332
6.41535
6.61825
6.88172
7.01499
6.85988
6.40359
5.86159
5.51888
5.46217
5.53256
5.58704
6.98706
8.10188
9.74183
10.3355
10.1121
9.78875
9.64007
9.59342
9.54747
9.48247
9.26661
8.83157
8.35279
8.06618
8.08707
8.40332
8.92392
9.53577
10.1655
10.7225
11.2069
11.5596
11.5719
11.1333
10.3941
9.63985
9.08558
8.7669
8.57229
8.36088
8.07346
7.7622
7.54393
7.5244
7.74012
8.14244
8.63651
9.11215
9.51474
9.84082
10.089
10.2534
10.3561
10.4187
10.4447
10.4484
10.462
10.511
10.5926
10.6744
10.7033
10.6218
10.3833
9.96479
9.3765
8.6728
7.96021
7.38796
7.10816
7.2058
7.63324
8.19205
8.60023
8.62254
8.19822
7.4756
6.72519
6.18621
5.95717
5.99665
6.18955
6.39395
6.44411
6.21024
5.72166
5.21728
4.95161
4.95667
5.0573
5.13257
6.57022
7.56598
9.19343
9.87013
9.69956
9.37112
9.19353
9.10827
9.01354
8.89723
8.6504
8.191
7.65281
7.2637
7.18293
7.4654
8.06656
8.86397
9.7184
10.459
11.0272
11.3801
11.3832
10.986
10.3475
9.71634
9.25427
8.96601
8.75368
8.52174
8.25237
8.00382
7.85729
7.86082
8.00403
8.2285
8.47199
8.67603
8.84845
9.02276
9.19469
9.33906
9.46934
9.59938
9.71432
9.8094
9.9052
10.0204
10.1447
10.2352
10.2271
10.0585
9.69653
9.15498
8.49679
7.82329
7.25674
6.91399
6.86934
7.11102
7.51804
7.88279
7.99321
7.73655
7.16591
6.47288
5.88067
5.52865
5.43065
5.51762
5.69238
5.83714
5.80318
5.48888
4.96519
4.48614
4.27061
4.30788
4.41823
4.51879
6.2199
7.11586
8.73125
9.47368
9.3449
9.00982
8.80736
8.69113
8.55607
8.39719
8.13567
7.69676
7.18554
6.80068
6.69676
6.95355
7.567
8.43838
9.41029
10.2644
10.8915
11.2498
11.257
10.9105
10.3754
9.867
9.49881
9.24707
9.02297
8.76506
8.48586
8.24836
8.11145
8.08918
8.14694
8.2261
8.288
8.30268
8.31395
8.37305
8.46507
8.55153
8.65488
8.80539
8.98659
9.17629
9.37607
9.58717
9.78006
9.89083
9.8395
9.56502
9.06025
8.38923
7.67448
7.06082
6.6727
6.57675
6.75659
7.1039
7.44019
7.57408
7.38448
6.88336
6.21745
5.59157
5.16346
4.97905
4.9908
5.12133
5.29289
5.40063
5.3026
4.92037
4.36174
3.89137
3.69626
3.7351
3.83202
3.93788
5.61633
6.38472
7.96271
8.80641
8.75761
8.41708
8.16867
7.99874
7.80308
7.58287
7.30653
6.93084
6.53372
6.24949
6.16726
6.34197
6.81084
7.55443
8.47196
9.35063
10.0368
10.4654
10.5774
10.3883
10.0437
9.70988
9.45188
9.22517
8.95538
8.61279
8.23585
7.89713
7.65394
7.51832
7.46063
7.43856
7.42313
7.40134
7.4032
7.42481
7.41888
7.37844
7.36117
7.42466
7.58174
7.80926
8.07217
8.33275
8.54123
8.62762
8.51594
8.16355
7.59984
6.93543
6.32957
5.93211
5.82668
5.99638
6.3232
6.62203
6.70655
6.46515
5.91608
5.20285
4.52758
4.05311
3.83925
3.84817
4.00421
4.24072
4.48624
4.62422
4.51741
4.13212
3.62191
3.23541
3.09454
3.12654
3.18659
3.26497
)
;
    }
    outlet
    {
        type            calculated;
        value           nonuniform List<scalar> 
3200
(
52.6645
53.9435
51.258
49.0861
47.2844
46.3094
47.3065
52.2351
56.5727
55.7015
51.2683
44.3812
36.9704
38.4473
42.2028
37.9565
33.5456
35.2003
38.7446
41.9509
44.3831
43.2121
37.5631
35.0605
35.4637
37.3926
39.0942
39.8538
40.3198
40.4083
40.2031
39.7306
38.6043
37.2409
38.2911
40.7118
42.1784
42.9658
43.293
43.3093
43.1064
42.6429
41.782
40.8588
40.3464
40.3053
40.5136
40.7672
41.0224
41.1149
40.9711
40.5028
39.705
38.2972
35.2349
31.6667
30.5987
30.2574
29.9342
29.7684
29.7683
29.8238
29.8597
29.8588
29.8639
29.912
30.0079
30.1045
30.1596
30.1261
29.9231
29.604
29.2697
29.0139
28.9358
29.1085
29.5843
30.3603
31.4657
31.4753
62.9716
75.8655
75.4081
73.0536
70.6803
69.0241
69.5438
72.03
72.6815
71.3296
67.5537
59.5647
48.1008
51.8486
55.7818
52.001
45.9953
46.4248
52.2776
56.5896
58.9955
58.266
54.9909
52.0858
50.5372
49.9851
49.6057
49.0728
48.476
47.8843
47.3467
46.7808
45.9422
44.78
45.0717
47.1505
48.7977
49.6164
49.908
49.9621
49.9154
49.8019
49.5676
49.1025
48.6255
48.2033
47.8273
47.5387
47.3466
47.2551
47.2203
47.194
47.1359
47.0003
46.7182
46.5558
46.4532
46.4041
46.2328
46.1483
46.1763
46.2254
46.2387
46.2197
46.22
46.2761
46.3833
46.4839
46.5351
46.4873
46.2686
45.9444
45.638
45.4354
45.39
45.4489
45.559
45.7541
45.4448
40.0476
61.1023
80.1973
83.2656
82.0668
80.2151
78.5821
78.1389
77.9229
76.9327
75.1142
71.3214
62.2727
51.1559
57.9952
61.6453
58.3218
52.1119
50.7271
56.4418
61.2983
63.0809
62.3111
60.2513
57.7552
55.5167
53.8917
52.6303
51.5261
50.5389
49.7011
49.0095
48.3714
47.6214
46.7265
46.7721
48.321
49.8343
50.7019
51.0843
51.2154
51.2298
51.1927
51.0927
50.8397
50.4654
50.0154
49.5352
49.125
48.8331
48.7034
48.707
48.8135
49.0289
49.4383
50.2935
51.6813
52.52
52.7605
52.7837
52.7954
52.825
52.8336
52.8028
52.7526
52.7295
52.7646
52.8534
52.9489
53.0076
52.9815
52.8222
52.5618
52.2587
51.9124
51.4794
50.9117
50.4243
50.2915
48.9006
41.1794
56.8545
77.6761
83.7093
83.9241
83.0159
81.8532
80.8111
79.4831
77.8267
75.8095
71.8324
62.0312
53.0088
62.0079
65.0311
62.4861
56.7525
54.164
58.6516
62.8915
63.9317
63.1599
61.6127
59.5205
57.2649
55.3175
53.7111
52.3409
51.1544
50.1668
49.3666
48.6831
48.0051
47.319
47.2892
48.4026
49.7225
50.5806
51.0123
51.1893
51.2388
51.242
51.2114
51.0865
50.8254
50.4617
50.0383
49.6529
49.3637
49.2179
49.2083
49.3421
49.681
50.3539
51.6221
53.4057
54.6612
55.172
55.3644
55.4686
55.521
55.5144
55.4581
55.3884
55.356
55.3957
55.5064
55.6436
55.7448
55.734
55.5364
55.1214
54.4879
53.6388
52.6475
51.7687
51.4733
51.4801
48.826
40.2262
52.7713
73.055
81.3297
82.6699
82.4082
81.7185
80.6991
79.2703
77.6096
75.7153
71.6397
61.6502
55.4906
64.577
66.9106
65.1047
60.2858
57.3561
60.3933
63.0908
63.5794
62.9253
61.6618
59.856
57.7659
55.788
54.06
52.56
51.2593
50.1733
49.2965
48.5802
47.9428
47.371
47.2723
48.0268
49.0958
49.8788
50.3129
50.5275
50.6406
50.7304
50.8044
50.8075
50.6644
50.3977
50.0419
49.682
49.3835
49.2035
49.17
49.333
49.7766
50.5992
51.9837
53.7581
55.0954
55.7695
56.0895
56.2821
56.3907
56.4192
56.3896
56.349
56.3534
56.4376
56.5894
56.7396
56.7823
56.5987
56.0972
55.2599
54.1558
52.9395
51.9013
51.4665
51.7822
51.4698
47.2535
38.8268
49.316
67.9454
77.8974
80.2016
80.1967
79.7365
78.9343
77.8273
76.5797
75.0795
71.1514
62.7551
58.5538
66.0244
67.6658
66.2698
62.5669
59.872
61.5559
62.8138
62.8076
62.2442
61.1808
59.571
57.6485
55.7288
53.9643
52.3869
51.0084
49.8635
48.9552
48.239
47.6332
47.1099
46.9201
47.3674
48.1589
48.8343
49.267
49.5493
49.7758
49.9966
50.1931
50.301
50.2452
50.0347
49.7054
49.3337
49.0053
48.8
48.7805
49.0151
49.5629
50.4585
51.8234
53.4786
54.782
55.5311
55.933