/*--------------------------------*- C++ -*----------------------------------*\
| =========                 |                                                 |
| \\      /  F ield         | OpenFOAM: The Open Source CFD Toolbox           |
|  \\    /   O peration     | Version:  v2012                                 |
|   \\  /    A nd           | Website:  www.openfoam.com                      |
|    \\/     M anipulation  |                                                 |
\*---------------------------------------------------------------------------*/
FoamFile
{
    version     2.0;
    format      ascii;
    class       volScalarField;
    location    "350/air";
    object      rho;
}
// * * * * * * * * * * * * * * * * * * * * * * * * * * * * * * * * * * * * * //

dimensions      [1 -3 0 0 0 0 0];


internalField   nonuniform List<scalar> 
287104
(
0.999041
0.998147
0.997346
0.996615
0.995941
0.995314
0.994728
0.994177
0.993657
0.993164
0.992695
0.992247
0.991818
0.991406
0.991009
0.990626
0.990255
0.989896
0.989546
0.989206
0.988874
0.98855
0.988233
0.987922
0.987618
0.987319
0.987026
0.986738
0.986455
0.986176
0.985901
0.98563
0.985363
0.9851
0.984841
0.984585
0.984332
0.984082
0.983836
0.983592
0.983352
0.983114
0.98288
0.982648
0.982419
0.982192
0.981969
0.981748
0.981529
0.981313
0.9811
0.98089
0.980681
0.980476
0.980273
0.980072
0.979874
0.979679
0.979486
0.979295
0.979107
0.978921
0.978738
0.978557
0.978377
0.9782
0.978025
0.977852
0.977681
0.977512
0.977344
0.977178
0.977014
0.976852
0.976691
0.976532
0.976374
0.976217
0.976062
0.975909
0.975756
0.975603
0.975449
0.975295
0.975141
0.974985
0.974828
0.974667
0.974494
0.974294
0.999054
0.998171
0.997381
0.996661
0.995997
0.99538
0.994802
0.99426
0.993749
0.993264
0.992803
0.992363
0.991942
0.991538
0.991149
0.990773
0.99041
0.990057
0.989715
0.989382
0.989057
0.98874
0.98843
0.988127
0.98783
0.987538
0.987252
0.986971
0.986695
0.986423
0.986156
0.985892
0.985633
0.985377
0.985124
0.984875
0.98463
0.984387
0.984148
0.983912
0.983678
0.983448
0.98322
0.982995
0.982773
0.982553
0.982336
0.982122
0.981911
0.981701
0.981495
0.981291
0.981089
0.98089
0.980693
0.980499
0.980307
0.980118
0.979931
0.979746
0.979564
0.979384
0.979206
0.979031
0.978857
0.978686
0.978516
0.978348
0.978182
0.978018
0.977856
0.977695
0.977536
0.977378
0.977222
0.977067
0.976914
0.976762
0.976611
0.976462
0.976313
0.976164
0.976014
0.975865
0.975714
0.975563
0.975409
0.975252
0.975084
0.974886
0.999066
0.998196
0.997417
0.996707
0.996051
0.995442
0.994873
0.994339
0.993834
0.993356
0.992902
0.992468
0.992053
0.991654
0.991271
0.990901
0.990543
0.990196
0.989859
0.989531
0.989211
0.9889
0.988595
0.988297
0.988005
0.987718
0.987437
0.987162
0.986891
0.986624
0.986362
0.986103
0.985849
0.985598
0.985351
0.985108
0.984867
0.98463
0.984396
0.984166
0.983938
0.983713
0.983491
0.983272
0.983055
0.982842
0.982631
0.982422
0.982217
0.982013
0.981813
0.981615
0.98142
0.981227
0.981036
0.980848
0.980663
0.98048
0.9803
0.980122
0.979947
0.979773
0.979602
0.979434
0.979267
0.979103
0.978941
0.97878
0.978622
0.978466
0.978311
0.978158
0.978007
0.977858
0.97771
0.977564
0.977419
0.977276
0.977135
0.976995
0.976855
0.976716
0.976577
0.976438
0.976298
0.976157
0.976015
0.97587
0.975713
0.975527
0.999079
0.998221
0.997452
0.996751
0.996105
0.995504
0.994943
0.994415
0.993917
0.993446
0.992998
0.99257
0.99216
0.991767
0.991389
0.991024
0.99067
0.990328
0.989996
0.989672
0.989357
0.98905
0.988749
0.988455
0.988167
0.987885
0.987608
0.987337
0.987069
0.986807
0.986548
0.986294
0.986043
0.985797
0.985553
0.985314
0.985077
0.984844
0.984614
0.984387
0.984163
0.983942
0.983724
0.983508
0.983295
0.983085
0.982878
0.982673
0.982471
0.982272
0.982075
0.98188
0.981688
0.981499
0.981312
0.981128
0.980946
0.980767
0.98059
0.980415
0.980243
0.980073
0.979905
0.97974
0.979576
0.979415
0.979256
0.979098
0.978943
0.978789
0.978637
0.978486
0.978338
0.97819
0.978044
0.9779
0.977757
0.977615
0.977475
0.977335
0.977196
0.977058
0.976918
0.976779
0.976638
0.976497
0.976353
0.976206
0.976048
0.97586
0.999092
0.998245
0.997487
0.996796
0.996158
0.995565
0.995011
0.994491
0.994
0.993535
0.993092
0.99267
0.992266
0.991878
0.991505
0.991145
0.990796
0.990459
0.990131
0.989812
0.989501
0.989197
0.988901
0.988611
0.988327
0.988049
0.987776
0.987508
0.987245
0.986986
0.986732
0.986482
0.986235
0.985992
0.985753
0.985518
0.985285
0.985056
0.98483
0.984608
0.984388
0.984171
0.983957
0.983746
0.983538
0.983332
0.983129
0.982929
0.982732
0.982537
0.982345
0.982155
0.981968
0.981783
0.981601
0.981421
0.981244
0.98107
0.980897
0.980727
0.98056
0.980394
0.980231
0.98007
0.979911
0.979754
0.979598
0.979445
0.979293
0.979143
0.978994
0.978846
0.9787
0.978555
0.978412
0.978269
0.978127
0.977986
0.977846
0.977707
0.977567
0.977428
0.977287
0.977145
0.977003
0.976858
0.976711
0.976561
0.976399
0.976208
0.999104
0.998269
0.997521
0.996839
0.99621
0.995626
0.995079
0.994566
0.994081
0.993622
0.993186
0.992769
0.99237
0.991987
0.991619
0.991264
0.99092
0.990586
0.990263
0.989948
0.989641
0.989342
0.98905
0.988764
0.988484
0.98821
0.987941
0.987677
0.987417
0.987163
0.986912
0.986666
0.986424
0.986185
0.98595
0.985719
0.985491
0.985267
0.985046
0.984828
0.984614
0.984402
0.984194
0.983988
0.983786
0.983586
0.98339
0.983196
0.983006
0.982818
0.982633
0.982451
0.982272
0.982095
0.981921
0.98175
0.981581
0.981415
0.981252
0.981091
0.980932
0.980776
0.980622
0.980471
0.980322
0.980174
0.980029
0.979886
0.979744
0.979604
0.979466
0.979329
0.979194
0.979061
0.978929
0.978798
0.978668
0.97854
0.978413
0.978287
0.978162
0.978037
0.977913
0.977789
0.977666
0.977542
0.977419
0.977294
0.977161
0.977001
0.999117
0.998293
0.997555
0.996883
0.996262
0.995685
0.995146
0.994639
0.994161
0.993708
0.993277
0.992866
0.992473
0.992095
0.991731
0.99138
0.99104
0.990711
0.990391
0.99008
0.989777
0.989481
0.989193
0.98891
0.988634
0.988364
0.988099
0.98784
0.987585
0.987335
0.987089
0.986848
0.986612
0.986379
0.986151
0.985926
0.985706
0.98549
0.985277
0.985068
0.984863
0.984662
0.984465
0.984271
0.984084
0.983901
0.983723
0.983549
0.98338
0.983214
0.983053
0.982895
0.98274
0.982589
0.982442
0.982297
0.982156
0.982017
0.981881
0.981748
0.981618
0.981491
0.981366
0.981243
0.981123
0.981005
0.98089
0.980777
0.980667
0.98056
0.980455
0.980353
0.980253
0.980156
0.980062
0.979971
0.979882
0.979797
0.979714
0.979634
0.979557
0.979482
0.979408
0.979336
0.979265
0.979192
0.979123
0.979057
0.978987
0.978894
0.999129
0.998316
0.997589
0.996925
0.996313
0.995744
0.995212
0.994712
0.99424
0.993793
0.993368
0.992962
0.992574
0.9922
0.991841
0.991494
0.991158
0.990832
0.990516
0.990208
0.989908
0.989616
0.98933
0.989052
0.988779
0.988513
0.988253
0.987998
0.987749
0.987506
0.987268
0.987035
0.986809
0.986591
0.98638
0.986177
0.98598
0.98579
0.985607
0.98543
0.98526
0.985096
0.984938
0.984786
0.984639
0.984499
0.984363
0.984233
0.984109
0.98399
0.983877
0.983771
0.983671
0.983576
0.983488
0.983405
0.983327
0.983256
0.983189
0.983128
0.983072
0.983022
0.982976
0.982935
0.982899
0.982868
0.982841
0.982818
0.982799
0.982785
0.982774
0.982767
0.982763
0.982763
0.982766
0.982772
0.982782
0.982794
0.982809
0.982827
0.982846
0.982867
0.982887
0.982907
0.982924
0.982937
0.982943
0.982933
0.982871
0.982727
0.999141
0.99834
0.997622
0.996967
0.996363
0.995802
0.995277
0.994784
0.994318
0.993876
0.993456
0.993055
0.992669
0.992296
0.991935
0.991585
0.991244
0.990913
0.99059
0.990276
0.98997
0.989672
0.989382
0.9891
0.988829
0.98857
0.988324
0.988088
0.987863
0.987648
0.987443
0.987248
0.987063
0.986886
0.986719
0.986561
0.986413
0.986274
0.986143
0.986019
0.985903
0.985795
0.985694
0.985602
0.985518
0.985442
0.985373
0.985313
0.98526
0.985214
0.985174
0.985139
0.985109
0.985085
0.985066
0.985051
0.985041
0.985036
0.985035
0.985038
0.985045
0.985056
0.98507
0.985087
0.985107
0.985131
0.985157
0.985185
0.985216
0.98525
0.985285
0.985322
0.98536
0.985401
0.985442
0.985485
0.985529
0.985574
0.985621
0.98567
0.985719
0.985768
0.985815
0.98586
0.985903
0.985943
0.985978
0.986004
0.985999
0.985944
0.999153
0.998362
0.997655
0.997009
0.996413
0.995859
0.995341
0.994854
0.994395
0.993959
0.993532
0.993105
0.992674
0.992242
0.991812
0.991387
0.99097
0.990562
0.990166
0.989783
0.989413
0.989058
0.988717
0.988391
0.988084
0.987797
0.987526
0.987271
0.987029
0.986801
0.986586
0.986381
0.986182
0.985989
0.9858
0.985616
0.985437
0.985265
0.9851
0.984944
0.984798
0.98466
0.984533
0.984417
0.984313
0.984218
0.984132
0.984055
0.983986
0.983925
0.983873
0.983829
0.983794
0.983767
0.983748
0.983737
0.983735
0.98374
0.983753
0.983773
0.9838
0.983835
0.983875
0.983922
0.983975
0.984033
0.984097
0.984166
0.984239
0.984316
0.984397
0.984482
0.984569
0.984659
0.98475
0.984844
0.98494
0.985037
0.985137
0.985242
0.985368
0.9855
0.985633
0.985763
0.985887
0.986001
0.986102
0.986184
0.986228
0.986215
0.999164
0.998385
0.997687
0.99705
0.996462
0.995916
0.995404
0.994924
0.994469
0.994027
0.993205
0.992326
0.991439
0.990564
0.989712
0.988892
0.988109
0.987368
0.986675
0.986033
0.985445
0.984912
0.984435
0.984012
0.983641
0.983317
0.983036
0.98279
0.982574
0.982381
0.982205
0.98204
0.981889
0.981746
0.981609
0.981474
0.981339
0.981205
0.981071
0.980935
0.980797
0.980656
0.980515
0.980374
0.980236
0.980099
0.979965
0.979835
0.979709
0.979588
0.979473
0.979365
0.979264
0.979171
0.979086
0.979011
0.978944
0.978887
0.978841
0.978806
0.978781
0.978768
0.978767
0.978777
0.978798
0.978831
0.978875
0.97893
0.978996
0.979072
0.979157
0.979252
0.979355
0.979466
0.979585
0.979711
0.979845
0.979993
0.980201
0.980583
0.981151
0.981662
0.982128
0.982558
0.982952
0.983313
0.983635
0.983912
0.984117
0.984215
0.999176
0.998407
0.997719
0.997091
0.996511
0.995972
0.995467
0.994993
0.994544
0.994108
0.993304
0.992444
0.991573
0.99071
0.989867
0.98905
0.988268
0.987525
0.986826
0.986177
0.98558
0.985038
0.984553
0.984124
0.983748
0.983422
0.983142
0.982901
0.982692
0.982508
0.982344
0.982193
0.982051
0.981912
0.981774
0.981633
0.981488
0.98134
0.981189
0.981032
0.980869
0.980699
0.980522
0.980343
0.980161
0.979974
0.979784
0.979591
0.979394
0.979194
0.978991
0.978785
0.978577
0.978366
0.978154
0.977942
0.977731
0.97752
0.977311
0.977104
0.976903
0.976707
0.976518
0.976338
0.97617
0.976014
0.975873
0.975749
0.975643
0.975557
0.975493
0.975452
0.975435
0.975442
0.975473
0.975528
0.975607
0.97571
0.975844
0.976036
0.976393
0.976843
0.977337
0.977846
0.97835
0.978838
0.979298
0.979721
0.980088
0.980378
0.999187
0.998429
0.99775
0.997131
0.996559
0.996027
0.995529
0.995061
0.994618
0.994188
0.993396
0.992549
0.991692
0.990842
0.990011
0.989207
0.988435
0.987702
0.987014
0.986374
0.985787
0.985257
0.984783
0.984367
0.984006
0.983697
0.983435
0.983214
0.983027
0.982867
0.982727
0.982602
0.982485
0.982373
0.982262
0.982148
0.982029
0.98191
0.981789
0.981663
0.981533
0.981398
0.981258
0.981118
0.98098
0.980839
0.980698
0.980557
0.980416
0.980276
0.980135
0.979995
0.979854
0.979713
0.979571
0.979426
0.979278
0.979128
0.978974
0.978815
0.978651
0.978481
0.978305
0.978122
0.977932
0.977733
0.977526
0.977311
0.977088
0.976856
0.976616
0.976369
0.976117
0.97586
0.975601
0.975343
0.975088
0.974841
0.974606
0.974402
0.974318
0.974341
0.974442
0.974604
0.974812
0.975056
0.975324
0.975604
0.97588
0.976144
0.999198
0.998451
0.997781
0.99717
0.996606
0.996082
0.995591
0.995128
0.994691
0.994267
0.993488
0.992654
0.99181
0.990974
0.990156
0.989363
0.988603
0.987881
0.987203
0.986572
0.985995
0.985472
0.985006
0.984597
0.984243
0.983941
0.983685
0.98347
0.983289
0.983135
0.983002
0.982883
0.982773
0.982668
0.982563
0.982455
0.982342
0.982229
0.982115
0.981997
0.981875
0.981748
0.981615
0.981486
0.981358
0.981231
0.981104
0.980979
0.980856
0.980736
0.980619
0.980505
0.980397
0.980297
0.980204
0.980116
0.980031
0.979951
0.979873
0.979799
0.979727
0.979659
0.979593
0.97953
0.979469
0.979408
0.979349
0.979289
0.979229
0.979167
0.979102
0.979034
0.97896
0.978881
0.978795
0.9787
0.978598
0.978492
0.978395
0.978416
0.978565
0.978648
0.978669
0.978649
0.97865
0.978659
0.978663
0.978651
0.978586
0.978418
0.99921
0.998473
0.997812
0.99721
0.996653
0.996136
0.995651
0.995195
0.994764
0.994345
0.993578
0.992757
0.991927
0.991103
0.990297
0.989517
0.988768
0.988057
0.987389
0.986768
0.986199
0.985684
0.985226
0.984824
0.984476
0.984179
0.983928
0.983717
0.98354
0.983389
0.983258
0.983141
0.983033
0.982929
0.982826
0.982718
0.982604
0.98249
0.982376
0.982257
0.982134
0.982005
0.981869
0.981737
0.981608
0.981479
0.981351
0.981224
0.981099
0.980976
0.980857
0.980741
0.980629
0.980521
0.980416
0.980315
0.980217
0.980122
0.980032
0.979949
0.97987
0.979796
0.979725
0.979658
0.979594
0.979536
0.979482
0.979433
0.979391
0.979354
0.979324
0.979302
0.979287
0.979281
0.979283
0.979296
0.979319
0.979359
0.979427
0.979626
0.979978
0.980298
0.980589
0.980857
0.981105
0.98133
0.981526
0.98168
0.981744
0.981643
0.999221
0.998494
0.997843
0.997248
0.996699
0.996189
0.995711
0.995261
0.994836
0.994423
0.993668
0.99286
0.992042
0.991232
0.990438
0.98967
0.988933
0.988233
0.987575
0.986964
0.986403
0.985897
0.985446
0.985051
0.984709
0.984417
0.98417
0.983962
0.983786
0.983636
0.983505
0.983388
0.98328
0.983175
0.983069
0.982958
0.982841
0.982723
0.982604
0.98248
0.982351
0.982215
0.982073
0.981934
0.981798
0.981661
0.981526
0.981391
0.981258
0.981127
0.980999
0.980875
0.980755
0.980638
0.980523
0.980411
0.980301
0.980192
0.980086
0.97998
0.979876
0.979774
0.979672
0.97957
0.97947
0.979371
0.979272
0.979175
0.979079
0.978984
0.978891
0.9788
0.978712
0.978626
0.978544
0.978465
0.97839
0.97832
0.978281
0.978386
0.978631
0.978842
0.979023
0.979181
0.97932
0.979439
0.979532
0.979586
0.979565
0.979516
0.999231
0.998515
0.997873
0.997286
0.996745
0.996242
0.99577
0.995327
0.994907
0.9945
0.993757
0.992962
0.992157
0.99136
0.990579
0.989822
0.989096
0.988407
0.98776
0.987158
0.986607
0.986109
0.985666
0.985278
0.984942
0.984655
0.984412
0.984206
0.984031
0.98388
0.983747
0.983626
0.983514
0.983405
0.983295
0.983178
0.983054
0.982928
0.982801
0.982669
0.982531
0.982386
0.982234
0.982084
0.981939
0.981792
0.981646
0.9815
0.981356
0.981215
0.981077
0.980943
0.980812
0.980684
0.980558
0.980433
0.980309
0.980185
0.980061
0.979937
0.979812
0.979686
0.979558
0.979429
0.979298
0.979164
0.979028
0.978889
0.978748
0.978605
0.978459
0.978311
0.97816
0.978008
0.977853
0.977697
0.977539
0.977379
0.977218
0.977069
0.976998
0.976985
0.977003
0.977037
0.977075
0.97711
0.977137
0.977149
0.977129
0.977056
0.999242
0.998536
0.997902
0.997324
0.99679
0.996294
0.995829
0.995392
0.994978
0.994576
0.993845
0.993063
0.99227
0.991485
0.990716
0.989971
0.989257
0.988579
0.987942
0.987352
0.986811
0.986323
0.985889
0.985509
0.985182
0.984902
0.984665
0.984463
0.98429
0.984139
0.984004
0.983881
0.983765
0.983653
0.983539
0.983419
0.983291
0.983161
0.983031
0.982895
0.982753
0.982602
0.982443
0.982286
0.982134
0.981981
0.981828
0.981677
0.981528
0.981384
0.981245
0.981113
0.980985
0.980862
0.98074
0.980621
0.980504
0.980387
0.980271
0.980154
0.980038
0.97992
0.979801
0.979681
0.979559
0.979436
0.979311
0.979185
0.979058
0.978929
0.9788
0.97867
0.978539
0.978409
0.97828
0.978151
0.978025
0.977901
0.97778
0.977673
0.977665
0.97773
0.977839
0.977972
0.978116
0.978264
0.978408
0.978539
0.97864
0.978691
0.999253
0.998556
0.997931
0.997361
0.996835
0.996345
0.995887
0.995456
0.995048
0.994651
0.993933
0.993162
0.992382
0.991608
0.990852
0.990119
0.989419
0.988755
0.988135
0.987562
0.987042
0.986578
0.986169
0.985816
0.985516
0.985263
0.98505
0.98487
0.984714
0.984577
0.984454
0.98434
0.984232
0.984128
0.984022
0.98391
0.983789
0.983665
0.983538
0.983403
0.983258
0.983101
0.982932
0.982764
0.982597
0.982429
0.982261
0.982096
0.981938
0.98179
0.981653
0.981527
0.981412
0.981305
0.981205
0.981111
0.981024
0.98094
0.980862
0.980787
0.980715
0.980645
0.980577
0.980511
0.980446
0.980381
0.980318
0.980257
0.980197
0.980139
0.980083
0.980031
0.979982
0.979937
0.979897
0.979862
0.979833
0.979812
0.979802
0.979826
0.98003
0.980259
0.980494
0.98073
0.980966
0.981201
0.981425
0.981629
0.981795
0.981901
0.999263
0.998576
0.99796
0.997398
0.996879
0.996396
0.995944
0.995519
0.995117
0.994725
0.994013
0.993249
0.992477
0.991718
0.990987
0.990293
0.989646
0.989053
0.98852
0.988048
0.987638
0.987288
0.986992
0.986744
0.986537
0.986363
0.986215
0.986085
0.985966
0.985854
0.985746
0.985641
0.985538
0.985435
0.98533
0.985217
0.985093
0.984964
0.984828
0.984679
0.984514
0.984332
0.98413
0.983921
0.983708
0.983488
0.983264
0.983041
0.982828
0.982629
0.982449
0.98229
0.982153
0.982037
0.981943
0.981871
0.981817
0.981789
0.981782
0.981789
0.981806
0.981827
0.981851
0.981876
0.9819
0.981924
0.981948
0.981972
0.981998
0.982024
0.982053
0.982085
0.98212
0.98216
0.982204
0.982254
0.982312
0.982382
0.982481
0.982715
0.98309
0.983419
0.983714
0.98398
0.984223
0.984441
0.984633
0.984791
0.984885
0.984873
0.999273
0.998596
0.997989
0.997434
0.996922
0.996446
0.996001
0.995582
0.995186
0.994811
0.994452
0.994105
0.99377
0.993445
0.993128
0.992819
0.992519
0.992228
0.991946
0.991672
0.991406
0.99115
0.990901
0.99066
0.990428
0.990203
0.989985
0.989773
0.989567
0.989365
0.989168
0.988975
0.988787
0.988604
0.988425
0.988249
0.988073
0.9879
0.987731
0.987563
0.987395
0.987227
0.987056
0.986887
0.98672
0.986556
0.9864
0.986252
0.986115
0.98599
0.985878
0.985778
0.985692
0.985617
0.985555
0.985504
0.985464
0.985434
0.985413
0.985401
0.985396
0.985399
0.985407
0.985422
0.985441
0.985465
0.985493
0.985525
0.985561
0.9856
0.985643
0.985688
0.985737
0.985788
0.985843
0.9859
0.98596
0.986023
0.986091
0.986166
0.986254
0.986348
0.986445
0.986542
0.986637
0.986727
0.986809
0.986877
0.986911
0.986887
0.999283
0.998616
0.998017
0.99747
0.996965
0.996496
0.996057
0.995643
0.995253
0.994883
0.994531
0.994194
0.993871
0.993561
0.993261
0.992972
0.992692
0.992421
0.992158
0.991903
0.991656
0.991415
0.991181
0.990953
0.990731
0.990514
0.990303
0.990097
0.989894
0.989694
0.989497
0.989303
0.989113
0.988926
0.988742
0.988561
0.98838
0.988202
0.988029
0.987859
0.987693
0.987528
0.987363
0.987205
0.987053
0.986906
0.986764
0.986631
0.986506
0.986392
0.986289
0.986196
0.986112
0.986037
0.98597
0.985912
0.985863
0.985821
0.985788
0.985761
0.985741
0.985728
0.985721
0.985719
0.985723
0.985732
0.985746
0.985765
0.985788
0.985816
0.985848
0.985884
0.985924
0.985968
0.986016
0.986068
0.986123
0.986183
0.986247
0.986315
0.986387
0.986459
0.986531
0.9866
0.986667
0.98673
0.986787
0.986832
0.986847
0.986811
0.999293
0.998635
0.998045
0.997506
0.997008
0.996545
0.996112
0.995705
0.99532
0.994956
0.994609
0.994277
0.99396
0.993655
0.993361
0.993077
0.992803
0.992537
0.992279
0.992028
0.991783
0.991545
0.991312
0.991085
0.990862
0.990645
0.990432
0.990222
0.990017
0.989814
0.989613
0.989414
0.989218
0.989025
0.988836
0.988649
0.988463
0.98828
0.988102
0.987925
0.987751
0.987577
0.9874
0.987225
0.987053
0.986879
0.986706
0.986536
0.986368
0.986205
0.986048
0.985896
0.985749
0.985611
0.985483
0.985363
0.985252
0.985149
0.985053
0.984965
0.984884
0.984809
0.98474
0.984677
0.984619
0.984567
0.984521
0.984479
0.984443
0.984413
0.984387
0.984366
0.984351
0.98434
0.984335
0.984334
0.984338
0.984346
0.984358
0.984374
0.984393
0.984415
0.984438
0.984463
0.984488
0.984511
0.98453
0.984538
0.984506
0.984416
0.999304
0.998655
0.998073
0.997542
0.997051
0.996595
0.996168
0.995766
0.995387
0.995028
0.994686
0.994359
0.994046
0.993745
0.993456
0.993176
0.992906
0.992644
0.992389
0.992141
0.9919
0.991665
0.991435
0.99121
0.99099
0.990774
0.990563
0.990355
0.990151
0.989949
0.98975
0.989552
0.989356
0.989164
0.988974
0.988788
0.988601
0.988419
0.988243
0.988072
0.987905
0.987742
0.987578
0.987416
0.987256
0.987095
0.986934
0.986773
0.986615
0.98646
0.98631
0.986164
0.986022
0.985885
0.985754
0.98563
0.985512
0.985401
0.985297
0.9852
0.985111
0.985028
0.984952
0.984882
0.984818
0.984759
0.984705
0.984655
0.984608
0.984563
0.984521
0.984481
0.984441
0.984402
0.984364
0.984325
0.984287
0.984249
0.98421
0.984171
0.984131
0.98409
0.984049
0.984006
0.983961
0.983916
0.983869
0.983819
0.983761
0.983682
0.999314
0.998674
0.998101
0.997577
0.997094
0.996644
0.996223
0.995827
0.995454
0.995099
0.994762
0.99444
0.994132
0.993836
0.99355
0.993275
0.993009
0.99275
0.9925
0.992255
0.992018
0.991785
0.991559
0.991337
0.991119
0.990906
0.990696
0.99049
0.990287
0.990087
0.989889
0.989692
0.989497
0.989305
0.989116
0.98893
0.988745
0.988566
0.988402
0.988255
0.988128
0.988018
0.987914
0.987815
0.98772
0.987623
0.987524
0.987426
0.987328
0.987232
0.987143
0.98706
0.986985
0.986919
0.986862
0.986815
0.986775
0.986744
0.986719
0.9867
0.986685
0.986672
0.98666
0.986648
0.986635
0.986618
0.986597
0.986571
0.98654
0.986503
0.98646
0.98641
0.986354
0.986291
0.986223
0.986149
0.98607
0.985986
0.985898
0.985805
0.985709
0.985609
0.985504
0.985396
0.985284
0.985169
0.98505
0.984926
0.984794
0.984643
0.999324
0.998693
0.998128
0.997612
0.997136
0.996692
0.996277
0.995887
0.995519
0.99517
0.994838
0.99452
0.994216
0.993924
0.993643
0.993371
0.993109
0.992854
0.992607
0.992366
0.992131
0.991902
0.991678
0.991458
0.991243
0.991032
0.990825
0.99062
0.990419
0.990219
0.990022
0.989826
0.989632
0.989439
0.989251
0.989065
0.988882
0.988716
0.9886
0.988557
0.988584
0.988653
0.988735
0.98882
0.9889
0.988972
0.989034
0.989089
0.989138
0.98918
0.989215
0.989246
0.989272
0.989294
0.98931
0.989321
0.989325
0.989324
0.989316
0.989303
0.989285
0.98926
0.98923
0.989194
0.989152
0.989105
0.989051
0.988991
0.988925
0.988854
0.988776
0.988693
0.988605
0.988511
0.988413
0.98831
0.988203
0.988093
0.987979
0.987861
0.987741
0.987617
0.98749
0.98736
0.987226
0.98709
0.986951
0.986808
0.986656
0.986489
0.999333
0.998712
0.998155
0.997647
0.997177
0.99674
0.996331
0.995946
0.995583
0.995239
0.994911
0.994598
0.994298
0.99401
0.993733
0.993465
0.993206
0.992954
0.99271
0.992472
0.992241
0.992014
0.991793
0.991576
0.991364
0.991155
0.990949
0.990745
0.990545
0.990346
0.990148
0.989952
0.989757
0.989564
0.989373
0.989187
0.989007
0.988909
0.989038
0.989353
0.98977
0.99018
0.990525
0.990808
0.99103
0.991196
0.991317
0.991402
0.991457
0.99149
0.9915
0.991491
0.991469
0.991435
0.991393
0.991345
0.991292
0.991236
0.991177
0.991116
0.991054
0.990989
0.990923
0.990854
0.990783
0.990709
0.990632
0.990553
0.990471
0.990386
0.990297
0.990206
0.990112
0.990016
0.989917
0.989816
0.989713
0.989609
0.989503
0.989395
0.989286
0.989176
0.989064
0.988951
0.988838
0.988724
0.98861
0.988496
0.988377
0.988249
0.999342
0.99873
0.998181
0.997679
0.997216
0.996784
0.996381
0.996002
0.995643
0.995304
0.99498
0.994671
0.994375
0.994091
0.993817
0.993553
0.993297
0.993048
0.992807
0.992572
0.992343
0.992118
0.991899
0.991684
0.991474
0.991267
0.991062
0.99086
0.99066
0.99046
0.990262
0.990065
0.989868
0.989672
0.989478
0.989289
0.989121
0.989235
0.98993
0.990861
0.991669
0.992225
0.992606
0.992834
0.992954
0.992999
0.992993
0.992956
0.9929
0.992831
0.992755
0.992675
0.992592
0.99251
0.992428
0.992349
0.992271
0.992195
0.992121
0.992048
0.991976
0.991903
0.991831
0.991758
0.991683
0.991608
0.991531
0.991453
0.991374
0.991293
0.991211
0.991127
0.991043
0.990958
0.990873
0.990786
0.9907
0.990613
0.990528
0.990444
0.99036
0.990277
0.990194
0.99011
0.990026
0.989939
0.989851
0.989758
0.989662
0.989557
0.999351
0.998746
0.998203
0.997708
0.99725
0.996825
0.996426
0.996051
0.995698
0.995362
0.995042
0.994737
0.994445
0.994164
0.993893
0.993631
0.993378
0.993132
0.992893
0.99266
0.992433
0.99221
0.991993
0.991779
0.99157
0.991363
0.99116
0.990958
0.990758
0.990558
0.990359
0.990159
0.989959
0.989759
0.98956
0.989365
0.989277
0.98978
0.991515
0.992845
0.993667
0.994088
0.994217
0.994216
0.99414
0.994022
0.993886
0.993746
0.993608
0.993479
0.993361
0.993252
0.993154
0.993063
0.992979
0.9929
0.992829
0.992762
0.992697
0.992633
0.992569
0.992505
0.992439
0.992371
0.992303
0.992233
0.992163
0.992091
0.992019
0.991947
0.991875
0.991804
0.991733
0.991664
0.991596
0.991529
0.991465
0.991402
0.991341
0.99128
0.991221
0.991163
0.991104
0.991046
0.990988
0.990929
0.990867
0.990802
0.990724
0.99063
0.999357
0.998759
0.998222
0.997732
0.997279
0.996858
0.996464
0.996093
0.995742
0.99541
0.995094
0.994791
0.994502
0.994223
0.993955
0.993696
0.993444
0.9932
0.992963
0.992732
0.992506
0.992284
0.992067
0.991854
0.991645
0.991438
0.991235
0.991033
0.990832
0.990631
0.990429
0.990227
0.990023
0.989818
0.989614
0.989415
0.989323
0.989855
0.99188
0.993435
0.994446
0.995016
0.995023
0.994938
0.994802
0.994638
0.994464
0.994292
0.994129
0.99398
0.993845
0.993722
0.993612
0.993517
0.993433
0.993356
0.993283
0.993215
0.993148
0.993081
0.993015
0.992948
0.99288
0.992811
0.992741
0.99267
0.992599
0.992528
0.992456
0.992386
0.992316
0.992248
0.992182
0.992119
0.992058
0.992
0.991946
0.991894
0.991845
0.991798
0.991753
0.99171
0.991667
0.991624
0.991582
0.991538
0.991493
0.991445
0.991387
0.991319
0.999363
0.998769
0.998237
0.99775
0.997301
0.996883
0.996491
0.996123
0.995775
0.995445
0.995131
0.994831
0.994543
0.994266
0.994
0.993742
0.993492
0.993249
0.993013
0.992782
0.992557
0.992335
0.992118
0.991905
0.991694
0.991487
0.991282
0.991078
0.990875
0.990672
0.990468
0.990262
0.990056
0.98985
0.989648
0.989456
0.989352
0.989851
0.99201
0.993714
0.994874
0.995583
0.995495
0.995342
0.995162
0.994968
0.994775
0.994591
0.994418
0.994258
0.994111
0.99398
0.993866
0.993764
0.993672
0.993587
0.993508
0.993432
0.993358
0.993286
0.993213
0.99314
0.993065
0.992989
0.99291
0.992831
0.992749
0.992667
0.992585
0.992504
0.992424
0.992347
0.992274
0.992205
0.992141
0.992082
0.99203
0.991983
0.991941
0.991904
0.991871
0.991841
0.991812
0.991786
0.991759
0.991733
0.991706
0.991675
0.991635
0.991588
0.999366
0.998775
0.998246
0.997762
0.997314
0.996898
0.996509
0.996142
0.995796
0.995467
0.995154
0.994855
0.994568
0.994292
0.994026
0.993768
0.993519
0.993276
0.99304
0.992809
0.992583
0.992362
0.992144
0.991929
0.991717
0.991507
0.9913
0.991094
0.990889
0.990683
0.990476
0.990271
0.990069
0.989876
0.989702
0.989554
0.989442
0.989845
0.991902
0.993595
0.99478
0.995533
0.995414
0.995237
0.995044
0.994849
0.994664
0.994492
0.994334
0.994189
0.994055
0.993935
0.993827
0.993726
0.993632
0.993544
0.99346
0.993378
0.993298
0.993218
0.993137
0.993053
0.992966
0.992874
0.992776
0.992674
0.992566
0.992454
0.992339
0.992221
0.992104
0.99199
0.99188
0.991776
0.991681
0.991597
0.991527
0.991471
0.99143
0.991403
0.991388
0.991383
0.991384
0.991389
0.991396
0.991403
0.991408
0.99141
0.9914
0.991384
0.999367
0.998778
0.99825
0.997767
0.997321
0.996905
0.996517
0.996151
0.995805
0.995477
0.995164
0.994865
0.994578
0.994302
0.994036
0.993778
0.993528
0.993285
0.993048
0.992817
0.99259
0.992367
0.992147
0.99193
0.991716
0.991503
0.991294
0.991086
0.990879
0.990674
0.990472
0.990279
0.990102
0.989964
0.989882
0.98986
0.989791
0.98973
0.990427
0.99133
0.992308
0.993146
0.993271
0.993349
0.993401
0.99343
0.993442
0.993442
0.99343
0.993408
0.993377
0.993339
0.993295
0.993244
0.993188
0.993127
0.993063
0.992994
0.992924
0.992847
0.992762
0.992667
0.992561
0.992444
0.99232
0.992189
0.992046
0.991888
0.991714
0.991515
0.991298
0.991071
0.990844
0.990629
0.990437
0.990277
0.990154
0.990068
0.990017
0.989997
0.990001
0.990023
0.990054
0.990093
0.990138
0.990188
0.99024
0.990295
0.990347
0.990393
0.999367
0.998779
0.99825
0.997767
0.997321
0.996906
0.996518
0.996152
0.995806
0.995478
0.995166
0.994867
0.99458
0.994304
0.994037
0.993779
0.993528
0.993284
0.993046
0.992813
0.992584
0.99236
0.992138
0.991919
0.991702
0.991487
0.991276
0.991068
0.990866
0.990674
0.990497
0.990352
0.990258
0.990254
0.990362
0.990544
0.990541
0.990463
0.990927
0.991351
0.991771
0.992165
0.991962
0.991786
0.991667
0.99161
0.991617
0.991685
0.991798
0.991932
0.992064
0.99218
0.992273
0.99234
0.992381
0.992399
0.992395
0.992371
0.992328
0.992264
0.992185
0.992089
0.991974
0.991835
0.991667
0.991458
0.991188
0.990861
0.990496
0.990131
0.989797
0.98952
0.989316
0.989186
0.989123
0.98911
0.989128
0.989162
0.9892
0.989235
0.989261
0.98928
0.989296
0.989308
0.989317
0.989324
0.989332
0.989342
0.989352
0.989357
0.999367
0.998777
0.998248
0.997765
0.997319
0.996904
0.996515
0.996149
0.995803
0.995475
0.995162
0.994863
0.994576
0.9943
0.994033
0.993775
0.993524
0.993279
0.99304
0.992806
0.992576
0.99235
0.992127
0.991906
0.991687
0.991471
0.991262
0.991066
0.99089
0.990746
0.990646
0.990614
0.990678
0.990878
0.991202
0.991497
0.99143
0.991285
0.991806
0.992267
0.992654
0.992964
0.992551
0.992163
0.991846
0.991583
0.991376
0.991234
0.991176
0.991192
0.991259
0.991353
0.991456
0.991552
0.991631
0.991684
0.991708
0.991703
0.991677
0.99162
0.991527
0.991391
0.991205
0.990939
0.990582
0.990178
0.989806
0.989524
0.989369
0.989342
0.989417
0.989554
0.989716
0.989876
0.990021
0.990142
0.990238
0.99031
0.990359
0.990387
0.990397
0.990388
0.990363
0.990324
0.990271
0.990206
0.990131
0.990045
0.989946
0.989828
0.999366
0.998776
0.998246
0.997763
0.997316
0.9969
0.996511
0.996144
0.995798
0.99547
0.995157
0.994857
0.99457
0.994294
0.994027
0.993768
0.993517
0.993272
0.993033
0.992799
0.992568
0.992341
0.992116
0.991894
0.991675
0.991462
0.991271
0.991125
0.991042
0.991029
0.991091
0.991239
0.991482
0.991827
0.99221
0.992342
0.992019
0.991616
0.992248
0.992818
0.993249
0.993503
0.992436
0.991475
0.990721
0.990232
0.989983
0.989928
0.989991
0.990122
0.990284
0.990453
0.990617
0.990761
0.990879
0.990964
0.991004
0.990987
0.99091
0.990767
0.990544
0.990226
0.98988
0.98962
0.989539
0.989633
0.989845
0.990106
0.990366
0.990598
0.990794
0.990952
0.991077
0.991171
0.991241
0.991289
0.99132
0.991336
0.991338
0.991328
0.991309
0.991279
0.991241
0.991195
0.991141
0.99108
0.991012
0.990935
0.990846
0.990741
0.999366
0.998775
0.998245
0.997761
0.997314
0.996897
0.996508
0.996141
0.995794
0.995465
0.995152
0.994852
0.994564
0.994287
0.99402
0.993761
0.993509
0.993264
0.993024
0.992789
0.992558
0.99233
0.992105
0.991883
0.991665
0.991473
0.991397
0.991443
0.991599
0.991824
0.992065
0.992321
0.99258
0.992832
0.992995
0.992739
0.98839
0.989191