/*--------------------------------*- C++ -*----------------------------------*\
| =========                 |                                                 |
| \\      /  F ield         | OpenFOAM: The Open Source CFD Toolbox           |
|  \\    /   O peration     | Version:  v2012                                 |
|   \\  /    A nd           | Website:  www.openfoam.com                      |
|    \\/     M anipulation  |                                                 |
\*---------------------------------------------------------------------------*/
FoamFile
{
    version     2.0;
    format      ascii;
    class       volScalarField;
    location    "350/air";
    object      specHum;
}
// * * * * * * * * * * * * * * * * * * * * * * * * * * * * * * * * * * * * * //

dimensions      [1 -3 0 0 0 0 0];


internalField   nonuniform List<scalar> 
287104
(
0.016
0.016
0.016
0.016
0.016
0.016
0.016
0.016
0.016
0.016
0.016
0.016
0.016
0.016
0.016
0.016
0.016
0.016
0.016
0.016
0.016
0.016
0.016
0.016
0.016
0.016
0.016
0.016
0.016
0.016
0.016
0.016
0.016
0.016
0.016
0.016
0.016
0.016
0.016
0.016
0.016
0.016
0.016
0.016
0.016
0.016
0.016
0.016
0.016
0.016
0.016
0.016
0.016
0.016
0.016
0.016
0.016
0.016
0.016
0.016
0.016
0.016
0.016
0.016
0.016
0.016
0.016
0.016
0.016
0.016
0.016
0.016
0.016
0.016
0.016
0.016
0.016
0.016
0.016
0.016
0.016
0.016
0.016
0.016
0.016
0.016
0.016
0.016
0.016
0.016
0.016
0.016
0.016
0.016
0.016
0.016
0.016
0.016
0.016
0.016
0.016
0.016
0.016
0.016
0.016
0.016
0.016
0.016
0.016
0.016
0.016
0.016
0.016
0.016
0.016
0.016
0.016
0.016
0.016
0.016
0.016
0.016
0.016
0.016
0.016
0.016
0.016
0.016
0.016
0.016
0.016
0.016
0.016
0.016
0.016
0.016
0.016
0.016
0.016
0.016
0.016
0.016
0.016
0.016
0.016
0.016
0.016
0.016
0.016
0.016
0.016
0.016
0.016
0.016
0.016
0.016
0.016
0.016
0.016
0.016
0.016
0.016
0.016
0.016
0.016
0.016
0.016
0.016
0.016
0.016
0.016
0.016
0.016
0.016
0.016
0.016
0.016
0.016
0.016
0.016
0.016
0.016
0.016
0.016
0.016
0.016
0.016
0.016
0.016
0.016
0.016
0.016
0.016
0.016
0.016
0.016
0.016
0.016
0.016
0.016
0.016
0.016
0.016
0.016
0.016
0.016
0.016
0.016
0.016
0.016
0.016
0.016
0.016
0.016
0.016
0.016
0.016
0.016
0.016
0.016
0.016
0.016
0.016
0.016
0.016
0.016
0.016
0.016
0.016
0.016
0.016
0.016
0.016
0.016
0.016
0.016
0.016
0.016
0.016
0.016
0.016
0.016
0.016
0.016
0.016
0.016
0.016
0.016
0.016
0.016
0.016
0.016
0.016
0.016
0.016
0.016
0.016
0.016
0.016
0.016
0.016
0.016
0.016
0.016
0.016
0.016
0.016
0.016
0.016
0.016
0.016
0.016
0.016
0.016
0.016
0.016
0.016
0.016
0.016
0.016
0.016
0.016
0.016
0.016
0.016
0.016
0.016
0.016
0.016
0.016
0.016
0.016
0.016
0.016
0.016
0.016
0.016
0.016
0.016
0.016
0.016
0.016
0.016
0.016
0.016
0.016
0.016
0.016
0.016
0.016
0.016
0.016
0.016
0.016
0.016
0.016
0.016
0.016
0.016
0.016
0.016
0.016
0.016
0.016
0.016
0.016
0.016
0.016
0.016
0.016
0.016
0.016
0.016
0.016
0.016
0.016
0.016
0.016
0.016
0.016
0.016
0.016
0.016
0.016
0.016
0.016
0.016
0.016
0.016
0.016
0.016
0.016
0.016
0.016
0.016
0.016
0.016
0.016
0.016
0.016
0.016
0.016
0.016
0.016
0.016
0.016
0.016
0.016
0.016
0.016
0.016
0.016
0.016
0.016
0.016
0.016
0.016
0.016
0.016
0.016
0.016
0.016
0.016
0.016
0.016
0.016
0.016
0.016
0.016
0.016
0.016
0.016
0.016
0.016
0.016
0.016
0.016
0.016
0.016
0.016
0.016
0.016
0.016
0.016
0.016
0.016
0.016
0.016
0.016
0.016
0.016
0.016
0.016
0.016
0.016
0.016
0.016
0.016
0.016
0.016
0.016
0.016
0.016
0.016
0.016
0.016
0.016
0.016
0.016
0.016
0.016
0.016
0.016
0.016
0.016
0.016
0.016
0.016
0.016
0.0160001
0.0160001
0.0160001
0.0160001
0.0160001
0.0160001
0.0160001
0.0160001
0.0160001
0.0160001
0.0160001
0.016
0.016
0.016
0.016
0.016
0.016
0.016
0.016
0.016
0.016
0.016
0.016
0.016
0.016
0.016
0.016
0.016
0.016
0.016
0.016
0.016
0.016
0.016
0.016
0.016
0.016
0.016
0.016
0.016
0.016
0.016
0.016
0.016
0.016
0.016
0.016
0.016
0.016
0.016
0.016
0.016
0.016
0.016
0.016
0.016
0.016
0.016
0.016
0.016
0.0160001
0.0160001
0.0160001
0.0160001
0.0160001
0.0160001
0.0160001
0.0160001
0.0160001
0.0160001
0.0160001
0.0160001
0.0160001
0.0160001
0.0160001
0.0160001
0.0160001
0.0160001
0.0160001
0.0160001
0.0160001
0.0160001
0.0160001
0.0160002
0.0160002
0.0160002
0.0160002
0.0160002
0.0160002
0.0160002
0.0160002
0.0160002
0.0160002
0.0160002
0.0160002
0.0160002
0.0160002
0.0160003
0.0160003
0.0160003
0.0160003
0.016
0.016
0.016
0.016
0.016
0.016
0.016
0.016
0.016
0.016
0.016
0.016
0.016
0.016
0.016
0.016
0.016
0.016
0.016
0.016
0.016
0.016
0.016
0.016
0.016
0.016
0.016
0.016
0.016
0.016
0.016
0.016
0.0160001
0.0160001
0.0160001
0.0160001
0.0160001
0.0160001
0.0160001
0.0160001
0.0160001
0.0160002
0.0160002
0.0160002
0.0160002
0.0160002
0.0160002
0.0160003
0.0160003
0.0160003
0.0160003
0.0160003
0.0160003
0.0160003
0.0160003
0.0160004
0.0160004
0.0160004
0.0160004
0.0160004
0.0160004
0.0160004
0.0160004
0.0160005
0.0160005
0.0160005
0.0160005
0.0160005
0.0160005
0.0160005
0.0160005
0.0160005
0.0160006
0.0160006
0.0160006
0.0160006
0.0160006
0.0160006
0.0160006
0.0160007
0.0160007
0.0160007
0.0160007
0.0160007
0.0160008
0.0160008
0.0160008
0.0160009
0.0160009
0.0160009
0.016
0.016
0.016
0.016
0.016
0.016
0.016
0.016
0.016
0.016
0.016
0.016
0.016
0.016
0.016
0.016
0.016
0.016
0.016
0.016
0.0160001
0.0160001
0.0160001
0.0160001
0.0160002
0.0160002
0.0160002
0.0160003
0.0160003
0.0160004
0.0160004
0.0160005
0.0160005
0.0160006
0.0160006
0.0160007
0.0160008
0.0160008
0.0160009
0.0160009
0.016001
0.0160011
0.0160011
0.0160012
0.0160012
0.0160013
0.0160013
0.0160013
0.0160014
0.0160014
0.0160014
0.0160014
0.0160015
0.0160015
0.0160015
0.0160016
0.0160016
0.0160016
0.0160016
0.0160017
0.0160017
0.0160017
0.0160018
0.0160018
0.0160018
0.0160019
0.0160019
0.0160019
0.0160019
0.016002
0.016002
0.016002
0.0160021
0.0160021
0.0160021
0.0160021
0.0160022
0.0160022
0.0160022
0.0160022
0.0160023
0.0160023
0.0160023
0.0160023
0.0160024
0.0160024
0.0160024
0.0160024
0.0160024
0.0160024
0.016
0.016
0.016
0.016
0.016
0.016
0.016
0.016
0.016
0.016
0.016
0.016
0.0160001
0.0160001
0.0160002
0.0160003
0.0160005
0.0160006
0.0160008
0.016001
0.0160013
0.0160015
0.0160017
0.016002
0.0160023
0.0160025
0.0160028
0.0160031
0.0160033
0.0160036
0.0160038
0.0160041
0.0160043
0.0160045
0.0160047
0.0160049
0.016005
0.0160051
0.0160053
0.0160054
0.0160056
0.0160058
0.0160059
0.0160061
0.0160063
0.0160065
0.0160066
0.0160068
0.016007
0.0160071
0.0160073
0.0160074
0.0160075
0.0160076
0.0160078
0.0160079
0.016008
0.016008
0.0160081
0.0160082
0.0160083
0.0160083
0.0160084
0.0160084
0.0160084
0.0160085
0.0160085
0.0160085
0.0160085
0.0160085
0.0160085
0.0160085
0.0160085
0.0160085
0.0160084
0.0160084
0.0160084
0.0160083
0.0160083
0.0160083
0.0160082
0.0160082
0.0160081
0.0160081
0.016008
0.016008
0.0160079
0.0160079
0.0160079
0.0160079
0.016
0.016
0.016
0.016
0.016
0.016
0.016
0.016
0.016
0.016
0.0160005
0.0160015
0.0160028
0.0160046
0.0160066
0.0160089
0.0160113
0.0160138
0.0160163
0.0160188
0.0160213
0.0160237
0.0160259
0.016028
0.01603
0.0160317
0.0160333
0.0160347
0.0160359
0.0160369
0.0160376
0.016038
0.0160386
0.0160393
0.0160401
0.0160409
0.0160419
0.0160429
0.0160439
0.0160449
0.0160458
0.0160466
0.0160474
0.016048
0.0160485
0.0160488
0.0160491
0.0160493
0.0160494
0.0160494
0.0160493
0.0160491
0.0160488
0.0160484
0.016048
0.0160475
0.016047
0.0160464
0.0160457
0.016045
0.0160443
0.0160435
0.0160428
0.0160419
0.0160411
0.0160403
0.0160395
0.0160386
0.0160378
0.0160369
0.0160361
0.0160352
0.0160344
0.0160336
0.0160328
0.016032
0.0160312
0.0160304
0.0160297
0.0160289
0.0160279
0.0160269
0.016026
0.016025
0.0160242
0.0160233
0.0160226
0.0160219
0.0160212
0.0160207
0.016
0.016
0.016
0.016
0.016
0.016
0.016
0.016
0.016
0.0160001
0.0160298
0.016059
0.0160881
0.0161171
0.0161462
0.0161752
0.016204
0.0162324
0.0162601
0.0162869
0.0163127
0.0163371
0.01636
0.0163813
0.0164009
0.0164189
0.0164352
0.0164499
0.0164634
0.0164757
0.016487
0.0164976
0.0165069
0.016515
0.0165222
0.0165284
0.0165338
0.0165384
0.0165421
0.016545
0.0165471
0.0165483
0.0165489
0.0165488
0.0165478
0.0165462
0.0165438
0.0165407
0.0165369
0.0165325
0.0165276
0.0165221
0.0165162
0.0165098
0.016503
0.016496
0.0164886
0.016481
0.0164731
0.0164651
0.0164569
0.0164486
0.0164402
0.0164317
0.0164232
0.0164146
0.0164061
0.0163976
0.0163891
0.0163807
0.0163725
0.0163643
0.0163563
0.0163485
0.0163408
0.0163332
0.0163258
0.0163184
0.0163101
0.0162984
0.0162467
0.0162071
0.0161762
0.0161514
0.0161314
0.016115
0.0161016
0.0160905
0.0160815
0.016074
0.016
0.016
0.016
0.016
0.016
0.016
0.016
0.016
0.016
0.0160001
0.0160296
0.0160587
0.0160877
0.0161169
0.0161462
0.0161756
0.0162049
0.0162339
0.0162623
0.01629
0.0163167
0.0163421
0.016366
0.0163882
0.0164087
0.0164275
0.0164444
0.0164598
0.0164737
0.0164863
0.0164978
0.0165084
0.0165185
0.016528
0.0165372
0.0165463
0.0165553
0.0165642
0.0165732
0.0165822
0.0165914
0.0166007
0.0166101
0.0166194
0.0166285
0.0166376
0.0166465
0.0166552
0.0166637
0.0166719
0.0166797
0.0166872
0.0166942
0.0167008
0.0167068
0.0167122
0.0167171
0.0167213
0.0167247
0.0167274
0.0167293
0.0167304
0.0167305
0.0167297
0.0167278
0.0167249
0.016721
0.016716
0.0167099
0.0167028
0.0166946
0.0166855
0.0166754
0.0166646
0.0166529
0.0166406
0.0166278
0.0166144
0.0166005
0.0165852
0.0165117
0.0164479
0.0163927
0.0163449
0.0163037
0.016268
0.0162373
0.0162109
0.0161883
0.016169
0.016
0.016
0.016
0.016
0.016
0.016
0.016
0.016
0.016
0.0160001
0.0160294
0.0160582
0.016087
0.016116
0.0161451
0.0161742
0.0162033
0.016232
0.0162603
0.0162877
0.0163141
0.0163392
0.0163628
0.0163846
0.0164046
0.0164228
0.0164391
0.0164537
0.0164668
0.0164784
0.016489
0.0164986
0.0165076
0.016516
0.0165241
0.016532
0.0165398
0.0165475
0.0165551
0.0165628
0.0165705
0.0165784
0.0165864
0.0165943
0.0166022
0.0166102
0.0166182
0.0166262
0.0166342
0.0166422
0.0166503
0.0166583
0.0166663
0.0166744
0.0166825
0.0166907
0.016699
0.0167073
0.0167158
0.0167243
0.016733
0.0167419
0.0167509
0.01676
0.0167693
0.0167787
0.0167883
0.0167979
0.0168075
0.0168171
0.0168265
0.0168357
0.0168445
0.0168528
0.0168603
0.016867
0.0168725
0.0168767
0.0168792
0.0168793
0.0168102
0.0167469
0.0166879
0.0166323
0.0165798
0.0165302
0.0164833
0.016439
0.0163977
0.0163593
0.016
0.016
0.016
0.016
0.016
0.016
0.016
0.016
0.016
0.0160001
0.0160292
0.0160578
0.0160863
0.0161151
0.0161439
0.0161728
0.0162016
0.0162301
0.0162581
0.0162853
0.0163114
0.0163363
0.0163596
0.0163812
0.016401
0.0164189
0.016435
0.0164493
0.0164621
0.0164735
0.0164838
0.0164931
0.0165018
0.0165099
0.0165177
0.0165253
0.0165328
0.0165402
0.0165475
0.0165549
0.0165622
0.0165697
0.0165773
0.0165848
0.0165921
0.0165995
0.0166069
0.0166141
0.0166213
0.0166284
0.0166354
0.0166423
0.0166489
0.0166552
0.0166612
0.0166669
0.0166725
0.0166779
0.0166831
0.0166882
0.0166931
0.0166978
0.0167024
0.0167069
0.0167112
0.0167155
0.0167197
0.0167239
0.016728
0.0167323
0.0167366
0.016741
0.0167457
0.0167505
0.0167557
0.0167612
0.0167671
0.0167731
0.0167787
0.0167789
0.0167229
0.0166802
0.0166464
0.0166186
0.0165938
0.0165715
0.0165513
0.0165331
0.0165164
0.0164997
0.016
0.016
0.016
0.016
0.016
0.016
0.016
0.016
0.016
0.0160001
0.0160289
0.0160573
0.0160857
0.0161141
0.0161427
0.0161714
0.0161999
0.0162282
0.0162559
0.0162829
0.0163088
0.0163334
0.0163565
0.0163778
0.0163974
0.0164151
0.016431
0.0164452
0.0164578
0.0164691
0.0164792
0.0164885
0.016497
0.016505
0.0165127
0.0165203
0.0165278
0.0165352
0.0165425
0.0165498
0.0165571
0.0165646
0.0165723
0.0165798
0.0165873
0.0165947
0.0166021
0.0166095
0.0166168
0.016624
0.016631
0.016638
0.0166448
0.0166515
0.016658
0.0166644
0.0166706
0.0166767
0.0166826
0.0166882
0.0166936
0.0166987
0.0167037
0.0167085
0.016713
0.0167174
0.0167215
0.0167253
0.0167289
0.0167321
0.016735
0.0167375
0.0167396
0.0167413
0.0167425
0.0167432
0.0167433
0.0167426
0.0167405
0.0167324
0.016672
0.0166245
0.0165856
0.0165528
0.0165245
0.0164998
0.0164782
0.0164593
0.0164433
0.0164309
0.016
0.016
0.016
0.016
0.016
0.016
0.016
0.016
0.016
0.0160001
0.0160287
0.0160569
0.016085
0.0161132
0.0161416
0.01617
0.0161983
0.0162263
0.0162538
0.0162805
0.0163061
0.0163305
0.0163533
0.0163745
0.0163938
0.0164114
0.0164271
0.0164411
0.0164537
0.0164649
0.0164749
0.0164841
0.0164926
0.0165006
0.0165083
0.0165159
0.0165235
0.0165309
0.0165383
0.0165457
0.0165531
0.0165608
0.0165686
0.0165764
0.0165841
0.0165918
0.0165995
0.0166072
0.0166148
0.0166224
0.0166299
0.0166373
0.0166446
0.0166517
0.0166588
0.0166658
0.0166726
0.0166794
0.0166862
0.0166928
0.0166994
0.016706
0.0167125
0.0167191
0.0167255
0.0167319
0.0167383
0.0167447
0.0167509
0.0167571
0.0167632
0.0167692
0.0167751
0.0167808
0.0167864
0.0167917
0.0167969
0.0168017
0.0168053
0.0168019
0.016742
0.0166949
0.0166564
0.0166239
0.0165958
0.0165712
0.0165495
0.0165304
0.0165138
0.0164986
0.016
0.016
0.016
0.016
0.016
0.016
0.016
0.016
0.016
0.0160001
0.0160285
0.0160564
0.0160843
0.0161123
0.0161404
0.0161686
0.0161967
0.0162244
0.0162516
0.0162781
0.0163035
0.0163276
0.0163502
0.0163711
0.0163903
0.0164075
0.0164231
0.0164369
0.0164493
0.0164604
0.0164704
0.0164794
0.0164878
0.0164957
0.0165032
0.0165106
0.016518
0.0165253
0.0165325
0.0165397
0.016547
0.0165546
0.0165625
0.0165703
0.0165781
0.016586
0.0165941
0.0166021
0.0166102
0.0166183
0.0166263
0.0166342
0.016642
0.0166498
0.0166575
0.0166652
0.0166728
0.0166804
0.016688
0.0166957
0.0167034
0.0167111
0.0167189
0.0167268
0.0167348
0.0167429
0.0167511
0.0167594
0.0167678
0.0167764
0.016785
0.0167938
0.0168026
0.0168115
0.0168205
0.0168295
0.0168386
0.0168477
0.0168567
0.0168649
0.0168124
0.0167682
0.0167299
0.016696
0.0166657
0.0166383
0.0166132
0.0165901
0.0165688
0.0165489
0.016
0.016
0.016
0.016
0.016
0.016
0.016
0.016
0.016
0.0160001
0.0160283
0.016056
0.0160837
0.0161115
0.0161393
0.0161673
0.0161951
0.0162226
0.0162495
0.0162757
0.0163008
0.0163245
0.0163467
0.0163672
0.0163858
0.0164026
0.0164174
0.0164306
0.0164422
0.0164525
0.0164616
0.0164697
0.0164769
0.0164836
0.0164898
0.0164958
0.0165017
0.0165075
0.0165131
0.0165189
0.016525
0.0165315
0.0165385
0.0165457
0.016553
0.0165607
0.0165686
0.0165767
0.0165849
0.016593
0.016601
0.0166089
0.0166166
0.0166242
0.0166316
0.0166389
0.0166461
0.0166531
0.01666
0.0166669
0.0166736
0.0166803
0.0166869
0.0166934
0.0166999
0.0167063
0.0167126
0.0167188
0.016725
0.0167309
0.0167368
0.0167424
0.0167478
0.016753
0.0167579
0.0167625
0.0167667
0.0167705
0.0167737
0.0167758
0.0167169
0.0166653
0.0166193
0.0165778
0.0165398
0.016505
0.016473
0.0164435
0.0164165
0.0163916
0.016
0.016
0.016
0.016
0.016
0.016
0.016
0.016
0.016
0.0160001
0.016028
0.0160556
0.016083
0.0161106
0.0161382
0.0161658
0.0161933
0.0162203
0.0162466
0.0162719
0.0162958
0.0163181
0.0163384
0.0163566
0.0163726
0.0163864
0.016398
0.0164077
0.0164158
0.0164223
0.0164276
0.0164318
0.0164352
0.0164378
0.01644
0.016442
0.0164441
0.0164462
0.0164485
0.0164514
0.016455
0.0164597
0.0164655
0.016472
0.0164792
0.0164871
0.0164955
0.0165042
0.016513
0.0165217
0.0165302
0.0165382
0.0165458
0.016553
0.0165596
0.0165658
0.0165715
0.0165766
0.0165813
0.0165855
0.0165892
0.0165926
0.0165955
0.016598
0.0166002
0.016602
0.0166034
0.0166046
0.0166054
0.0166058
0.0166058
0.0166055
0.0166047
0.0166035
0.0166019
0.0165999
0.0165973
0.0165941
0.0165903
0.0165848
0.016524
0.0164727
0.0164285
0.01639
0.016356
0.0163258
0.0162989
0.016275
0.016254
0.0162355
0.016
0.016
0.016
0.016
0.016
0.016
0.016
0.016
0.016
0.0160001
0.0160278
0.016055
0.0160821
0.0161089
0.0161352
0.0161607
0.016185
0.0162077
0.0162284
0.0162468
0.0162627
0.0162761
0.0162869
0.0162953
0.0163014
0.0163057
0.0163083
0.0163096
0.0163098
0.0163091
0.0163078
0.0163061
0.0163039
0.0163015
0.0162991
0.0162969
0.0162952
0.016294
0.0162936
0.0162943
0.0162965
0.0163003
0.0163058
0.0163127
0.0163208
0.0163301
0.0163405
0.0163514
0.0163627
0.0163738
0.0163846
0.0163946
0.0164037
0.0164117
0.0164185
0.0164241
0.0164283
0.016431
0.0164323
0.0164326
0.0164319
0.0164305
0.0164286
0.0164263
0.0164237
0.0164207
0.0164176
0.0164142
0.0164106
0.0164069
0.016403
0.0163988
0.0163945
0.01639
0.0163853
0.0163803
0.016375
0.0163693
0.0163626
0.0163519
0.0163011
0.0162616
0.0162299
0.0162038
0.0161821
0.0161638
0.0161483
0.0161351
0.0161239
0.0161146
0.016
0.016
0.016
0.016
0.016
0.016
0.016
0.016
0.016
0.016
0.0160001
0.0160004
0.0160006
0.0160009
0.0160013
0.0160017
0.0160021
0.0160025
0.016003
0.0160035
0.016004
0.0160044
0.0160049
0.0160053
0.0160058
0.0160061
0.0160065
0.0160068
0.0160071
0.0160074
0.0160076
0.0160078
0.0160079
0.0160081
0.0160081
0.0160082
0.0160083
0.0160083
0.0160084
0.0160085
0.0160086
0.0160087
0.016009
0.0160092
0.0160096
0.0160099
0.0160104
0.0160108
0.0160114
0.0160119
0.0160125
0.0160131
0.0160137
0.0160144
0.016015
0.0160156
0.0160163
0.0160169
0.0160175
0.0160181
0.0160186
0.0160192
0.0160197
0.0160202
0.0160207
0.0160212
0.0160216
0.016022
0.0160224
0.0160228
0.0160231
0.0160235
0.0160238
0.016024
0.0160243
0.0160245
0.0160247
0.0160249
0.016025
0.016025
0.0160248
0.0160245
0.0160242
0.0160238
0.0160234
0.0160231
0.0160228
0.0160225
0.0160223
0.016022
0.016
0.016
0.016
0.016
0.016
0.016
0.016
0.016
0.016
0.016
0.016
0.016
0.016
0.016
0.016
0.016
0.016
0.016
0.016
0.016
0.016
0.0160001
0.0160001
0.0160001
0.0160001
0.0160001
0.0160001
0.0160001
0.0160001
0.0160001
0.0160002
0.0160002
0.0160002
0.0160002
0.0160002
0.0160002
0.0160002
0.0160002
0.0160002
0.0160002
0.0160002
0.0160002
0.0160003
0.0160003
0.0160003
0.0160003
0.0160003
0.0160003
0.0160004
0.0160004
0.0160004
0.0160005
0.0160005
0.0160005
0.0160006
0.0160006
0.0160006
0.0160007
0.0160007
0.0160008
0.0160008
0.0160009
0.0160009
0.016001
0.016001
0.0160011
0.0160012
0.0160012
0.0160013
0.0160014
0.0160015
0.0160016
0.0160017
0.0160017
0.0160018
0.016002
0.0160021
0.0160022
0.0160023
0.0160024
0.0160026
0.0160027
0.0160029
0.016003
0.0160032
0.0160034
0.0160035
0.0160037
0.0160039
0.0160041
0.016
0.016
0.016
0.016
0.016
0.016
0.016
0.016
0.016
0.016
0.016
0.016
0.016
0.016
0.016
0.016
0.016
0.016
0.016
0.016
0.016
0.016
0.016
0.016
0.016
0.016
0.016
0.016
0.016
0.016
0.016
0.016
0.016
0.016
0.016
0.016
0.016
0.016
0.016
0.016
0.016
0.016
0.016
0.016
0.016
0.016
0.016
0.0160001
0.0160001
0.0160001
0.0160001
0.0160001
0.0160001
0.0160001
0.0160001
0.0160001
0.0160001
0.0160001
0.0160002
0.0160002
0.0160002
0.0160002
0.0160002
0.0160003
0.0160003
0.0160003
0.0160004
0.0160004
0.0160004
0.0160005
0.0160005
0.0160006
0.0160006
0.0160007
0.0160008
0.0160008
0.0160009
0.016001
0.016001
0.0160011
0.0160012
0.0160013
0.0160014
0.0160015
0.0160016
0.0160017
0.0160018
0.016002
0.0160021
0.0160022
0.016
0.016
0.016
0.016
0.016
0.016
0.016
0.016
0.016
0.016
0.016
0.016
0.016
0.016
0.016
0.016
0.016
0.016
0.016
0.016
0.016
0.016
0.016
0.016
0.016
0.016
0.016
0.016
0.016
0.016
0.016
0.016
0.016
0.016
0.016
0.016
0.016
0.016
0.016
0.016
0.016
0.016
0.0160001
0.0160001
0.0160001
0.0160002
0.0160002
0.0160002
0.0160002
0.0160003
0.0160003
0.0160003
0.0160003
0.0160004
0.0160004
0.0160004
0.0160005
0.0160005
0.0160006
0.0160006
0.0160007
0.0160008
0.0160008
0.0160009
0.016001
0.0160011
0.0160012
0.0160013
0.0160014
0.0160015
0.0160016
0.0160018
0.0160019
0.016002
0.0160021
0.0160023
0.0160024
0.0160025
0.0160026
0.0160028
0.0160029
0.016003
0.0160031
0.0160033
0.0160034
0.0160035
0.0160036
0.0160037
0.0160038
0.0160039
0.016
0.016
0.016
0.016
0.016
0.016
0.016
0.016
0.016
0.016
0.016
0.016
0.016
0.016
0.016
0.016
0.016
0.016
0.016
0.016
0.016
0.016
0.016
0.016
0.016
0.016
0.016
0.016
0.016
0.016
0.016
0.016
0.016
0.016
0.016
0.016
0.016
0.016
0.016
0.016
0.0160001
0.0160002
0.0160004
0.0160006
0.0160008
0.016001
0.0160012
0.0160014
0.0160015
0.0160017
0.0160019
0.016002
0.0160022
0.0160025
0.0160027
0.016003
0.0160033
0.0160036
0.0160039
0.0160043
0.0160047
0.0160051
0.0160055
0.0160059
0.0160063
0.0160068
0.0160072
0.0160076
0.016008
0.0160084
0.0160088
0.0160091
0.0160095
0.0160098
0.0160101
0.0160104
0.0160106
0.0160109
0.0160111
0.0160112
0.0160114
0.0160115
0.0160117
0.0160118
0.0160118
0.0160119
0.016012
0.016012
0.016012
0.016012
0.016
0.016
0.016
0.016
0.016
0.016
0.016
0.016
0.016
0.016
0.016
0.016
0.016
0.016
0.016
0.016
0.016
0.016
0.016
0.016
0.016
0.016
0.016
0.016
0.016
0.016
0.016
0.016
0.016
0.016
0.016
0.016
0.016
0.016
0.016
0.016
0.016
0.016
0.0160001
0.0160003
0.0160008
0.0160015
0.0160024
0.0160035
0.0160046
0.0160057
0.0160068
0.0160079
0.016009
0.01601
0.016011
0.016012
0.0160131
0.0160143
0.0160154
0.0160165
0.0160177
0.0160188
0.0160199
0.016021
0.016022
0.016023
0.016024
0.0160249
0.0160258
0.0160266
0.0160274
0.0160281
0.0160288
0.0160294
0.0160299
0.0160304
0.0160308
0.0160312
0.0160315
0.0160318
0.016032
0.0160322
0.0160323
0.0160324
0.0160324
0.0160324
0.0160324
0.0160324
0.0160323
0.0160322
0.0160321
0.016032
0.0160318
0.0160317
0.016
0.016
0.016
0.016
0.016
0.016
0.016
0.016
0.016
0.016
0.016
0.016
0.016
0.016
0.016
0.016
0.016
0.016
0.016
0.016
0.016
0.016
0.016
0.016
0.016
0.016
0.016
0.016
0.016
0.016
0.016
0.016
0.016
0.016
0.016
0.016
0.016
0.016
0.0160004
0.0160017
0.0160043
0.0160078
0.0160119
0.0160162
0.0160205
0.0160248
0.0160287
0.0160324
0.0160358
0.0160388
0.0160415
0.0160441
0.0160464
0.0160485
0.0160504
0.0160521
0.0160537
0.0160551
0.0160564
0.0160576
0.0160587
0.0160597
0.0160606
0.0160614
0.0160621
0.0160628
0.0160634
0.0160639
0.0160643
0.0160647
0.0160649
0.0160651
0.0160653
0.0160653
0.0160654
0.0160653
0.0160652
0.016065
0.0160648
0.0160646
0.0160643
0.016064
0.0160636
0.0160632
0.0160629
0.0160625
0.0160622
0.0160619
0.0160616
0.0160614
0.016
0.016
0.016
0.016
0.016
0.016
0.016
0.016
0.016
0.016
0.016
0.016
0.016
0.016
0.016
0.016
0.016
0.016
0.016
0.016
0.016
0.016
0.016
0.016
0.016
0.016
0.016
0.016
0.016
0.016
0.016
0.016
0.016
0.016
0.016
0.016
0.016
0.0160001
0.0160021
0.0160081
0.016018
0.0160297
0.0160413
0.0160522
0.016062
0.0160704
0.0160776
0.0160836
0.0160886
0.0160926
0.0160959
0.0160984
0.0161004
0.0161019
0.0161031
0.0161039
0.0161045
0.016105
0.0161052
0.0161054
0.0161055
0.0161055
0.0161055
0.0161054
0.0161053
0.0161051
0.0161049
0.0161047
0.0161044
0.0161041
0.0161037
0.0161033
0.0161028
0.0161023
0.0161017
0.0161011
0.0161004
0.0160997
0.0160989
0.0160981
0.0160972
0.0160963
0.0160954
0.0160945
0.0160936
0.0160927
0.0160918
0.0160909
0.01609
0.0160891
0.016
0.016
0.016
0.016
0.016
0.016
0.016
0.016
0.016
0.016
0.016
0.016
0.016
0.016
0.016
0.016
0.016
0.016
0.016
0.016
0.016
0.016
0.016
0.016
0.016
0.016
0.016
0.016
0.016
0.016
0.016
0.016
0.016
0.016
0.016
0.016
0.016
0.0160003
0.0160084
0.0160259
0.0160485
0.0160709
0.0160899
0.0161054
0.0161178
0.0161277
0.0161355
0.0161415
0.0161461
0.0161494
0.0161515
0.0161527
0.0161531
0.016153
0.0161524
0.0161515
0.0161505
0.0161493
0.0161481
0.0161469
0.0161456
0.0161444
0.0161432
0.0161421
0.0161409
0.0161398
0.0161387
0.0161377
0.0161366
0.0161355
0.0161344
0.0161332
0.016132
0.0161308
0.0161296
0.0161283
0.016127
0.0161256
0.0161242
0.0161228
0.0161214
0.01612
0.0161185
0.0161171
0.0161157
0.0161142
0.0161128
0.0161114
0.0161101
0.0161087
0.016
0.016
0.016
0.016
0.016
0.016
0.016
0.016
0.016
0.016
0.016
0.016
0.016
0.016
0.016
0.016
0.016
0.016
0.016
0.016
0.016
0.016
0.016
0.016
0.016
0.016
0.016
0.016
0.016
0.016
0.016
0.016
0.016
0.016
0.016
0.0160001
0.0160001
0.0160005
0.0160092
0.0160286
0.0160537
0.0160782
0.0160994
0.0161171
0.0161315
0.016143
0.0161522
0.0161596
0.0161652
0.0161695
0.0161725
0.0161743
0.0161752
0.0161754
0.016175
0.0161741
0.016173
0.0161716
0.0161701
0.0161685
0.0161668
0.0161652
0.0161636
0.016162
0.0161604
0.0161589
0.0161574
0.0161559
0.0161544
0.0161529
0.0161514
0.0161499
0.0161484
0.0161469
0.0161453
0.0161437
0.0161421
0.0161404
0.0161387
0.016137
0.0161353
0.0161336
0.0161319
0.0161302
0.0161284
0.0161268
0.0161251
0.0161235
0.0161219
0.0161204
0.016
0.016
0.016
0.016
0.016
0.016
0.016
0.016
0.016
0.016
0.016
0.016
0.016
0.016
0.016
0.016
0.016
0.016
0.016
0.016
0.016
0.016
0.016
0.016
0.016
0.016
0.016
0.016
0.016
0.016
0.016
0.016
0.016
0.016
0.0160001
0.0160002
0.0160004
0.0160008
0.0160088
0.0160269
0.0160507
0.0160742
0.0160944
0.0161113
0.016125
0.0161363
0.0161454
0.0161528
0.0161586
0.0161633
0.0161669
0.0161696
0.0161716
0.0161729
0.0161735
0.0161737
0.0161734
0.0161728
0.016172
0.0161709
0.0161698
0.0161685
0.0161672
0.0161658
0.0161644
0.016163
0.0161615
0.0161601
0.0161587
0.0161572
0.0161558
0.0161544
0.0161529
0.0161514
0.0161499
0.0161484
0.0161469
0.0161453
0.0161437
0.0161421
0.0161405
0.0161389
0.0161372
0.0161356
0.0161339
0.0161323
0.0161307
0.0161291
0.0161275
0.016126
0.016
0.016
0.016
0.016
0.016
0.016
0.016
0.016
0.016
0.016
0.016
0.016
0.016
0.016
0.016
0.016
0.016
0.016
0.016
0.016
0.016
0.016
0.016
0.016
0.016
0.016
0.016
0.016
0.016
0.016
0.016
0.016
0.0160001
0.0160002
0.0160005
0.0160011
0.0160017
0.0160022
0.0160082
0.0160222
0.016041
0.0160596
0.0160755
0.0160887
0.0160994
0.0161083
0.0161156
0.0161221
0.0161279
0.0161331
0.0161378
0.016142
0.0161456
0.0161487
0.0161512
0.0161532
0.0161547
0.0161557
0.0161563
0.0161566
0.0161566
0.0161564
0.016156
0.0161554
0.0161547
0.0161539
0.016153
0.016152
0.0161511
0.01615
0.016149
0.0161479
0.0161469
0.0161458
0.0161447
0.0161436
0.0161425
0.0161413
0.0161402
0.016139
0.0161379
0.0161367
0.0161355
0.0161342
0.016133
0.0161317
0.0161305
0.0161292
0.016128
0.0161267
0.016
0.016
0.016
0.016
0.016
0.016
0.016
0.016
0.016
0.016
0.016
0.016
0.016
0.016
0.016
0.016
0.016
0.016
0.016
0.016
0.016
0.016
0.016
0.016
0.016
0.016
0.016
0.016
0.016
0.016
0.016
0.0160001
0.0160003
0.0160009
0.0160021
0.0160045
0.0160063
0.0160073
0.0160076
0.016009
0.0160126
0.0160177
0.0160234
0.0160297
0.0160365
0.0160434
0.0160507
0.0160582
0.0160661
0.0160741
0.0160819
0.0160895
0.0160967
0.0161032
0.016109
0.0161141
0.0161185
0.0161221
0.0161251
0.0161275
0.0161294
0.0161308
0.0161319
0.0161326
0.0161329
0.0161331
0.016133
0.0161327
0.0161321
0.0161312
0.0161301
0.0161287
0.0161272
0.0161257
0.0161243
0.0161231
0.0161222
0.0161215
0.0161212
0.0161211
0.0161214
0.0161218
0.0161222
0.0161224
0.0161225
0.0161225
0.0161223
0.0161221
0.0161217
0.0161213
0.016
0.016
0.016
0.016
0.016
0.016
0.016
0.016
0.016
0.016
0.016
0.016
0.016
0.016
0.016
0.016
0.016
0.016
0.016
0.016
0.016
0.016
0.016
0.016
0.016
0.016
0.016
0.016
0.016
0.0160001
0.0160002
0.0160006
0.0160014
0.0160032
0.016007
0.0160147
0.0160189
0.0160212
0.0160221
0.016022
0.016022
0.0160223
0.016023
0.016024
0.0160254
0.0160272
0.0160298
0.0160332
0.0160376
0.0160429
0.0160489
0.0160554
0.0160619
0.0160684
0.0160747
0.0160804
0.0160856
0.0160903
0.0160943
0.0160978
0.0161007
0.016103
0.0161049
0.0161063
0.0161072
0.0161077
0.0161074
0.0161064
0.0161049
0.0161031
0.0161013
0.0160994
0.0160976
0.0160959
0.0160946
0.0160935
0.0160926
0.0160921
0.0160918
0.0160917
0.0160918
0.0160922
0.0160931
0.0160943
0.0160958
0.0160975
0.0160993
0.0161011
0.0161028
0.0161044
0.016
0.016
0.016
0.016
0.016
0.016
0.016
0.016
0.016
0.016
0.016
0.016
0.016
0.016
0.016
0.016
0.016
0.016
0.016
0.016
0.016
0.016
0.016
0.016
0.016
0.016
0.016
0.016
0.0160001
0.0160004
0.016001
0.0160022
0.0160046
0.0160096
0.0160191
0.0160366
0.0160423
0.0160453
0.0160469
0.0160474
0.0160474
0.0160473
0.0160473
0.0160475
0.0160476
0.0160475
0.0160473
0.0160471
0.0160471
0.0160478
0.0160493
0.0160516
0.0160546
0.0160582
0.0160621
0.016066
0.0160698
0.0160735
0.0160768
0.0160797
0.0160822
0.0160842
0.0160857
0.0160867
0.0160869
0.0160866
0.0160862
0.0160858
0.0160854
0.016085
0.0160846
0.0160843
0.016084
0.0160838
0.0160835
0.0160834
0.0160832
0.0160832
0.0160831
0.0160832
0.0160833
0.0160834
0.0160836
0.0160839
0.0160842
0.0160846
0.0160851
0.0160857
0.0160863
0.016087
0.016
0.016
0.016
0.016
0.016
0.016
0.016
0.016
0.016
0.016
0.016
0.016
0.016
0.016
0.016
0.016
0.016
0.016
0.016
0.016
0.016
0.016
0.016
0.016
0.016
0.016
0.016
0.0160002
0.0160007
0.0160018
0.0160038
0.0160074
0.0160135
0.0160241
0.0160419
0.0160702
0.0160713
0.0160724
0.0160733
0.0160741
0.016074
0.0160736
0.0160733
0.0160733
0.0160743
0.0160745
0.0160737
0.0160707
0.0160672
0.0160642
0.016062
0.016061
0.016061
0.0160618
0.0160633
0.0160651
0.0160672
0.0160693
0.0160713
0.0160731
0.0160746
0.0160759
0.0160771
0.0160783
0.0160796
0.0160807
0.0160814
0.0160819
0.016082
0.016082
0.0160819
0.0160817
0.0160814
0.0160812
0.0160809
0.0160807
0.0160805
0.0160804
0.0160803
0.0160802
0.0160802
0.0160802
0.0160802
0.0160803
0.0160804
0.0160806
0.0160808
0.016081
0.0160813
0.0160816
0.016
0.016
0.016
0.016
0.016
0.016
0.016
0.016
0.016
0.016
0.016
0.016
0.016
0.016
0.016
0.016
0.016
0.016
0.016
0.016
0.016
0.016
0.016
0.016
0.016
0.016
0.0160002
0.0160011
0.0160034
0.0160074
0.0160134
0.0160219
0.0160337
0.0160501
0.016073
0.0161018
0.016091
0.0160896
0.0160881
0.0160861
0.0160799
0.0160739
0.0160704
0.0160685
0.0160675
0.0160672
0.0160676
0.0160684
0.0160694
0.0160707
0.0160726
0.016075
0.0160776
0.0160799
0.0160814
0.0160821
0.0160824
0.0160823
0.0160821
0.0160817
0.0160813
0.0160809
0.0160805
0.0160801
0.0160797
0.0160793
0.016079
0.0160787
0.0160785
0.0160783
0.0160782
0.0160781
0.016078
0.0160779
0.0160779
0.016078
0.016078
0.0160781
0.0160782
0.0160784
0.0160785
0.0160787
0.016
0.016
0.016
0.016
0.016
0.016
0.016
0.016
0.016
0.016
0.016
0.016
0.016
0.016
0.016
0.016
0.016
0.016
0.016
0.016
0.016
0.016
0.016
0.016
0.016
0.0160001
0.0160013
0.0160058
0.0160145
0.0160266
0.0160406
0.0160564
0.0160736
0.0160922
0.0161125
0.0161293
0.0160921
0.0160911
0.01609
0.0160887
0.0160872
0.0160853
0.0160827
0.0160802
0.0160786
0.0160781
0.0160791
0.0160811
0.0160832
0.0160844
0.0160847
0.0160846
0.0160842
0.0160838
0.0160832
0.0160826
0.016082
0.0160813
0.0160807
0.01608
0.0160795
0.0160789
0.0160784
0.016078
0.0160775
0.0160772
0.0160769
0.0160766
0.0160764
0.0160762
0.016076
0.0160759
0.0160759
0.0160758
0.0160758
0.0160759
0.0160759
0.016076
0.0160761
0.0160762
0.0160764
0.0160765
0.016
0.016
0.016
0.016
0.016
0.016
0.016
0.016
0.016
0.016
0.016
0.016
0.016
0.016
0.016
0.016
0.016
0.016
0.016
0.016
0.016
0.016
0.016
0.016
0.016
0.0160002
0.0160067
0.0160229
0.0160457
0.0160697
0.0160916
0.0161109
0.0161276