/*--------------------------------*- C++ -*----------------------------------*\
| =========                 |                                                 |
| \\      /  F ield         | OpenFOAM: The Open Source CFD Toolbox           |
|  \\    /   O peration     | Version:  v2012                                 |
|   \\  /    A nd           | Website:  www.openfoam.com                      |
|    \\/     M anipulation  |                                                 |
\*---------------------------------------------------------------------------*/
FoamFile
{
    version     2.0;
    format      ascii;
    class       volScalarField;
    location    "350/air";
    object      TLeaf;
}
// * * * * * * * * * * * * * * * * * * * * * * * * * * * * * * * * * * * * * //

dimensions      [0 0 0 1 0 0 0];


internalField   nonuniform List<scalar> 
287104
(
310.32
310.618
310.885
311.128
311.353
311.562
311.757
311.941
312.114
312.279
312.435
312.584
312.727
312.865
312.997
313.125
313.248
313.368
313.485
313.598
313.709
313.817
313.922
314.026
314.127
314.227
314.325
314.421
314.515
314.608
314.7
314.79
314.879
314.967
315.053
315.138
315.223
315.306
315.388
315.469
315.549
315.629
315.707
315.784
315.86
315.936
316.01
316.084
316.157
316.229
316.3
316.37
316.44
316.508
316.576
316.643
316.709
316.774
316.838
316.902
316.964
317.026
317.087
317.148
317.208
317.267
317.325
317.383
317.44
317.496
317.552
317.607
317.662
317.716
317.77
317.823
317.875
317.928
317.979
318.03
318.081
318.132
318.184
318.235
318.286
318.338
318.391
318.444
318.502
318.569
310.315
310.61
310.873
311.113
311.334
311.54
311.733
311.913
312.084
312.245
312.399
312.546
312.686
312.821
312.95
313.076
313.197
313.314
313.428
313.539
313.648
313.753
313.857
313.958
314.057
314.154
314.249
314.343
314.435
314.526
314.615
314.703
314.789
314.874
314.959
315.042
315.123
315.204
315.284
315.363
315.441
315.517
315.593
315.668
315.742
315.816
315.888
315.959
316.03
316.1
316.168
316.236
316.304
316.37
316.436
316.5
316.564
316.627
316.69
316.751
316.812
316.872
316.931
316.99
317.048
317.105
317.161
317.217
317.273
317.327
317.381
317.435
317.488
317.541
317.593
317.644
317.695
317.746
317.796
317.846
317.896
317.945
317.995
318.045
318.095
318.146
318.197
318.249
318.305
318.371
310.311
310.601
310.861
311.098
311.316
311.519
311.709
311.887
312.055
312.215
312.366
312.511
312.649
312.782
312.91
313.033
313.152
313.268
313.38
313.49
313.596
313.7
313.802
313.901
313.998
314.094
314.188
314.279
314.37
314.459
314.546
314.632
314.717
314.801
314.883
314.964
315.044
315.123
315.201
315.278
315.354
315.429
315.503
315.576
315.648
315.719
315.79
315.859
315.928
315.996
316.062
316.128
316.193
316.258
316.321
316.384
316.446
316.507
316.567
316.626
316.684
316.742
316.799
316.855
316.911
316.966
317.02
317.073
317.126
317.178
317.23
317.281
317.331
317.381
317.43
317.479
317.527
317.575
317.622
317.668
317.715
317.761
317.808
317.854
317.901
317.948
317.995
318.043
318.096
318.158
310.307
310.593
310.849
311.083
311.298
311.499
311.686
311.862
312.028
312.185
312.334
312.477
312.613
312.744
312.87
312.992
313.11
313.224
313.335
313.443
313.548
313.65
313.75
313.848
313.944
314.038
314.131
314.221
314.31
314.398
314.484
314.569
314.652
314.734
314.816
314.895
314.974
315.052
315.129
315.204
315.279
315.353
315.425
315.497
315.568
315.638
315.707
315.776
315.843
315.909
315.975
316.04
316.104
316.167
316.229
316.291
316.351
316.411
316.47
316.528
316.586
316.642
316.698
316.753
316.808
316.862
316.915
316.967
317.019
317.07
317.121
317.171
317.221
317.27
317.319
317.367
317.414
317.462
317.508
317.555
317.601
317.647
317.694
317.74
317.787
317.834
317.882
317.931
317.984
318.047
310.303
310.585
310.838
311.068
311.281
311.478
311.663
311.836
312
312.155
312.303
312.443
312.578
312.707
312.832
312.952
313.068
313.18
313.29
313.396
313.5
313.601
313.7
313.796
313.891
313.984
314.075
314.164
314.252
314.338
314.423
314.506
314.588
314.669
314.749
314.827
314.905
314.981
315.057
315.131
315.204
315.276
315.348
315.418
315.487
315.556
315.624
315.69
315.756
315.821
315.885
315.948
316.011
316.072
316.133
316.193
316.252
316.31
316.368
316.424
316.48
316.535
316.59
316.643
316.696
316.749
316.801
316.852
316.902
316.952
317.002
317.051
317.1
317.148
317.196
317.244
317.291
317.338
317.385
317.431
317.478
317.524
317.571
317.618
317.666
317.714
317.763
317.813
317.867
317.931
310.299
310.577
310.826
311.054
311.263
311.458
311.64
311.811
311.973
312.126
312.271
312.41
312.543
312.671
312.794
312.912
313.027
313.138
313.246
313.351
313.453
313.553
313.65
313.745
313.839
313.93
314.02
314.108
314.194
314.279
314.363
314.445
314.525
314.605
314.683
314.76
314.836
314.911
314.985
315.057
315.129
315.199
315.269
315.337
315.405
315.471
315.537
315.601
315.665
315.727
315.789
315.85
315.909
315.968
316.026
316.083
316.14
316.195
316.249
316.303
316.356
316.408
316.459
316.51
316.559
316.609
316.657
316.705
316.752
316.799
316.845
316.89
316.935
316.98
317.024
317.067
317.111
317.153
317.196
317.238
317.279
317.321
317.362
317.404
317.445
317.486
317.527
317.569
317.613
317.666
310.294
310.569
310.815
311.039
311.246
311.438
311.618
311.787
311.946
312.097
312.241
312.378
312.509
312.635
312.756
312.873
312.987
313.096
313.203
313.307
313.408
313.506
313.602
313.697
313.789
313.879
313.967
314.053
314.138
314.222
314.304
314.384
314.463
314.54
314.616
314.691
314.765
314.837
314.908
314.977
315.046
315.113
315.178
315.243
315.305
315.366
315.426
315.484
315.54
315.595
315.649
315.702
315.753
315.804
315.853
315.901
315.948
315.994
316.04
316.084
316.127
316.17
316.211
316.252
316.292
316.332
316.37
316.408
316.444
316.48
316.515
316.549
316.582
316.615
316.646
316.676
316.706
316.734
316.762
316.789
316.814
316.839
316.864
316.888
316.912
316.936
316.959
316.981
317.004
317.035
310.29
310.561
310.804
311.025
311.229
311.419
311.596
311.763
311.92
312.069
312.211
312.346
312.475
312.6
312.72
312.835
312.947
313.056
313.161
313.264
313.364
313.461
313.557
313.649
313.74
313.829
313.916
314.001
314.084
314.165
314.244
314.322
314.397
314.47
314.54
314.608
314.673
314.737
314.798
314.857
314.913
314.968
315.021
315.071
315.12
315.167
315.212
315.256
315.297
315.337
315.374
315.41
315.443
315.475
315.504
315.532
315.558
315.581
315.604
315.624
315.643
315.659
315.675
315.688
315.7
315.711
315.72
315.727
315.734
315.738
315.742
315.744
315.746
315.746
315.745
315.743
315.739
315.735
315.73
315.724
315.718
315.711
315.704
315.698
315.692
315.688
315.686
315.689
315.71
315.758
310.286
310.553
310.793
311.011
311.212
311.399
311.574
311.739
311.894
312.041
312.181
312.315
312.444
312.568
312.688
312.805
312.919
313.029
313.137
313.241
313.343
313.443
313.539
313.633
313.724
313.81
313.892
313.971
314.046
314.117
314.186
314.251
314.312
314.371
314.427
314.48
314.529
314.575
314.619
314.66
314.699
314.735
314.769
314.799
314.827
314.853
314.876
314.896
314.913
314.929
314.942
314.954
314.964
314.972
314.978
314.983
314.986
314.988
314.988
314.987
314.985
314.981
314.977
314.971
314.964
314.956
314.948
314.938
314.928
314.917
314.905
314.893
314.88
314.866
314.853
314.838
314.824
314.809
314.793
314.777
314.76
314.744
314.728
314.713
314.699
314.686
314.674
314.665
314.667
314.685
310.282
310.546
310.782
310.997
311.196
311.38
311.553
311.715
311.868
312.014
312.156
312.298
312.442
312.586
312.729
312.871
313.01
313.146
313.278
313.406
313.529
313.647
313.761
313.87
313.972
314.068
314.158
314.243
314.324
314.4
314.471
314.54
314.606
314.67
314.733
314.795
314.854
314.912
314.967
315.019
315.067
315.113
315.156
315.194
315.229
315.261
315.289
315.315
315.338
315.358
315.376
315.39
315.402
315.411
315.417
315.421
315.422
315.42
315.416
315.409
315.4
315.388
315.375
315.359
315.342
315.322
315.301
315.278
315.254
315.228
315.201
315.173
315.144
315.114
315.083
315.052
315.02
314.988
314.954
314.919
314.877
314.833
314.789
314.746
314.704
314.666
314.633
314.605
314.591
314.595
310.279
310.538
310.771
310.983
311.179
311.361
311.532
311.692
311.844
311.991
314.777
314.875
315.073
315.296
315.518
315.729
315.926
316.107
316.27
316.417
316.547
316.66
316.759
316.842
316.913
316.972
317.021
317.061
317.096
317.126
317.152
317.177
317.198
317.218
317.238
317.265
317.288
317.295
317.301
317.319
317.337
317.363
317.389
317.394
317.402
317.42
317.435
317.449
317.462
317.475
317.487
317.498
317.508
317.517
317.524
317.529
317.533
317.536
317.537
317.536
317.534
317.53
317.524
317.516
317.507
317.497
317.486
317.474
317.461
317.447
317.432
317.417
317.4
317.382
317.363
317.343
317.322
317.297
317.263
317.216
316.283
316.113
315.957
315.814
315.683
315.562
315.455
315.363
315.294
315.262
310.275
310.531
310.76
310.97
311.163
311.343
311.511
311.669
311.819
311.964
314.624
314.709
314.903
315.125
315.348
315.562
315.762
315.946
316.113
316.264
316.397
316.514
316.615
316.7
316.772
316.832
316.881
316.92
316.952
316.979
317.003
317.025
317.045
317.064
317.087
317.12
317.151
317.161
317.17
317.196
317.225
317.266
317.309
317.323
317.341
317.375
317.407
317.439
317.472
317.505
317.539
317.573
317.608
317.642
317.675
317.708
317.74
317.771
317.801
317.83
317.857
317.883
317.907
317.93
317.951
317.97
317.987
318.002
318.015
318.024
318.03
318.033
318.032
318.028
318.02
318.007
317.991
317.969
317.942
317.922
317.869
317.719
317.554
317.385
317.217
317.054
316.901
316.76
316.637
316.541
310.271
310.524
310.75
310.956
311.147
311.324
311.49
311.646
311.794
311.937
314.508
314.59
314.779
314.998
315.218
315.428
315.626
315.807
315.973
316.121
316.253
316.367
316.466
316.549
316.619
316.676
316.722
316.758
316.786
316.808
316.826
316.842
316.857
316.871
316.891
316.922
316.953
316.953
316.953
316.974
316.997
317.036
317.079
317.082
317.089
317.118
317.143
317.169
317.195
317.222
317.25
317.278
317.305
317.332
317.36
317.387
317.414
317.442
317.47
317.498
317.527
317.556
317.587
317.62
317.654
317.689
317.726
317.765
317.804
317.845
317.886
317.927
317.968
318.008
318.047
318.084
318.118
318.15
318.177
318.214
318.561
318.553
318.519
318.465
318.396
318.315
318.225
318.132
318.04
317.952
310.267
310.516
310.74
310.943
311.131
311.306
311.47
311.624
311.77
311.911
314.396
314.477
314.663
314.878
315.094
315.301
315.495
315.674
315.837
315.984
316.113
316.226
316.323
316.405
316.473
316.53
316.575
316.611
316.639
316.659
316.675
316.688
316.7
316.713
316.731
316.765
316.799
316.795
316.787
316.807
316.828
316.869
316.916
316.913
316.913
316.94
316.963
316.986
317.011
317.035
317.06
317.083
317.104
317.123
317.142
317.16
317.177
317.193
317.208
317.222
317.237
317.251
317.266
317.281
317.296
317.312
317.328
317.344
317.36
317.376
317.392
317.408
317.425
317.441
317.457
317.472
317.488
317.503
317.516
317.525
317.145
317.117
317.11
317.117
317.117
317.114
317.112
317.116
317.138
317.194
310.263
310.509
310.729
310.93
311.116
311.288
311.45
311.602
311.745
311.885
314.286
314.365
314.547
314.759
314.971
315.175
315.367
315.543
315.703
315.848
315.975
316.087
316.182
316.262
316.329
316.385
316.431
316.468
316.497
316.517
316.531
316.541
316.551
316.562
316.58
316.617
316.655
316.648
316.635
316.655
316.676
316.719
316.773
316.767
316.761
316.789
316.813
316.838
316.865
316.891
316.916
316.938
316.959
316.979
316.999
317.019
317.038
317.057
317.074
317.09
317.106
317.123
317.139
317.156
317.171
317.187
317.201
317.215
317.227
317.238
317.247
317.253
317.257
317.258
317.256
317.251
317.243
317.233
317.217
317.196
316.674
316.567
316.47
316.381
316.298
316.223
316.158
316.107
316.085
316.119
310.26
310.502
310.719
310.917
311.1
311.27
311.43
311.58
311.721
311.859
314.176
314.253
314.433
314.64
314.85
315.051
315.239
315.413
315.571
315.713
315.839
315.948
316.042
316.121
316.186
316.242
316.288
316.327
316.358
316.379
316.393
316.401
316.408
316.416
316.434
316.473
316.516
316.507
316.49
316.51
316.532
316.578
316.638
316.63
316.621
316.651
316.678
316.708
316.738
316.767
316.791
316.813
316.834
316.855
316.877
316.899
316.92
316.941
316.961
316.983
317.005
317.027
317.05
317.072
317.094
317.116
317.137
317.158
317.179
317.198
317.215
317.23
317.242
317.252
317.261
317.268
317.275
317.282
317.284
317.281
317.123
317.053
316.992
316.94
316.893
316.854
316.823
316.805
316.812
316.828
310.256
310.495
310.709
310.905
311.085
311.253
311.41
311.558
311.698
311.833
314.068
314.143
314.319
314.524
314.73
314.927
315.113
315.284
315.44
315.58
315.704
315.811
315.903
315.981
316.044
316.098
316.145
316.185
316.219
316.244
316.259
316.266
316.269
316.275
316.29
316.332
316.379
316.37
316.349
316.37
316.392
316.441
316.507
316.499
316.487
316.521
316.553
316.588
316.623
316.653
316.677
316.698
316.718
316.74
316.764
316.789
316.813
316.838
316.863
316.889
316.916
316.943
316.971
316.998
317.025
317.052
317.08
317.107
317.133
317.158
317.181
317.203
317.222
317.241
317.259
317.279
317.299
317.323
317.349
317.39
317.667
317.672
317.666
317.654
317.642
317.63
317.621
317.617
317.624
317.648
310.253
310.488
310.699
310.892
311.07
311.235
311.39
311.536
311.674
311.808
313.963
314.036
314.21
314.411
314.613
314.808
314.99
315.159
315.312
315.449
315.57
315.676
315.766
315.84
315.902
315.953
315.997
316.038
316.075
316.104
316.122
316.128
316.128
316.128
316.139
316.18
316.229
316.219
316.194
316.214
316.236
316.285
316.356
316.347
316.335
316.372
316.411
316.453
316.49
316.519
316.538
316.555
316.573
316.595
316.619
316.643
316.668
316.693
316.718
316.744
316.77
316.795
316.82
316.845
316.87
316.895
316.92
316.943
316.965
316.984
317.002
317.017
317.032
317.046
317.061
317.077
317.095
317.116
317.14
317.178
317.445
317.423
317.387
317.343
317.295
317.245
317.197
317.154
317.12
317.103
310.249
310.481
310.69
310.88
311.055
311.218
311.371
311.515
311.651
311.783
313.866
313.94
314.111
314.308
314.507
314.698
314.876
315.04
315.188
315.32
315.435
315.534
315.617
315.684
315.737
315.779
315.816
315.851
315.885
315.914
315.932
315.937
315.931
315.922
315.925
315.958
316.006
315.994
315.964
315.981
316.003
316.051
316.126
316.121
316.111
316.157
316.206
316.255
316.295
316.321
316.337
316.35
316.367
316.387
316.41
316.432
316.453
316.473
316.492
316.51
316.526
316.542
316.556
316.571
316.584
316.597
316.608
316.616
316.622
316.625
316.626
316.626
316.626
316.626
316.627
316.629
316.633
316.637
316.642
316.657
316.657
316.58
316.502
316.423
316.345
316.266
316.192
316.124
316.068
316.033
310.246
310.475
310.68
310.867
311.04
311.201
311.352
311.494
311.628
311.758
313.806
313.889
314.059
314.25
314.438
314.615
314.775
314.917
315.039
315.143
315.229
315.298
315.352
315.392
315.422
315.444
315.462
315.483
315.508
315.535
315.554
315.559
315.552
315.539
315.534
315.562
315.608
315.597
315.568
315.587
315.611
315.661
315.743
315.748
315.75
315.812
315.877
315.939
315.987
316.018
316.038
316.058
316.082
316.108
316.133
316.154
316.17
316.181
316.187
316.189
316.189
316.187
316.184
316.182
316.177
316.172
316.164
316.154
316.141
316.128
316.113
316.099
316.086
316.075
316.064
316.055
316.047
316.037
316.023
316.001
315.637
315.527
315.429
315.34
315.259
315.186
315.122
315.07
315.038
315.042
310.242
310.468
310.67
310.855
311.026
311.185
311.333
311.473
311.605
311.73
311.849
311.965
312.077
312.185
312.291
312.394
312.494
312.591
312.685
312.776
312.865
312.95
313.033
313.113
313.191
313.266
313.338
313.409
313.478
313.545
313.611
313.675
313.738
313.799
313.858
313.917
313.976
314.033
314.09
314.146
314.202
314.258
314.315
314.371
314.427
314.481
314.533
314.583
314.628
314.67
314.707
314.741
314.769
314.794
314.815
314.832
314.845
314.855
314.862
314.866
314.868
314.867
314.864
314.859
314.853
314.845
314.836
314.825
314.813
314.8
314.786
314.771
314.754
314.737
314.719
314.7
314.68
314.659
314.636
314.611
314.582
314.551
314.518
314.486
314.454
314.424
314.397
314.374
314.363
314.371
310.239
310.461
310.661
310.843
311.012
311.168
311.314
311.452
311.582
311.706
311.823
311.935
312.043
312.146
312.246
312.343
312.436
312.526
312.614
312.699
312.781
312.862
312.94
313.016
313.09
313.162
313.232
313.301
313.369
313.435
313.501
313.566
313.629
313.691
313.753
313.813
313.873
313.933
313.99
314.047
314.102
314.157
314.212
314.265
314.316
314.365
314.412
314.456
314.498
314.536
314.57
314.601
314.629
314.654
314.677
314.696
314.712
314.726
314.737
314.746
314.753
314.757
314.76
314.76
314.759
314.756
314.751
314.745
314.737
314.728
314.717
314.705
314.692
314.677
314.661
314.644
314.626
314.606
314.584
314.562
314.538
314.514
314.49
314.467
314.444
314.423
314.404
314.389
314.384
314.396
310.236
310.455
310.652
310.831
310.997
311.152
311.296
311.432
311.56
311.681
311.797
311.908
312.013
312.115
312.213
312.308
312.399
312.488
312.574
312.657
312.739
312.818
312.896
312.972
313.046
313.118
313.189
313.259
313.328
313.395
313.462
313.529
313.594
313.658
313.721
313.784
313.846
313.907
313.966
314.025
314.083
314.141
314.2
314.258
314.316
314.374
314.431
314.488
314.544
314.598
314.651
314.701
314.75
314.796
314.839
314.879
314.916
314.95
314.982
315.012
315.039
315.064
315.087
315.108
315.127
315.144
315.16
315.174
315.186
315.196
315.204
315.211
315.216
315.22
315.222
315.222
315.221
315.218
315.214
315.209
315.202
315.195
315.187
315.179
315.171
315.163
315.157
315.154
315.165
315.195
310.232
310.448
310.642
310.819
310.983
311.135
311.277
311.411
311.538
311.657
311.771
311.88
311.985
312.085
312.181
312.275
312.365
312.452
312.537
312.62
312.7
312.778
312.855
312.93
313.003
313.075
313.146
313.215
313.283
313.35
313.417
313.483
313.548
313.612
313.675
313.737
313.8
313.86
313.919
313.976
314.032
314.086
314.141
314.195
314.248
314.302
314.355
314.409
314.462
314.513
314.563
314.612
314.659
314.705
314.749
314.79
314.829
314.866
314.901
314.933
314.963
314.991
315.016
315.039
315.061
315.08
315.098
315.115
315.131
315.146
315.16
315.173
315.186
315.199
315.212
315.225
315.238
315.25
315.263
315.276
315.29
315.303
315.317
315.331
315.346
315.361
315.377
315.394
315.413
315.439
310.229
310.442
310.633
310.808
310.969
311.119
311.259
311.391
311.515
311.634
311.746
311.853
311.956
312.055
312.15
312.242
312.33
312.417
312.5
312.582
312.661
312.738
312.814
312.888
312.96
313.031
313.101
313.17
313.238
313.304
313.37
313.436
313.501
313.565
313.628
313.69
313.752
313.811
313.866
313.915
313.957
313.994
314.029
314.062
314.093
314.126
314.159
314.191
314.224
314.256
314.286
314.313
314.338
314.36
314.379
314.395
314.408
314.419
314.427
314.433
314.438
314.443
314.447
314.451
314.455
314.461
314.468
314.476
314.487
314.499
314.513
314.53
314.549
314.57
314.592
314.617
314.643
314.671
314.701
314.732
314.764
314.797
314.832
314.868
314.905
314.944
314.983
315.025
315.069
315.119
310.225
310.436
310.624
310.796
310.955
311.103
311.241
311.371
311.494
311.61
311.721
311.827
311.928
312.025
312.119
312.21
312.297
312.382
312.464
312.545
312.623
312.699
312.774
312.847
312.919
312.989
313.058
313.127
313.194
313.26
313.326
313.391
313.456
313.52
313.583
313.645
313.706
313.761
313.8
313.814
313.805
313.782
313.755
313.727
313.7
313.676
313.655
313.637
313.621
313.607
313.595
313.585
313.576
313.569
313.563
313.56
313.558
313.559
313.561
313.566
313.572
313.58
313.59
313.602
313.616
313.632
313.65
313.67
313.692
313.715
313.741
313.769
313.798
313.83
313.862
313.897
313.932
313.969
314.007
314.046
314.086
314.128
314.17
314.213
314.258
314.303
314.35
314.397
314.448
314.504
310.222
310.429
310.615
310.784
310.941
311.087
311.223
311.351
311.472
311.587
311.696
311.801
311.901
311.997
312.089
312.178
312.265
312.349
312.43
312.509
312.586
312.662
312.736
312.808
312.879
312.948
313.017
313.085
313.152
313.218
313.284
313.349
313.414
313.479
313.542
313.604
313.664
313.697
313.654
313.549
313.41
313.273
313.158
313.064
312.99
312.935
312.894
312.866
312.848
312.837
312.833
312.836
312.844
312.855
312.869
312.885
312.903
312.921
312.941
312.961
312.982
313.004
313.026
313.049
313.072
313.097
313.123
313.149
313.176
313.205
313.234
313.265
313.296
313.328
313.361
313.395
313.429
313.464
313.499
313.535
313.571
313.608
313.645
313.683
313.721
313.759
313.797
313.835
313.874
313.917
310.219
310.423
310.606
310.774
310.928
311.072
311.206
311.333
311.452
311.565
311.673
311.776
311.875
311.97
312.061
312.149
312.234
312.317
312.398
312.476
312.552
312.627
312.7
312.772
312.842
312.911
312.979
313.047
313.113
313.18
313.246
313.312
313.377
313.443
313.507
313.57
313.626
313.588
313.357
313.046
312.777
312.592
312.465
312.389
312.349
312.334
312.336
312.348
312.367
312.39
312.415
312.442
312.469
312.497
312.524
312.55
312.576
312.602
312.626
312.651
312.675
312.699
312.723
312.747
312.772
312.797
312.823
312.849
312.875
312.902
312.93
312.958
312.986
313.014
313.042
313.071
313.1
313.129
313.157
313.185
313.213
313.241
313.269
313.297
313.325
313.354
313.383
313.414
313.446
313.481
310.216
310.418
310.599
310.764
310.917
311.058
311.191
311.316
311.434
311.546
311.653
311.754
311.852
311.945
312.036
312.123
312.207
312.289
312.369
312.447
312.522
312.597
312.669
312.74
312.81
312.879
312.947
313.014
313.081
313.147
313.214
313.28
313.347
313.414
313.48
313.545
313.574
313.407
312.828
312.385
312.111
311.971
311.928
311.928
311.953
311.993
312.038
312.085
312.131
312.174
312.213
312.249
312.282
312.312
312.34
312.367
312.39
312.413
312.434
312.456
312.477
312.498
312.52
312.543
312.566
312.589
312.612
312.636
312.66
312.684
312.708
312.732
312.756
312.779
312.801
312.824
312.845
312.866
312.886
312.907
312.926
312.946
312.965
312.985
313.004
313.024
313.044
313.066
313.092
313.123
310.214
310.414
310.593
310.756
310.907
311.047
311.179
311.302
311.419
311.53
311.635
311.736
311.833
311.926
312.015
312.101
312.185
312.267
312.346
312.423
312.498
312.572
312.644
312.715
312.785
312.854
312.922
312.989
313.056
313.123
313.19
313.258
313.326
313.394
313.462
313.528
313.559
313.382
312.707
312.188
311.851
311.661
311.659
311.687
311.733
311.787
311.845
311.903
311.957
312.007
312.052
312.093
312.129
312.161
312.189
312.215
312.239
312.262
312.284
312.306
312.328
312.351
312.373
312.396
312.42
312.443
312.467
312.491
312.515
312.538
312.561
312.584
312.606
312.627
312.647
312.667
312.685
312.702
312.718
312.734
312.749
312.763
312.778
312.792
312.806
312.821
312.836
312.852
312.871
312.894
310.212
310.41
310.588
310.75
310.9
311.039
311.17
311.292
311.408
311.518
311.623
311.723
311.819
311.911
312
312.086
312.169
312.25
312.329
312.406
312.481
312.555
312.627
312.698
312.769
312.838
312.906
312.974
313.042
313.109
313.177
313.246
313.315
313.383
313.451
313.515
313.549
313.383
312.663
312.095
311.709
311.472
311.502
311.553
311.613
311.677
311.742
311.803
311.861
311.914
311.963
312.007
312.045
312.079
312.109
312.138
312.164
312.189
312.214
312.238
312.262
312.287
312.312
312.337
312.363
312.39
312.417
312.444
312.472
312.499
312.525
312.551
312.575
312.598
312.62
312.639
312.657
312.672
312.686
312.699
312.71
312.72
312.729
312.738
312.747
312.756
312.765
312.775
312.788
312.804
310.211
310.408
310.585
310.746
310.895
311.034
311.164
311.286
311.401
311.511
311.615
311.715
311.811
311.903
311.991
312.077
312.16
312.241
312.32
312.397
312.472
312.546
312.619
312.69
312.761
312.831
312.9
312.969
313.037
313.106
313.175
313.243
313.31
313.375
313.433
313.482
313.519
313.385
312.699
312.135
311.74
311.489
311.529
311.588
311.652
311.717
311.779
311.836
311.889
311.937
311.982
312.022
312.058
312.091
312.123
312.152
312.18
312.207
312.234
312.261
312.288
312.316
312.345
312.375
312.408
312.442
312.478
312.515
312.554
312.593
312.632
312.67
312.707
312.741
312.773
312.801
312.824
312.843
312.857
312.866
312.871
312.872
312.872
312.87
312.868
312.866
312.864
312.863
312.867
312.872
310.211
310.407
310.583
310.744
310.893
311.032
311.161
311.283
311.398
311.508
311.612
311.712
311.807
311.899
311.988
312.074
312.157
312.238
312.317
312.394
312.47
312.544
312.618
312.69
312.761
312.832
312.902
312.971
313.04
313.109
313.176
313.24
313.299
313.345
313.373
313.38
313.403
313.423
313.191
312.89
312.564
312.285
312.243
312.217
312.2
312.19
312.186
312.186
312.19
312.197
312.208
312.22
312.235
312.252
312.271
312.291
312.312
312.335
312.359
312.384
312.413
312.444
312.48
312.519
312.56
312.604
312.651
312.704
312.762
312.828
312.901
312.976
313.052
313.124
313.188
313.241
313.282
313.311
313.328
313.334
313.333
313.326
313.315
313.302
313.287
313.271
313.253
313.235
313.218
313.202
310.211
310.407
310.583
310.744
310.893
311.031
311.161
311.283
311.398
311.507
311.611
311.711
311.807
311.899
311.988
312.074
312.157
312.239
312.318
312.396
312.472
312.547
312.621
312.694
312.766
312.838
312.908
312.977
313.045
313.109
313.168
313.216
313.247
313.249
313.213
313.152
313.153
313.179
313.024
312.883
312.743
312.612
312.679
312.738
312.778
312.797
312.794
312.772
312.734
312.689
312.645
312.607
312.576
312.553
312.54
312.534
312.535
312.543
312.557
312.579
312.605
312.637
312.675
312.722
312.778
312.847
312.937
313.046
313.168
313.29
313.401
313.493
313.561
313.605
313.626
313.63
313.624
313.613
313.6
313.588
313.58
313.573
313.568
313.564
313.561
313.559
313.556
313.553
313.549
313.548
310.211
310.408
310.584
310.745
310.894
311.032
311.162
311.284
311.399
311.508
311.613
311.712
311.808
311.9
311.989
312.075
312.159
312.24
312.32
312.398
312.475
312.55
312.624
312.698
312.771
312.843
312.913
312.978
313.037
313.085
313.118
313.129
313.107
313.041
312.933
312.834
312.857
312.905
312.731
312.578
312.449
312.345
312.483
312.612
312.718
312.806
312.875
312.922
312.941
312.936
312.914
312.882
312.848
312.816
312.79
312.772
312.764
312.766
312.774
312.793
312.824
312.87
312.932
313.02
313.139
313.274
313.398
313.492
313.544
313.553
313.528
313.482
313.428
313.375
313.326
313.286
313.254
313.23
313.214
313.204
313.201
313.204
313.212
313.225
313.243
313.265
313.29
313.318
313.351
313.391
310.211
310.408
310.585
310.746
310.895
311.033
311.163
311.285
311.401
311.51
311.614
311.714
311.81
311.902
311.991
312.077
312.161
312.243
312.322
312.4
312.477
312.553
312.628
312.702
312.775
312.846
312.91
312.958
312.986
312.99
312.97
312.92
312.839
312.724
312.597
312.553
312.66
312.795
312.584
312.394
312.25
312.166
312.521
312.842
313.093
313.256
313.339
313.357
313.336
313.293
313.239
313.182
313.128
313.08
313.04
313.012
312.999
313.004
313.03
313.078
313.152
313.258
313.373
313.46
313.487
313.456
313.385
313.298
313.211
313.134
313.069
313.016
312.974
312.943
312.92
312.904
312.893
312.888
312.887
312.891
312.897
312.907
312.92
312.935
312.953
312.973
312.996
313.022
313.051
313.086
310.211
310.408
310.585
310.746
310.895
311.034
311.164
311.286
311.402
311.512
311.616
311.716
311.812
311.904
311.993
312.08
312.164
312.245
312.325
312.404
312.481
312.557
312.632
312.706
312.778
312.842
312.868
312.852
312.8
312.725
312.645
312.56
312.473
312.389
312.335
312.42
313.87
313.603
313.411
313.311
313.283
313.322
313.324
313.305
313.282
313.265
313.26
313.271
313.303
313.351
313.403
313.438
313.421
313.335
313.218
313.101
312.999
312.915
312.847
312.792
312.75
312.718
312.694
312.677
312.666
312.66
312.658
312.659
312.662
312.667
312.675
312.685
312.696
312.71
312.725
312.741
312.759
312.778
312.798
312.82
312.845
312.873
310.211
310.408
310.585
310.746
310.896
311.034
311.164
311.287
311.402
311.512
311.617
311.717
311.813
311.905
311.994
312.081
312.165
312.247
312.327
312.406
312.483
312.559
312.635
312.709
312.779
312.799
312.715
312.563
312.405
312.287
312.198
312.144
312.122
312.132
312.201
312.432
313.508
313.201
313.041
312.978
312.976
313.013
313.077
313.138
313.181
313.21
313.193
313.122
313.018
312.922
312.846
312.781
312.721
312.665
312.617
312.577
312.545
312.521
312.501
312.485
312.472
312.465
312.461
312.461
312.464
312.47
312.478
312.487
312.498
312.51
312.523
312.536
312.55
312.564
312.579
312.594
312.61
312.626
312.644
312.663
312.687
312.71
310.211
310.408
310.585
310.746
310.895
311.034
311.164
311.286
311.402
311.512
311.616
311.716
311.812
311.905
311.994
312.08
312.165
312.247
312.327
312.406
312.483
312.56
312.635
312.709
312.758
312.665
312.308
312.009
311.825
311.747
311.749
311.788
311.857
311.956
312.125
312.495
313.309
312.935
312.743
312.631
312.567
312.532
312.514
312.506
312.5
312.488
312.466
312.439
312.418
312.399
312.379
312.362
312.344
312.326
312.313
312.303
312.296
312.294
312.295
312.298
312.305
312.313
312.324
312.336
312.349
312.364
312.379
312.395
312.411
312.427
312.443
312.459
312.475
312.49
312.506
312.52
312.534
312.548
312.562
312.576
312.594
312.611
310.211
310.408
310.585
310.746
310.895
311.034
311.163
311.286
311.401
311.511
311.615
311.715
311.811
311.904
311.993
312.079
312.163
312.245
312.326
312.405
312.482
312.559
312.634
312.708
312.753
312.646
312.18
311.793
311.536
311.4
311.453
311.534
311.643
311.787
312.019
312.495
313.198
312.785
312.568
312.418
312.317
312.249
312.204
312.176
312.159
312.146
312.139
312.138
312.138
312.138
312.138
312.14
312.144
312.15
312.158
312.168
312.179
312.191
312.205
312.22
312.236
312.253
312.271
312.289
312.308
312.327
312.347
312.367
312.386
312.406
312.425
312.443
312.461
312.478
312.494
312.509
312.523
312.535
312.547
312.559
312.572
312.585
310.211
310.408
310.584
310.745
310.894
311.033
311.163
311.285
311.4
311.51
311.614
311.714
311.81
311.902
311.992
312.078
312.162
312.244
312.324
312.403
312.481
312.557
312.633
312.706
312.751
312.64
312.096
311.641
311.32
311.123
311.21
311.317
311.444
311.606
311.855
312.366
313.152
312.721
312.491
312.351
312.238
312.152
312.09
312.049
312.028
312.018
312.019
312.026
312.035
312.048
312.06
312.076
312.093
312.111
312.129
312.148
312.168
312.187
312.207
312.227
312.247
312.268
312.289
312.31
312.332
312.353
312.375
312.397
312.419
312.441
312.462
312.483
312.503
312.522
312.54
312.557
312.572
312.586
312.598
312.609
312.621
312.632
310.211
310.408
310.584
310.745
310.894
311.033
311.162
311.284
311.4
311.509
311.614
311.713
311.809
311.901
311.991
312.077
312.161
312.243
312.323
312.401
312.479
312.555
312.63
312.703
312.752
312.65
312.1
311.634
311.299
311.083
311.181
311.293
311.418
311.565
311.782
312.224
313.255
312.818
312.574
312.445
312.303
312.198
312.122