/*--------------------------------*- C++ -*----------------------------------*\
| =========                 |                                                 |
| \\      /  F ield         | OpenFOAM: The Open Source CFD Toolbox           |
|  \\    /   O peration     | Version:  v2012                                 |
|   \\  /    A nd           | Website:  www.openfoam.com                      |
|    \\/     M anipulation  |                                                 |
\*---------------------------------------------------------------------------*/
FoamFile
{
    version     2.0;
    format      ascii;
    class       volScalarField;
    location    "500/concrete";
    object      T;
}
// * * * * * * * * * * * * * * * * * * * * * * * * * * * * * * * * * * * * * //

dimensions      [0 0 0 1 0 0 0];


internalField   nonuniform List<scalar> 
1924
(
326.074
326.146
326.211
326.168
326.038
324.806
312.063
310.771
310.663
311.613
322.878
323.722
323.635
323.524
323.407
323.357
323.358
323.395
323.462
323.554
323.665
323.786
323.91
324.032
324.151
324.276
326.001
326.009
325.989
325.846
325.735
324.548
312.092
310.836
310.789
311.921
324.16
325.253
325.165
324.997
324.776
324.604
324.468
324.364
324.294
324.261
324.261
324.285
324.328
324.382
324.448
324.535
325.787
325.654
325.461
325.242
325.295
324.173
311.58
310.294
310.271
311.52
324.346
325.597
325.435
325.312
325.15
325.038
324.946
324.865
324.797
324.747
324.713
324.696
324.695
324.706
324.734
324.791
325.32
325.024
324.628
324.288
323.827
322.704
311.993
310.84
310.826
312.033
323.773
325.448
326.046
326.035
325.728
325.435
325.199
325.03
324.92
324.852
324.816
324.805
324.815
324.845
324.895
324.975
324.556
324.251
323.774
322.272
303.441
300.434
298.593
298.088
298.097
298.646
300.671
304.045
325.091
326.263
325.924
325.587
325.306
325.103
325.005
324.973
324.994
325.049
325.13
325.234
325.353
325.491
323.726
323.7
323.592
322.051
300.656
297.182
296.194
295.906
295.914
296.232
297.314
301.12
324.522
326.273
326.123
325.831
325.581
325.407
325.31
325.276
325.292
325.34
325.404
325.495
325.583
325.669
323.151
323.424
323.607
322.205
300.119
296.491
295.599
295.362
295.369
295.63
296.599
300.529
324.407
326.283
326.204
325.935
325.685
325.496
325.367
325.294
325.267
325.27
325.294
325.344
325.4
325.459
322.95
323.333
323.642
322.35
300.004
296.323
295.441
295.214
295.22
295.469
296.424
300.394
324.395
326.292
326.216
325.91
325.621
325.393
325.231
325.133
325.084
325.07
325.086
325.119
325.156
325.205
322.823
323.216
323.526
322.261
299.97
296.297
295.421
295.198
295.204
295.449
296.402
300.386
324.461
326.395
326.294
326
325.693
325.435
325.244
325.124
325.057
325.031
325.031
325.044
325.066
325.106
322.834
323.136
323.323
321.975
299.982
296.367
295.51
295.293
295.298
295.538
296.482
300.464
324.644
326.678
326.553
326.257
325.918
325.621
325.393
325.253
325.173
325.129
325.111
325.11
325.123
325.158
323.267
323.278
323.17
321.661
300.184
296.706
295.893
295.686
295.687
295.911
296.816
300.726
324.942
327.142
327.091
326.514
326.097
325.777
325.556
325.412
325.324
325.274
325.254
325.255
325.272
325.311
324.013
323.727
323.208
321.533
301.35
298.257
297.547
297.355
297.336
297.507
298.278
301.806
325.069
326.824
326.607
326.221
325.894
325.664
325.514
325.426
325.381
325.367
325.377
325.403
325.441
325.496
324.722
324.354
323.672
322.176
309.762
308.174
307.702
307.463
307.316
307.286
307.593
309.359
323.68
325.165
325.328
325.301
325.266
325.255
325.269
325.301
325.346
325.401
325.464
325.531
325.599
325.672
325.204
324.934
324.325
322.757
310.646
309.28
308.929
308.777
308.7
308.708
308.951
310.314
322.965
324.405
324.745
324.896
325.006
325.109
325.211
325.31
325.407
325.502
325.595
325.684
325.765
325.836
325.452
325.298
324.845
323.308
310.728
309.374
309.062
308.938
308.877
308.885
309.098
310.387
323.104
324.525
324.878
325.044
325.163
325.269
325.371
325.47
325.567
325.661
325.754
325.84
325.911
325.927
325.577
325.489
325.162
323.74
310.857
309.499
309.206
309.096
309.045
309.055
309.256
310.518
323.303
324.676
325.004
325.16
325.275
325.378
325.479
325.578
325.676
325.773
325.867
325.951
326.007
325.978
325.654
325.59
325.346
324.112
312.158
310.907
310.644
310.549
310.507
310.519
310.701
311.856
323.695
324.938
325.225
325.361
325.462
325.554
325.642
325.731
325.82
325.909
325.996
326.067
326.072
325.726
325.705
325.656
325.482
324.551
315.351
314.378
314.173
314.101
314.072
314.086
314.232
315.134
324.275
325.241
325.466
325.576
325.662
325.739
325.815
325.891
325.969
326.048
326.123
326.173
326.102
325.298
325.731
325.698
325.595
325.042
319.719
319.134
319.01
318.969
318.958
318.975
319.076
319.632
324.949
325.546
325.7
325.783
325.852
325.916
325.98
326.043
326.109
326.175
326.237
326.264
326.121
324.927
325.734
325.718
325.678
325.464
323.627
323.399
323.35
323.341
323.347
323.367
323.428
323.668
325.532
325.792
325.88
325.939
325.993
326.045
326.097
326.15
326.204
326.26
326.31
326.32
326.136
324.76
325.725
325.721
325.723
325.719
325.911
325.904
325.907
325.92
325.937
325.96
325.994
326.039
325.89
325.941
325.987
326.029
326.072
326.116
326.161
326.206
326.251
326.297
326.336
326.334
326.135
324.778
325.712
325.715
325.737
325.808
326.565
326.639
326.665
326.688
326.712
326.736
326.758
326.735
326.028
326.005
326.031
326.065
326.102
326.141
326.181
326.221
326.261
326.3
326.33
326.318
326.114
324.77
325.701
325.708
325.735
325.802
326.333
326.403
326.434
326.46
326.485
326.51
326.53
326.512
326.033
326.016
326.039
326.07
326.104
326.14
326.177
326.215
326.252
326.286
326.31
326.293
326.089
324.77
325.693
325.702
325.728
325.77
325.95
325.992
326.021
326.046
326.072
326.097
326.119
326.128
326.002
326.013
326.038
326.068
326.1
326.134
326.17
326.206
326.24
326.272
326.293
326.276
326.088
324.872
325.688
325.698
325.722
325.749
325.744
325.77
325.796
325.821
325.846
325.872
325.897
325.923
325.983
326.011
326.039
326.068
326.098
326.131
326.165
326.199
326.232
326.262
326.283
326.272
326.123
325.144
325.684
325.695
325.72
325.745
325.713
325.735
325.76
325.785
325.811
325.837
325.865
325.895
325.983
326.015
326.043
326.072
326.101
326.132
326.164
326.196
326.228
326.257
326.279
326.279
326.185
325.548
325.681
325.693
325.72
325.748
325.747
325.771
325.797
325.823
325.849
325.876
325.904
325.934
325.991
326.022
326.049
326.077
326.105
326.134
326.164
326.195
326.225
326.254
326.278
326.288
326.251
325.957
325.679
325.693
325.721
325.752
325.776
325.803
325.829
325.856
325.882
325.91
325.938
325.967
326
326.029
326.055
326.081
326.108
326.136
326.165
326.194
326.223
326.251
326.277
326.296
326.3
326.25
325.678
325.693
325.723
325.755
325.787
325.814
325.841
325.868
325.895
325.923
325.951
325.979
326.006
326.035
326.06
326.086
326.112
326.138
326.166
326.194
326.222
326.249
326.275
326.3
326.326
326.39
325.678
325.693
325.724
325.757
325.787
325.815
325.842
325.87
325.897
325.925
325.953
325.981
326.011
326.039
326.065
326.09
326.115
326.14
326.167
326.193
326.22
326.247
326.273
326.3
326.333
326.418
325.678
325.694
325.726
325.759
325.787
325.814
325.842
325.87
325.898
325.926
325.954
325.983
326.015
326.044
326.07
326.094
326.118
326.143
326.168
326.194
326.22
326.245
326.271
326.298
326.33
326.399
325.679
325.696
325.728
325.76
325.788
325.816
325.844
325.873
325.901
325.929
325.957
325.986
326.018
326.048
326.074
326.098
326.122
326.146
326.17
326.195
326.22
326.245
326.27
326.297
326.327
326.378
325.68
325.698
325.729
325.762
325.79
325.819
325.848
325.877
325.906
325.934
325.962
325.99
326.022
326.051
326.078
326.103
326.126
326.15
326.173
326.197
326.221
326.246
326.271
326.296
326.325
326.368
325.682
325.7
325.731
325.764
325.793
325.822
325.852
325.881
325.91
325.939
325.967
325.995
326.026
326.055
326.082
326.107
326.131
326.154
326.177
326.2
326.224
326.248
326.272
326.298
326.326
326.368
325.684
325.702
325.734
325.766
325.796
325.826
325.856
325.886
325.915
325.944
325.972
326
326.03
326.059
326.086
326.111
326.135
326.159
326.181
326.204
326.228
326.251
326.276
326.3
326.328
326.371
325.689
325.707
325.739
325.771
325.802
325.833
325.864
325.894
325.923
325.952
325.98
326.008
326.037
326.065
326.092
326.118
326.143
326.167
326.189
326.212
326.235
326.259
326.283
326.307
326.334
326.377
325.707
325.728
325.76
325.793
325.825
325.856
325.887
325.918
325.947
325.976
326.005
326.033
326.061
326.089
326.115
326.141
326.167
326.191
326.214
326.237
326.26
326.284
326.307
326.331
326.357
326.396
327.641
327.73
327.811
327.782
327.742
326.881
312.197
311.255
311.153
311.783
324.797
325.269
325.071
324.924
324.784
324.725
324.725
324.765
324.838
324.94
325.062
325.194
325.33
325.463
325.591
325.72
327.579
327.603
327.596
327.456
327.443
326.629
312.299
311.386
311.341
312.137
326.258
326.99
326.786
326.579
326.325
326.131
325.977
325.857
325.776
325.736
325.732
325.756
325.8
325.857
325.925
326.01
327.362
327.234
327.039
326.833
327.081
326.35
311.762
310.794
310.769
311.687
326.535
327.403
327.026
326.853
326.673
326.563
326.473
326.391
326.321
326.266
326.227
326.206
326.202
326.211
326.236
326.285
326.871
326.564
326.158
325.945
326.193
325.517
312.967
312.047
312.025
312.974
326.754
328.044
327.885
327.703
327.324
326.997
326.741
326.56
326.441
326.367
326.324
326.307
326.314
326.342
326.391
326.467
326.047
325.737
325.306
324.309
302.098
299.443
297.819
297.389
297.396
297.865
299.65
302.633
327.501
328.045
327.536
327.15
326.834
326.609
326.512
326.48
326.506
326.572
326.665
326.784
326.919
327.067
325.145
325.151
325.184
324.325
299.623
296.559
295.713
295.469
295.475
295.746
296.672
300.028
327.042
328.082
327.757
327.415
327.144
326.963
326.864
326.833
326.856
326.914
326.984
327.085
327.178
327.259
324.532
324.868
325.234
324.583
299.165
295.967
295.205
295.004
295.01
295.232
296.059
299.523
326.981
328.106
327.846
327.527
327.257
327.06
326.924
326.85
326.822
326.825
326.848
326.899
326.954
327.005
324.339
324.785
325.288
324.777
299.068
295.825
295.071
294.878
294.884
295.095
295.911
299.408
326.985
328.114
327.852
327.486
327.169
326.926
326.755
326.653
326.601
326.587
326.604
326.639
326.675
326.718
324.207
324.659
325.162
324.681
299.04
295.803
295.054
294.865
294.87
295.078
295.892
299.402
327.055
328.222
327.925
327.575
327.24
326.965
326.76
326.635
326.565
326.539
326.539
326.552
326.574
326.607
324.21
324.564
324.932
324.345
299.048
295.862
295.13
294.945
294.949
295.153
295.96
299.469
327.25
328.533
328.203
327.859
327.488
327.167
326.922
326.774
326.69
326.644
326.624
326.623
326.635
326.663
324.68
324.711
324.746
323.951
299.219
296.152
295.457
295.281
295.282
295.472
296.245
299.694
327.567
329.077
328.849
328.155
327.694
327.345
327.107
326.952
326.857
326.803
326.781
326.78
326.796
326.829
325.499
325.197
324.75
323.687
300.253
297.521
296.915
296.751
296.735
296.879
297.537
300.654
327.692
328.733
328.305
327.847
327.481
327.228
327.065
326.968
326.918
326.903
326.912
326.939
326.978
327.029
326.267
325.876
325.219
324.118
310.149
308.973
308.581
308.346
308.178
308.103
308.287
309.592
325.774
326.801
326.86
326.812
326.775
326.769
326.787
326.824
326.875
326.935
327.003
327.075
327.147
327.219
326.778
326.502
325.927
324.684
310.825
309.822
309.547
309.409
309.329
309.313
309.468
310.439
324.893
325.964
326.235
326.38
326.498
326.613
326.726
326.835
326.941
327.043
327.144
327.24
327.327
327.4
327.028
326.883
326.487
325.283
310.818
309.826
309.588
309.477
309.412
309.399
309.53
310.443
325.063
326.128
326.412
326.569
326.691
326.803
326.911
327.016
327.118
327.219
327.317
327.41
327.489
327.514
327.147
327.075
326.819
325.745
310.874
309.873
309.652
309.555
309.501
309.492
309.614
310.51
325.264
326.284
326.542
326.688
326.805
326.914
327.021
327.127
327.231
327.335
327.436
327.529
327.598
327.58
327.218
327.173
326.996
326.089
312.258
311.33
311.132
311.048
311.003
310.999
311.111
311.934
325.633
326.554
326.778
326.905
327.008
327.103
327.197
327.29
327.385
327.48
327.574
327.657
327.692
327.412
327.265
327.234
327.114
326.44
315.807
315.084
314.93
314.867
314.836
314.837
314.929
315.573
326.14
326.855
327.031
327.133
327.22
327.301
327.381
327.462
327.544
327.629
327.712
327.778
327.758
327.136
327.287
327.269
327.202
326.808
320.703
320.273
320.18
320.146
320.134
320.143
320.211
320.609
326.708
327.151
327.274
327.353
327.423
327.491
327.558
327.625
327.694
327.766
327.836
327.882
327.811
326.903
327.287
327.283
327.261
327.114
325.07
324.907
324.874
324.87
324.876
324.894
324.939
325.115
327.189
327.386
327.461
327.518
327.573
327.628
327.683
327.739
327.796
327.857
327.915
327.947
327.844
326.813
327.274
327.281
327.29
327.295
327.585
327.588
327.596
327.611
327.63
327.654
327.685
327.724
327.48
327.525
327.569
327.612
327.657
327.703
327.75
327.797
327.846
327.896
327.942
327.962
327.847
326.871
327.26
327.272
327.296
327.355
328.265
328.326
328.353
328.378
328.403
328.429
328.454
328.446
327.59
327.582
327.612
327.647
327.686
327.728
327.77
327.813
327.855
327.898
327.935
327.945
327.824
326.866
327.248
327.264
327.291
327.348
327.966
328.025
328.055
328.083
328.11
328.136
328.16
328.157
327.594
327.591
327.618
327.651
327.687
327.725
327.765
327.805
327.844
327.882
327.913
327.916
327.792
326.852
327.24
327.257
327.285
327.324
327.522
327.561
327.59
327.617
327.644
327.671
327.696
327.712
327.57
327.588
327.616
327.648
327.682
327.718
327.756
327.795
327.832
327.866
327.894
327.895
327.78
326.913
327.235
327.253
327.281
327.31
327.294
327.321
327.348
327.375
327.401
327.429
327.456
327.484
327.557
327.588
327.617
327.648
327.681
327.715
327.751
327.787
327.823
327.856
327.882
327.885
327.796
327.099
327.231
327.251
327.28
327.307
327.265
327.289
327.316
327.343
327.37
327.399
327.427
327.458
327.56
327.593
327.622
327.652
327.684
327.716
327.75
327.785
327.819
327.85
327.876
327.887
327.834
327.384
327.228
327.249
327.28
327.31
327.307
327.333
327.361
327.388
327.416
327.445
327.474
327.505
327.568
327.6
327.629
327.658
327.688
327.719
327.751
327.783
327.816
327.847
327.874
327.891
327.875
327.673
327.226
327.248
327.281
327.314
327.34
327.369
327.397
327.425
327.453
327.482
327.512
327.542
327.577
327.607
327.635
327.663
327.692
327.721
327.752
327.783
327.814
327.844
327.871
327.894
327.906
327.879
327.225
327.248
327.282
327.316
327.351
327.38
327.409
327.437
327.466
327.496
327.526
327.555
327.583
327.613
327.64
327.667
327.695
327.723
327.752
327.782
327.812
327.841
327.869
327.895
327.922
327.976
327.224
327.249
327.283
327.319
327.351
327.38
327.409
327.438
327.468
327.497
327.527
327.557
327.588
327.618
327.645
327.672
327.698
327.726
327.754
327.782
327.81
327.839
327.866
327.894
327.925
327.994
327.224
327.25
327.285
327.32
327.35
327.379
327.409
327.439
327.468
327.498
327.528
327.558
327.592
327.623
327.65
327.676
327.702
327.728
327.755
327.782
327.81
327.837
327.864
327.892
327.923
327.979
327.225
327.252
327.287
327.322
327.351
327.381
327.412
327.442
327.472
327.502
327.531
327.561
327.596
327.627
327.655
327.681
327.706
327.731
327.757
327.783
327.81
327.837
327.863
327.891
327.92
327.963
327.227
327.253
327.289
327.324
327.354
327.384
327.415
327.446
327.476
327.506
327.536
327.566
327.6
327.631
327.659
327.685
327.71
327.735
327.76
327.785
327.811
327.837
327.864
327.89
327.919
327.957
327.228
327.255
327.291
327.326
327.357
327.388
327.419
327.451
327.481
327.511
327.541
327.571
327.603
327.634
327.663
327.689
327.715
327.739
327.764
327.788
327.814
327.839
327.865
327.892
327.92
327.957
327.231
327.258
327.293
327.328
327.36
327.391
327.423
327.455
327.486
327.517
327.546
327.576
327.608
327.638
327.666
327.694
327.719
327.744
327.768
327.793
327.817
327.843
327.868
327.894
327.922
327.96
327.234
327.262
327.296
327.331
327.364
327.397
327.43
327.462
327.493
327.523
327.553
327.583
327.614
327.643
327.672
327.699
327.726
327.751
327.775
327.799
327.824
327.849
327.874
327.9
327.927
327.964
327.246
327.275
327.311
327.346
327.38
327.413
327.446
327.478
327.51
327.54
327.571
327.6
327.63
327.659
327.688
327.715
327.742
327.768
327.793
327.817
327.842
327.867
327.892
327.916
327.943
327.978
)
;

boundaryField
{
    concrete_to_air
    {
        type            compressible::turbulentTemperatureRadCoupledMixed;
        refValue        nonuniform List<scalar> 
898
(
313.312
313.359
313.387
313.395
313.42
313.441
313.208
312.906
312.58
312.3
312.259
312.234
312.218
312.21
312.208
312.212
312.22
312.232
312.248
312.267
312.288
312.31
312.333
312.357
312.382
312.407
313.26
313.263
313.228
313.169
313.171
313.198
313.045
312.905
312.765
312.634
312.701
312.759
312.798
312.816
312.815
312.795
312.765
312.73
312.697
312.668
312.647
312.632
312.625
312.625
312.63
312.64
313.12
313.055
312.948
312.852
312.876
312.925
312.753
312.601
312.474
312.372
312.51
312.64
312.745
312.833
312.901
312.946
312.969
312.973
312.964
312.948
312.929
312.913
312.902
312.894
312.891
312.894
312.853
312.739
312.613
312.571
312.68
312.815
312.606
312.418
312.277
312.194
312.544
312.855
313.097
313.238
313.303
313.324
313.318
313.297
313.268
313.239
313.213
313.193
313.181
313.178
313.185
313.201
312.487
312.404
312.353
312.441
313.933
313.673
313.484
313.386
313.337
313.333
313.348
313.359
313.367
313.372
313.372
313.367
313.356
313.341
312.137
312.149
312.221
312.453
313.567
313.251
313.071
312.968
312.903
312.861
312.829
312.802
312.778
312.755
312.731
312.713
312.712
312.712
311.874
311.976
312.148
312.52
313.399
313.021
312.817
312.687
312.595
312.526
312.472
312.433
312.405
312.387
312.374
312.375
312.385
312.396
311.661
311.809
312.043
312.522
313.311
312.91
312.693
312.54
312.431
312.348
312.285
312.242
312.215
312.2
312.197
312.204
312.215
312.229
311.465
311.63
311.882
312.395
313.319
312.876
312.643
312.517
312.411
312.319
312.245
312.199
312.17
312.158
312.157
312.163
312.175
312.19
311.438
311.588
311.809
312.253
313.417
312.978
312.715
312.617
312.5
312.39
312.3
312.248
312.221
312.209
312.207
312.213
312.227
312.245
311.596
311.666
311.795
312.114
313.653
313.338
313.09
312.764
312.597
312.472
312.391
312.342
312.316
312.307
312.311
312.324
312.346
312.374
311.873
311.857
311.872
312.059
313.648
313.166
312.837
312.628
312.493
312.417
312.381
312.37
312.377
312.396
312.424
312.461
312.503
312.551
312.165
312.114
312.055
312.095
311.915
311.704
311.491
311.289
311.105
310.946
310.823
310.776
311.259
311.559
311.766
311.922
312.046
312.151
312.242
312.324
312.401
312.474
312.546
312.62
312.695
312.768
312.41
312.384
312.321
312.275
312.088
311.921
311.772
311.641
311.527
311.429
311.347
311.287
311.492
311.678
311.841
311.987
312.12
312.242
312.356
312.464
312.566
312.665
312.761
312.857
312.951
313.033
312.611
312.623
312.596
312.545
312.346
312.175
312.028
311.9
311.787
311.689
311.605
311.542
311.71
311.876
312.033
312.181
312.321
312.453
312.579
312.698
312.813
312.923
313.031
313.134
313.226
313.278
312.808
312.84
312.849
312.83
312.635
312.461
312.309
312.176
312.06
311.958
311.87
311.803
311.951
312.103
312.252
312.397
312.538
312.675
312.807
312.935
313.058
313.176
313.288
313.388
313.461
313.433
313.007
313.045
313.073
313.083
312.917
312.762
312.625
312.504
312.397
312.304
312.224
312.164
312.298
312.438
312.578
312.715
312.85
312.981
313.108
313.231
313.348
313.46
313.562
313.641
313.666
313.482
313.171
313.214
313.254
313.283
313.171
313.063
312.966
312.881
312.807
312.744
312.694
312.66
312.775
312.896
313.017
313.137
313.255
313.369
313.48
313.586
313.688
313.784
313.869
313.925
313.917
313.667
313.267
313.319
313.368
313.411
313.37
313.328
313.291
313.26
313.236
313.221
313.214
313.22
313.31
313.405
313.5
313.594
313.686
313.776
313.862
313.945
314.024
314.099
314.165
314.202
314.169
313.881
313.297
313.355
313.412
313.467
313.489
313.509
313.529
313.55
313.575
313.604
313.638
313.678
313.747
313.818
313.888
313.958
314.026
314.093
314.158
314.22
314.279
314.336
314.388
314.416
314.378
314.09
313.29
313.351
313.412
313.472
313.533
313.59
313.646
313.702
313.758
313.814
313.872
313.931
313.987
314.042
314.097
314.151
314.205
314.256
314.307
314.356
314.404
314.45
314.495
314.536
314.55
314.468
313.273
313.335
313.397
313.458
313.53
313.6
313.668
313.735
313.801
313.866
313.931
313.994
314.045
314.095
314.144
314.193
314.24
314.286
314.332
314.377
314.42
314.463
314.505
314.546
314.579
314.575
313.261
313.322
313.383
313.444
313.512
313.579
313.645
313.71
313.774
313.837
313.898
313.958
314.009
314.059
314.108
314.156
314.203
314.249
314.294
314.338
314.382
314.425
314.467
314.508
314.546
314.572
313.254
313.315
313.375
313.434
313.496
313.557
313.617
313.676
313.735
313.793
313.849
313.905
313.957
314.008
314.058
314.107
314.155
314.202
314.249
314.294
314.339
314.383
314.426
314.467
314.507
314.538
313.25
313.31
313.369
313.428
313.485
313.543
313.599
313.655
313.71
313.765
313.818
313.871
313.924
313.975
314.026
314.076
314.124
314.172
314.219
314.265
314.31
314.355
314.398
314.441
314.481
314.515
313.246
313.306
313.365
313.423
313.479
313.535
313.591
313.645
313.699
313.753
313.805
313.857
313.91
313.961
314.011
314.061
314.11
314.158
314.205
314.251
314.296
314.341
314.385
314.427
314.469
314.505
313.243
313.302
313.361
313.418
313.475
313.531
313.586
313.641
313.695
313.748
313.801
313.852
313.904
313.955
314.005
314.054
314.103
314.15
314.197
314.243
314.288
314.333
314.377
314.42
314.462
314.501
313.24
313.299
313.357
313.414
313.471
313.527
313.582
313.637
313.691
313.744
313.796
313.848
313.899
313.95
314
314.049
314.097
314.144
314.191
314.237
314.282
314.326
314.37
314.413
314.456
314.497
313.237
313.296
313.354
313.411
313.468
313.523
313.578
313.633
313.687
313.739
313.792
313.843
313.894
313.945
313.994
314.043
314.091
314.138
314.184
314.23
314.275
314.32
314.364
314.407
314.449
314.492
313.235
313.294
313.351
313.408
313.465
313.52
313.575
313.629
313.682
313.735
313.787
313.838
313.889
313.939
313.988
314.037
314.085
314.132
314.178
314.224
314.269
314.314
314.358
314.401
314.443
314.486
313.233
313.291
313.349
313.406
313.462
313.517
313.572
313.626
313.679
313.731
313.783
313.834
313.885
313.935
313.984
314.032
314.08
314.127
314.173
314.219
314.264
314.308
314.352
314.395
314.438
314.48
313.231
313.29
313.347
313.404
313.46
313.515
313.569
313.623
313.676
313.728
313.78
313.831
313.881
313.931
313.98
314.028
314.076
314.123
314.169
314.215
314.26
314.304
314.348
314.391
314.433
314.476
313.23
313.288
313.345
313.402
313.458
313.513
313.567
313.62
313.673
313.725
313.777
313.828
313.878
313.928
313.976
314.025
314.072
314.119
314.165
314.211
314.256
314.3
314.344
314.387
314.43
314.472
313.229
313.287
313.344
313.4
313.456
313.511
313.565
313.618
313.671
313.723
313.775
313.825
313.875
313.925
313.974
314.022
314.069
314.116
314.162
314.208
314.253
314.297
314.341
314.384
314.426
314.468
313.228
313.286
313.343
313.399
313.455
313.509
313.563
313.617
313.669
313.721
313.773
313.823
313.873
313.923
313.971
314.02
314.067
314.114
314.16
314.205
314.25
314.294
314.338
314.381
314.424
314.466
313.227
313.285
313.342
313.398
313.454
313.508
313.562
313.615
313.668
313.72
313.771
313.822
313.872
313.921
313.97
314.018
314.065
314.112
314.158
314.203
314.248
314.292
314.336
314.379
314.422
314.464
313.226
313.284
313.341
313.398
313.453
313.508
313.562
313.615
313.667
313.719
313.771
313.821
313.871
313.92
313.969
314.017
314.064
314.111
314.157
314.203
314.248
314.292
314.336
314.379
314.421
314.463
)
;
        refGradient     nonuniform List<scalar> 
898
(
58.475
58.8806
59.6497
60.6029
62.2537
65.8724
-3.28842
-0.0681056
0.409179
-1.53723
76.2096
74.6532
74.0213
73.8373
73.2154
72.6668
72.1042
71.4943
70.8608
70.2418
69.6558
69.0905
68.5317
67.9742
67.4184
66.8502
58.6705
59.4556
61.0334
63.047
65.5185
69.1866
-1.59536
1.26271
1.60269
-0.645718
71.3364
68.3677
66.7234
66.24
65.8266
65.8835
66.107
66.3394
66.5215
66.6374
66.6734
66.6157
66.4602
66.2161
65.8976
65.4998
59.3407
60.6558
63.2684
66.4028
70.7998
74.2253
-3.24655
-0.921565
-0.530462
-2.29637
74.4303
70.6462
66.3183
64.9384
64.0439
63.8085
63.8201
63.9508
64.1404
64.3387
64.4996
64.5894
64.5942
64.5222
64.3699
64.117
61.3585
63.2163
66.3503
69.6696
82.5095
85.2056
13.4374
14.6595
14.913
13.8423
80.9279
76.0259
61.6327
60.0456
60.5383
61.5531
62.4369
63.0994
63.5792
63.8909
64.0573
64.0936
64.0192
63.8539
63.6104
63.2656
64.7773
66.2468
68.1952
71.8418
58.1098
56.127
58.5423
60.2758
61.6081
62.583
63.1215
63.1979
63.0498
62.731
62.2838
61.7227
61.1095
60.4746
69.253
69.2952
69.1184
71.5973
60.4366
56.5472
57.8099
59.1999
60.3336
61.0906
61.4821
61.5845
61.479
61.2174
60.8626
60.3854
59.9638
59.6172
72.0095
70.4587
68.6745
70.0878
60.4165
56.3546
57.3372
58.608
59.7373
60.5786
61.1602
61.4806
61.6018
61.5853
61.477
61.2278
60.9682
60.7446
72.687
70.6508
68.2292
68.954
60.1763
56.2388
57.2536
58.7537
60.0994
61.1583
61.9093
62.3553
62.573
62.6236
62.53
62.3619
62.1924
62.0114
73.1513
71.0979
68.6619
69.2303
59.7024
55.6133
56.8267
58.2257
59.64
60.8556
61.7751
62.3314
62.6339
62.7346
62.7192
62.6525
62.5552
62.4185
73.0689
71.4554
69.6328
70.6977
58.7081
54.0101
55.4308
56.7587
58.3429
59.7827
60.9144
61.5863
61.9482
62.1417
62.2223
62.2268
62.1748
62.0635
70.8573
70.7574
70.4864
72.5506
57.1013
51.1009
51.9491
55.2329
57.2643
58.8533
59.9485
60.6577
61.089
61.3263
61.4277
61.4333
61.3676
61.2342
66.9699
68.4779
70.5764
74.0512
56.1654
52.586
54.5486
56.6111
58.2532
59.3878
60.12
60.5534
60.7718
60.8385
60.7988
60.6843
60.5141
60.2928
63.3655
65.2664
68.2418
71.9194
-3.10415
-0.284291
0.600808
1.20128
1.70441
2.04656
1.84117
-1.32325
64.1209
61.4131
61.3751
61.5727
61.665
61.6276
61.4883
61.2759
61.0134
60.719
60.4059
60.0837
59.7576
59.4352
60.9559
62.2686
64.801
69.3457
-4.19242
-1.58624
-0.974697
-0.666765
-0.435366
-0.286922
-0.473187
-2.95664
68.3483
65.1431
64.1795
63.5368
62.9375
62.3541
61.7876
61.2412
60.7189
60.2247
59.7618
59.334
58.9462
58.626
59.8087
60.4714
62.1333
66.5833
-5.94844
-3.22669
-2.61694
-2.33936
-2.13429
-2.00247
-2.20481
-4.70154
67.4873
64.1147
63.0908
62.4538
61.8891
61.3547
60.8398
60.3392
59.8523
59.3838
58.941
58.5382
58.2044
58.0955
59.3034
59.5969
60.5897
64.4429
-7.36222
-4.56893
-3.96105
-3.71026
-3.53262
-3.42578
-3.65812
-6.17853
66.6214
63.3422
62.4104
61.8528
61.3419
60.8337
60.3282
59.8276
59.3338
58.8515
58.392
57.9825
57.688
57.7994
59.0394
59.1811
59.8088
62.9773
-2.6561
-0.0168561
0.568535
0.805321
0.964678
1.04772
0.802265
-1.5824
65.0713
62.0727
61.2566
60.7944
60.3743
59.9444
59.504
59.0587
58.6114
58.1662
57.7368
57.3753
57.2497
58.4685
58.8789
58.948
59.3426
61.6624
12.0595
14.1955
14.6981
14.9089
15.0392
15.0863
14.85
12.8943
63.0771
60.7189
60.0651
59.693
59.3553
59.0015
58.6281
58.2415
57.8466
57.4468
57.0599
56.7605
56.8284
59.2561
58.8161
58.8308
59.0317
60.3779
32.8165
34.1554
34.4879
34.6259
34.6947
34.6882
34.4815
33.1952
60.9109
59.4148
58.9406
58.6436
58.3708
58.084
57.7766
57.4532
57.1187
56.7774
56.4468
56.2208
56.4705
59.8774
58.8363
58.8047
58.8461
59.3376
50.9381
51.4656
51.5954
51.6319
51.6218
51.5587
51.3897
50.7784
59.0853
58.3894
58.0852
57.8572
57.6394
57.4097
57.1603
56.8929
56.6123
56.3246
56.0469
55.8794
56.2316
60.0228
58.8992
58.8345
58.7711
58.7357
60.8262
60.812
60.7877
60.7407
60.6691
60.5676
60.4306
60.2632
57.9794
57.7833
57.591
57.4079
57.2243
57.0314
56.8227
56.5972
56.3597
56.1194
55.8976
55.7766
56.1422
59.5216
58.9643
58.88
58.7664
58.5399
62.9549
62.7347
62.6342
62.5412
62.4374
62.3193
62.1991
62.1896
57.551
57.5333
57.3911
57.2318
57.0676
56.8976
56.7169
56.5224
56.3162
56.1071
55.9192
55.8349
56.2143
59.4964
59.0133
58.9195
58.7915
58.5727
61.2461
61.0311
60.9124
60.8044
60.6919
60.5727
60.4579
60.4308
57.5266
57.4951
57.3617
57.2103
57.054
56.8949
56.7305
56.5571
56.3747
56.191
56.0299
55.9711
56.3557
59.5648
59.0463
58.9477
58.8194
58.6602
59.2352
59.0813
58.9654
58.8539
58.7403
58.6236
58.5076
58.4177
57.6062
57.5108
57.3718
57.223
57.0709
56.9183
56.7645
56.6066
56.443
56.279
56.1354
56.0834
56.4347
59.3953
59.0691
58.9672
58.8398
58.7178
58.3125
58.1956
58.0812
57.9664
57.8512
57.7354
57.6172
57.4879
57.6498
57.5145
57.3713
57.225
57.0771
56.9295
56.7833
56.6368
56.4882
56.3401
56.2085
56.1507
56.4196
58.7973
59.0855
58.9806
58.8517
58.7362
58.2557
58.1424
58.0233
57.9024
57.783
57.6654
57.5453
57.4062
57.6365
57.4928
57.3495
57.2061
57.0624
56.9195
56.7788
56.6404
56.5028
56.3665
56.2417
56.1682
56.3162
57.8446
59.0973
58.9897
58.858
58.7352
58.4571
58.3325
58.2061
58.0788
57.9544
57.8338
57.7125
57.5774
57.6002
57.463
57.3219
57.1813
57.0416
56.903
56.7669
56.6342
56.5043
56.3767
56.2561
56.1645
56.1893
56.8665
59.1054
58.9957
58.8613
58.7308
58.5863
58.4503
58.3175
58.185
58.0563
57.9326
57.81
57.6796
57.565
57.4351
57.2962
57.1576
57.0207
56.8856
56.7532
56.6246
56.4997
56.3776
56.2595
56.1537
56.0866
56.1612
59.1106
58.9996
58.863
58.7279
58.6074
58.4642
58.327
58.1912
58.0595
57.9329
57.8088
57.6801
57.5385
57.4131
57.276
57.1388
57.0039
56.8715
56.7422
56.6166
56.4948
56.3761
56.2601
56.1474
56.0333
55.8284
59.1141
59.0023
58.8638
58.7256
58.5847
58.4374
58.2975
58.1598
58.0259
57.8968
57.7708
57.6417
57.5176
57.3945
57.2594
57.1233
56.9896
56.859
56.7318
56.6082
56.4882
56.3715
56.2576
56.1443
56.0183
55.766
59.1167
59.0042
58.8636
58.7223
58.5632
58.4132
58.2716
58.1329
57.9976
57.8663
57.7383
57.6083
57.499
57.3778
57.2449
57.1104
56.9777
56.848
56.722
56.5996
56.4808
56.3657
56.254
56.1434
56.0222
55.8161
59.1188
59.0053
58.8621
58.7173
58.5521
58.4002
58.2574
58.1181
57.9817
57.8488
57.719
57.588
57.4815
57.3614
57.2312
57.0988
56.9672
56.8379
56.7122
56.5904
56.4725
56.3587
56.2489
56.1413
56.0276
55.8683
59.1204
59.0055
58.8592
58.7105
58.546
58.3929
58.2492
58.1093
57.9722
57.8381
57.7069
57.5752
57.4648
57.3453
57.2175
57.0878
56.9577
56.8289
56.7031
56.5815
56.4643
56.3518
56.2435
56.1377
56.0282
55.8891
59.1215
59.0042
58.8546
58.7024
58.5398
58.3863
58.2418
58.1013
57.9636
57.8287
57.6964
57.5644
57.449
57.329
57.2033
57.0762
56.9482
56.8203
56.6947
56.5732
56.4567
56.3451
56.2376
56.1325
56.0237
55.886
59.1208
59.0003
58.8474
58.6921
58.5312
58.3779
58.2327
58.0915
57.9532
57.8177
57.6848
57.5526
57.433