/*--------------------------------*- C++ -*----------------------------------*\
| =========                 |                                                 |
| \\      /  F ield         | OpenFOAM: The Open Source CFD Toolbox           |
|  \\    /   O peration     | Version:  v2012                                 |
|   \\  /    A nd           | Website:  www.openfoam.com                      |
|    \\/     M anipulation  |                                                 |
\*---------------------------------------------------------------------------*/
FoamFile
{
    version     2.0;
    format      ascii;
    class       volScalarField;
    location    "650/air";
    object      alphat;
}
// * * * * * * * * * * * * * * * * * * * * * * * * * * * * * * * * * * * * * //

dimensions      [1 -1 -1 0 0 0 0];


internalField   nonuniform List<scalar> 
287104
(
0.00647909
0.0060022
0.0056354
0.00534293
0.00510413
0.00490567
0.00473838
0.00459566
0.00447268
0.00436576
0.00427209
0.00418946
0.00411614
0.00405071
0.00399204
0.00393919
0.00389138
0.00384796
0.00380839
0.00377221
0.00373901
0.00370847
0.00368029
0.00365422
0.00363004
0.00360756
0.00358661
0.00356705
0.00354874
0.00353156
0.00351541
0.00350021
0.00348585
0.00347227
0.0034594
0.00344717
0.00343552
0.0034244
0.00341375
0.00340355
0.00339374
0.00338428
0.00337514
0.00336629
0.0033577
0.00334935
0.00334121
0.00333326
0.00332549
0.00331788
0.00331043
0.00330311
0.00329593
0.00328887
0.00328193
0.00327512
0.00326841
0.00326182
0.00325535
0.00324898
0.00324273
0.00323658
0.00323055
0.00322463
0.00321881
0.0032131
0.0032075
0.003202
0.00319659
0.00319128
0.00318606
0.00318092
0.00317586
0.00317086
0.00316591
0.00316101
0.00315613
0.00315127
0.0031464
0.00314149
0.00313652
0.00313144
0.0031262
0.00312072
0.00311488
0.00310849
0.00310129
0.00309238
0.00308197
0.00305832
0.00647904
0.00600208
0.0056352
0.00534267
0.00510381
0.00490531
0.00473797
0.00459523
0.00447221
0.00436527
0.00427159
0.00418896
0.00411564
0.00405023
0.00399157
0.00393875
0.00389096
0.00384758
0.00380805
0.0037719
0.00373874
0.00370824
0.0036801
0.00365408
0.00362995
0.00360752
0.00358662
0.00356712
0.00354887
0.00353176
0.00351569
0.00350057
0.0034863
0.00347281
0.00346004
0.00344792
0.00343638
0.00342538
0.00341486
0.00340479
0.00339511
0.00338578
0.00337678
0.00336806
0.00335961
0.00335138
0.00334337
0.00333554
0.00332788
0.00332038
0.00331303
0.0033058
0.0032987
0.00329172
0.00328485
0.00327809
0.00327144
0.00326489
0.00325845
0.00325211
0.00324587
0.00323974
0.00323372
0.0032278
0.00322198
0.00321627
0.00321065
0.00320514
0.00319971
0.00319439
0.00318914
0.00318398
0.00317889
0.00317386
0.00316888
0.00316394
0.00315903
0.00315412
0.0031492
0.00314424
0.00313921
0.00313406
0.00312875
0.0031232
0.0031173
0.00311084
0.00310359
0.00309466
0.00308426
0.00306089
0.00647907
0.00600211
0.00563523
0.00534269
0.00510382
0.0049053
0.00473794
0.00459518
0.00447215
0.0043652
0.0042715
0.00418887
0.00411556
0.00405015
0.00399152
0.00393871
0.00389095
0.00384759
0.00380808
0.00377196
0.00373883
0.00370836
0.00368025
0.00365426
0.00363016
0.00360777
0.00358692
0.00356746
0.00354927
0.00353222
0.00351621
0.00350115
0.00348696
0.00347356
0.00346087
0.00344884
0.00343741
0.00342651
0.00341611
0.00340615
0.00339659
0.00338739
0.00337851
0.00336992
0.00336159
0.0033535
0.00334561
0.00333791
0.00333038
0.00332301
0.00331577
0.00330867
0.00330169
0.00329483
0.00328808
0.00328144
0.0032749
0.00326847
0.00326215
0.00325593
0.00324982
0.00324381
0.00323791
0.00323211
0.00322642
0.00322083
0.00321535
0.00320996
0.00320468
0.00319948
0.00319437
0.00318935
0.0031844
0.00317951
0.00317467
0.00316987
0.0031651
0.00316033
0.00315554
0.0031507
0.00314579
0.00314075
0.00313555
0.0031301
0.0031243
0.00311796
0.00311083
0.00310207
0.00309188
0.00306908
0.0064791
0.00600213
0.00563523
0.00534265
0.00510374
0.00490517
0.00473777
0.00459495
0.00447188
0.00436489
0.00427116
0.00418851
0.00411519
0.00404978
0.00399115
0.00393835
0.0038906
0.00384725
0.00380776
0.00377165
0.00373853
0.00370807
0.00367997
0.00365399
0.00362991
0.00360754
0.00358671
0.00356728
0.00354912
0.00353211
0.00351615
0.00350115
0.00348702
0.00347369
0.00346109
0.00344915
0.00343781
0.00342702
0.00341673
0.00340688
0.00339744
0.00338836
0.0033796
0.00337113
0.00336292
0.00335494
0.00334717
0.00333957
0.00333214
0.00332486
0.00331771
0.00331069
0.00330378
0.00329698
0.00329029
0.0032837
0.00327721
0.00327082
0.00326453
0.00325833
0.00325224
0.00324625
0.00324036
0.00323458
0.00322889
0.0032233
0.00321782
0.00321242
0.00320712
0.00320191
0.00319678
0.00319173
0.00318674
0.0031818
0.00317691
0.00317204
0.00316719
0.00316232
0.00315741
0.00315244
0.00314736
0.00314215
0.00313673
0.00313105
0.003125
0.00311841
0.00311103
0.00310204
0.00309164
0.00306878
0.00647913
0.00600217
0.00563525
0.00534265
0.00510371
0.00490511
0.00473766
0.0045948
0.00447167
0.00436464
0.00427088
0.00418821
0.00411488
0.00404947
0.00399085
0.00393807
0.00389033
0.003847
0.00380752
0.00377143
0.00373833
0.00370788
0.0036798
0.00365384
0.00362978
0.00360743
0.00358663
0.00356724
0.00354911
0.00353215
0.00351625
0.00350132
0.00348727
0.00347403
0.00346152
0.00344969
0.00343847
0.00342781
0.00341765
0.00340794
0.00339864
0.00338971
0.0033811
0.00337279
0.00336473
0.00335689
0.00334926
0.00334181
0.00333451
0.00332736
0.00332034
0.00331344
0.00330664
0.00329996
0.00329337
0.00328688
0.00328049
0.0032742
0.003268
0.0032619
0.0032559
0.00325
0.00324421
0.00323851
0.00323291
0.00322741
0.00322201
0.00321671
0.0032115
0.00320637
0.00320133
0.00319635
0.00319145
0.00318659
0.00318178
0.00317699
0.0031722
0.0031674
0.00316255
0.00315762
0.00315257
0.00314737
0.00314197
0.00313631
0.0031303
0.00312377
0.00311652
0.00310776
0.00309768
0.00307552
0.00647917
0.0060022
0.00563526
0.00534263
0.00510364
0.00490498
0.00473747
0.00459454
0.00447135
0.00436425
0.00427046
0.00418778
0.00411446
0.00404908
0.00399048
0.00393772
0.00389
0.00384669
0.00380722
0.00377113
0.00373803
0.00370759
0.00367951
0.00365355
0.0036295
0.00360717
0.00358639
0.00356703
0.00354895
0.00353205
0.00351622
0.00350137
0.00348743
0.00347431
0.00346194
0.00345026
0.0034392
0.00342872
0.00341876
0.00340926
0.00340018
0.00339148
0.0033831
0.00337503
0.00336721
0.00335962
0.00335224
0.00334503
0.00333799
0.00333108
0.00332431
0.00331765
0.0033111
0.00330466
0.00329832
0.00329208
0.00328594
0.00327991
0.00327397
0.00326814
0.00326242
0.00325681
0.00325132
0.00324593
0.00324066
0.00323551
0.00323046
0.00322553
0.00322071
0.003216
0.00321138
0.00320686
0.00320242
0.00319806
0.00319377
0.00318953
0.00318532
0.00318112
0.0031769
0.00317263
0.00316828
0.0031638
0.00315918
0.00315436
0.00314929
0.00314385
0.00313786
0.00313065
0.00312239
0.00310335
0.0064792
0.00600223
0.00563528
0.00534261
0.00510357
0.00490483
0.00473724
0.0045942
0.0044709
0.00436368
0.0042698
0.00418707
0.00411373
0.00404835
0.00398977
0.00393704
0.00388935
0.00384606
0.00380661
0.00377053
0.00373744
0.00370701
0.00367895
0.003653
0.00362897
0.00360668
0.00358595
0.00356664
0.00354865
0.00353185
0.00351615
0.00350145
0.00348768
0.00347477
0.00346263
0.00345122
0.00344045
0.00343029
0.00342066
0.00341152
0.00340283
0.00339452
0.00338656
0.00337888
0.00337146
0.00336427
0.0033573
0.00335051
0.00334389
0.00333742
0.00333109
0.00332487
0.00331878
0.00331279
0.00330691
0.00330113
0.00329546
0.0032899
0.00328446
0.00327912
0.00327391
0.00326882
0.00326386
0.00325902
0.00325432
0.00324976
0.00324534
0.00324105
0.00323691
0.0032329
0.00322903
0.0032253
0.0032217
0.00321822
0.00321486
0.0032116
0.00320844
0.00320534
0.00320227
0.00319921
0.00319609
0.0031929
0.00318963
0.00318625
0.00318274
0.00317902
0.00317504
0.0031704
0.00316576
0.0031523
0.00647923
0.00600226
0.00563528
0.00534257
0.00510347
0.00490465
0.00473695
0.0045938
0.00447036
0.00436303
0.0042691
0.0041864
0.00411313
0.00404782
0.0039893
0.00393659
0.00388891
0.00384559
0.00380609
0.00376994
0.00373677
0.00370624
0.00367808
0.00365206
0.00362796
0.00360562
0.00358487
0.00356559
0.00354766
0.00353096
0.00351541
0.00350091
0.00348737
0.00347471
0.00346287
0.00345178
0.00344138
0.00343161
0.0034224
0.0034137
0.00340544
0.00339757
0.00339004
0.00338281
0.00337583
0.00336907
0.0033625
0.00335611
0.00334986
0.00334375
0.00333776
0.00333189
0.00332615
0.00332053
0.00331502
0.00330964
0.00330438
0.00329925
0.00329424
0.00328937
0.00328464
0.00328004
0.00327558
0.00327127
0.0032671
0.00326306
0.00325917
0.00325542
0.0032518
0.00324831
0.00324495
0.00324172
0.0032386
0.00323559
0.00323267
0.00322983
0.00322706
0.00322433
0.00322159
0.0032188
0.00321589
0.00321284
0.00320967
0.00320638
0.00320295
0.00319936
0.0031956
0.00319154
0.00318823
0.0031813
0.00647926
0.00600229
0.00563528
0.00534251
0.00510333
0.0049044
0.00473652
0.00459312
0.00446932
0.00436154
0.00426783
0.0041861
0.00411414
0.00405009
0.0039925
0.00394028
0.00389262
0.00384891
0.00380867
0.00377155
0.00373725
0.00370552
0.00367618
0.00364903
0.00362394
0.00360075
0.00357932
0.00355953
0.00354124
0.00352433
0.0035087
0.00349424
0.00348086
0.00346847
0.00345698
0.00344631
0.00343638
0.0034271
0.00341838
0.00341013
0.00340228
0.00339476
0.00338753
0.00338054
0.00337376
0.00336715
0.00336071
0.00335443
0.00334831
0.00334233
0.00333649
0.00333078
0.00332519
0.00331972
0.00331438
0.00330915
0.00330406
0.00329909
0.00329425
0.00328955
0.00328499
0.00328056
0.00327627
0.00327213
0.00326812
0.00326426
0.00326053
0.00325695
0.0032535
0.00325019
0.00324702
0.00324398
0.00324106
0.00323827
0.00323561
0.00323304
0.00323058
0.00322818
0.00322583
0.00322338
0.00322072
0.00321792
0.00321508
0.0032122
0.00320926
0.00320621
0.00320303
0.00319959
0.00319678
0.00319172
0.00647929
0.00600232
0.00563528
0.00534246
0.00510319
0.00490414
0.0047361
0.00459248
0.00446834
0.00436033
0.00432685
0.00430957
0.00428389
0.00424533
0.00419605
0.00413979
0.00408003
0.00401948
0.00396005
0.00390303
0.00384926
0.00379921
0.00375309
0.00371096
0.00367276
0.00363831
0.00360733
0.00357949
0.00355438
0.00353157
0.00351061
0.00349098
0.00347353
0.00345888
0.00344635
0.00343544
0.00342573
0.00341691
0.00340877
0.00340112
0.00339384
0.00338682
0.00337999
0.0033733
0.00336691
0.00336091
0.00335533
0.00335012
0.00334524
0.00334065
0.00333629
0.00333214
0.00332817
0.00332436
0.0033207
0.00331718
0.00331381
0.00331059
0.00330751
0.00330457
0.00330177
0.00329911
0.00329659
0.00329419
0.00329193
0.0032898
0.0032878
0.00328593
0.00328418
0.00328257
0.00328108
0.00327971
0.00327848
0.00327738
0.00327641
0.00327556
0.00327484
0.00327421
0.00327364
0.00327293
0.00326513
0.00325581
0.00324684
0.00323873
0.00323153
0.00322509
0.00321922
0.00321353
0.00320868
0.00320145
0.00647932
0.00600234
0.00563527
0.00534238
0.005103
0.00490376
0.00473537
0.0045911
0.00446516
0.00436362
0.00769018
0.00841167
0.00839907
0.0081413
0.00781748
0.00749536
0.00719965
0.00693801
0.00671136
0.00651808
0.00635568
0.00622142
0.00611248
0.00602603
0.00595922
0.00590918
0.00587306
0.0058481
0.00583168
0.00582143
0.00581532
0.00581163
0.00580951
0.0058089
0.00580961
0.00581114
0.00581297
0.00581477
0.00581634
0.00581761
0.00581863
0.00581954
0.00582028
0.00582086
0.00582122
0.00582151
0.00582205
0.00582316
0.00582515
0.00582831
0.00583282
0.0058388
0.00584633
0.00585549
0.00586632
0.00587878
0.00589287
0.00590864
0.00592612
0.00594531
0.00596623
0.00598884
0.0060131
0.00603898
0.00606642
0.00609534
0.00612566
0.00615731
0.00619019
0.00622421
0.00625924
0.00629517
0.00633187
0.00636924
0.00640721
0.00644578
0.0064853
0.0065265
0.00657412
0.00661878
0.00529867
0.00451805
0.00403493
0.00372714
0.00352771
0.00339716
0.00331114
0.00325357
0.00321521
0.00318346
0.00647936
0.00600237
0.00563527
0.00534232
0.00510286
0.00490351
0.00473496
0.00459047
0.00446423
0.00436237
0.00769071
0.00841398
0.00839969
0.00813768
0.00780814
0.00747939
0.00717659
0.00690774
0.00667401
0.006474
0.00630541
0.00616566
0.00605212
0.00596208
0.00589278
0.00584138
0.00580501
0.00578082
0.00576604
0.00575812
0.00575475
0.00575398
0.0057542
0.00575414
0.00575292
0.00574989
0.0057446
0.00573679
0.0057263
0.00571306
0.00569708
0.00567843
0.00565752
0.00563469
0.00561016
0.00558416
0.00555701
0.00552899
0.00550035
0.00547126
0.0054419
0.00541247
0.00538316
0.00535417
0.00532567
0.00529786
0.00527098
0.00524524
0.00522088
0.00519816
0.00517738
0.00515887
0.00514292
0.00512987
0.00512004
0.00511377
0.00511138
0.00511315
0.00511929
0.00512998
0.00514532
0.00516532
0.00518996
0.00521914
0.00525277
0.00529076
0.00533325
0.00538025
0.005436
0.00548892
0.00458487
0.00402933
0.00367315
0.00343854
0.00328189
0.00317681
0.00310632
0.00305789
0.00302376
0.00298799
0.00647939
0.0060024
0.00563527
0.00534227
0.00510273
0.00490326
0.00473454
0.00458981
0.0044632
0.00436086
0.00768401
0.00840791
0.00839532
0.00813491
0.00780652
0.00747842
0.0071758
0.00690679
0.00667273
0.00647238
0.00630361
0.00616401
0.0060511
0.00596228
0.0058949
0.00584615
0.00581317
0.00579304
0.00578293
0.00578015
0.00578232
0.00578737
0.00579361
0.00579971
0.00580471
0.00580792
0.00580891
0.00580745
0.00580339
0.00579671
0.00578744
0.00577567
0.00576155
0.0057453
0.00572714
0.0057073
0.00568604
0.00566363
0.0056403
0.00561629
0.0055918
0.00556699
0.005542
0.00551693
0.00549182
0.00546667
0.00544147
0.00541618
0.00539074
0.00536514
0.00533929
0.00531318
0.00528678
0.00526008
0.00523307
0.00520572
0.00517805
0.00515007
0.00512183
0.00509341
0.00506494
0.00503655
0.00500843
0.00498082
0.00495402
0.00492844
0.00490474
0.00488344
0.00486853
0.00484984
0.00407141
0.00361302
0.00332993
0.00314691
0.00302321
0.00293581
0.00287116
0.00281936
0.00277538
0.00271938
0.00647942
0.00600243
0.00563528
0.00534225
0.00510265
0.00490311
0.00473429
0.00458945
0.00446271
0.00436025
0.00768215
0.00840636
0.00839421
0.00813402
0.00780562
0.00747732
0.00717438
0.00690499
0.00667054
0.00646985
0.00630083
0.00616109
0.00604819
0.00595956
0.00589257
0.00584444
0.00581228
0.0057932
0.00578432
0.00578297
0.00578672
0.00579349
0.00580156
0.00580962
0.00581667
0.00582203
0.00582523
0.00582599
0.00582415
0.0058196
0.00581236
0.0058025
0.00579016
0.00577557
0.00575901
0.0057408
0.00572133
0.00570096
0.00568008
0.00565901
0.00563805
0.00561746
0.0055982
0.00558039
0.00556387
0.00554846
0.00553404
0.00552051
0.00550782
0.00549599
0.0054851
0.00547522
0.00546636
0.00545851
0.00545167
0.00544585
0.00544104
0.00543721
0.00543432
0.00543232
0.00543115
0.00543074
0.00543102
0.00543194
0.00543349
0.00543573
0.0054391
0.00544434
0.00545636
0.00547716
0.00461105
0.00412217
0.0038286
0.00364106
0.00351305
0.00341904
0.00334415
0.00327787
0.00321238
0.00314639
0.00647945
0.00600246
0.00563529
0.00534223
0.0051026
0.00490299
0.0047341
0.00458917
0.00446232
0.00435974
0.0076797
0.0084036
0.00839153
0.0081315
0.00780325
0.00747501
0.00717206
0.00690258
0.00666799
0.00646714
0.00629797
0.00615814
0.00604521
0.00595667
0.00588988
0.00584206
0.00581035
0.00579182
0.0057836
0.005783
0.00578757
0.00579524
0.00580428
0.00581337
0.0058215
0.00582797
0.00583227
0.00583408
0.00583316
0.00582934
0.00582254
0.00581276
0.0058001
0.0057848
0.00576715
0.00574754
0.00572641
0.00570419
0.00568129
0.0056581
0.00563494
0.00561207
0.00558971
0.00556801
0.00554708
0.00552699
0.00550778
0.00548945
0.005472
0.00545592
0.00544119
0.00542762
0.00541503
0.00540328
0.00539228
0.00538198
0.00537239
0.00536357
0.0053556
0.00534854
0.00534241
0.00533728
0.00533322
0.00533036
0.00532885
0.00532893
0.00533118
0.00533651
0.00534979
0.00537372
0.00454409
0.00407967
0.00380378
0.00362997
0.00351333
0.00342925
0.00336342
0.00330575
0.00324722
0.00317054
0.00647948
0.00600249
0.00563532
0.00534224
0.00510257
0.00490294
0.00473401
0.00458902
0.00446213
0.00435948
0.00767819
0.00840164
0.00838928
0.00812899
0.00780049
0.00747201
0.00716882
0.00689914
0.00666438
0.0064634
0.00629415
0.00615431
0.00604144
0.00595303
0.00588644
0.00583889
0.00580751
0.00578934
0.00578151
0.0057813
0.00578629
0.00579439
0.00580389
0.00581348
0.00582216
0.00582921
0.00583412
0.0058365
0.00583601
0.00583237
0.00582538
0.00581492
0.00580103
0.00578393
0.00576398
0.00574162
0.00571739
0.00569183
0.00566543
0.00563864
0.00561181
0.00558522
0.00555908
0.00553353
0.00550864
0.00548444
0.00546094
0.00543809
0.00541586
0.00539417
0.00537295
0.00535214
0.00533165
0.0053114
0.00529129
0.00527123
0.00525113
0.0052309
0.00521048
0.00518976
0.00516868
0.00514716
0.00512515
0.0051026
0.00507951
0.00505594
0.00503212
0.00500811
0.00498692
0.00495899
0.00417986
0.00373294
0.00346411
0.00329288
0.00317572
0.00308842
0.00301732
0.00295305
0.002892
0.0028111
0.00647951
0.00600253
0.00563535
0.00534226
0.00510258
0.00490294
0.004734
0.00458902
0.00446214
0.00435949
0.00767772
0.00840062
0.00838762
0.00812666
0.00779749
0.00746841
0.0071647
0.0068946
0.00665955
0.00645841
0.00628912
0.00614937
0.00603671
0.00594859
0.00588236
0.0058352
0.00580417
0.00578631
0.0057787
0.00577864
0.00578369
0.0057918
0.00580133
0.00581101
0.00581992
0.00582736
0.00583281
0.00583582
0.00583593
0.00583268
0.00582562
0.00581446
0.00579913
0.00577982
0.00575698
0.00573118
0.00570313
0.00567351
0.00564293
0.00561195
0.00558096
0.00555028
0.00552012
0.00549059
0.00546175
0.0054336
0.00540609
0.00537915
0.00535271
0.00532668
0.00530097
0.00527548
0.00525014
0.00522486
0.00519957
0.00517421
0.00514875
0.00512317
0.00509746
0.00507166
0.00504585
0.00502011
0.00499463
0.0049696
0.00494535
0.00492227
0.00490103
0.00488215
0.00486943
0.0048528
0.0040848
0.00364012
0.00337181
0.00320319
0.00309255
0.00301636
0.00296097
0.00291685
0.00287942
0.00282951
0.00647954
0.00600257
0.00563539
0.00534229
0.00510262
0.00490298
0.00473405
0.00458909
0.00446222
0.00435957
0.00767638
0.00839801
0.00838397
0.0081223
0.00779272
0.00746345
0.00715975
0.00688978
0.00665499
0.00645423
0.00628549
0.00614645
0.00603471
0.0059477
0.00588274
0.00583693
0.00580726
0.00579071
0.00578431
0.00578538
0.00579155
0.00580089
0.0058119
0.00582345
0.00583472
0.00584508
0.00585395
0.00586071
0.00586459
0.00586468
0.00586009
0.00585014
0.00583461
0.00581377
0.00578831
0.00575922
0.00572758
0.00569445
0.00566076
0.00562727
0.00559453
0.0055629
0.00553262
0.00550377
0.00547636
0.00545033
0.00542559
0.00540205
0.00537965
0.00535834
0.00533805
0.00531874
0.00530037
0.00528295
0.00526649
0.00525105
0.00523669
0.00522351
0.00521164
0.00520124
0.00519247
0.00518555
0.00518069
0.00517817
0.00517831
0.0051815
0.00518842
0.00520012
0.00522137
0.00524408
0.00441276
0.00393134
0.00363983
0.00345582
0.00333497
0.00325241
0.00319359
0.00314882
0.00311239
0.00307015
0.00647957
0.00600261
0.00563543
0.00534235
0.0051027
0.00490311
0.00473427
0.00458946
0.00446286
0.00436058
0.00768021
0.00840044
0.00838418
0.00812043
0.00778928
0.00745922
0.00715573
0.00688721
0.00665531
0.00645909
0.00629665
0.00616565
0.00606348
0.00598722
0.00593369
0.00589953
0.0058813
0.00587568
0.00587964
0.00589053
0.00590622
0.00592502
0.00594568
0.00596728
0.00598909
0.00601043
0.00603046
0.00604806
0.00606176
0.0060697
0.00607005
0.00606148
0.00604356
0.00601688
0.00598286
0.00594343
0.00590071
0.00585676
0.00581333
0.00577185
0.00573334
0.00569846
0.00566753
0.00564066
0.00561772
0.00559849
0.00558283
0.00557053
0.00556132
0.00555484
0.00555075
0.00554874
0.00554855
0.00555001
0.005553
0.00555745
0.00556334
0.00557068
0.0055795
0.00558985
0.00560178
0.00561536
0.00563068
0.00564783
0.005667
0.00568849
0.00571298
0.00574405
0.00578832
0.00584636
0.00487951
0.00431163
0.00395747
0.00372577
0.00356829
0.00345783
0.00337805
0.00331815
0.00327074
0.00322481
0.0064796
0.00600265
0.00563548
0.00534241
0.00510278
0.00490323
0.00473447
0.00458977
0.00446335
0.00436119
0.00767527
0.00839257
0.00837768
0.00811775
0.00779471
0.00747874
0.00719634
0.00695623
0.00675955
0.00660409
0.00648604
0.00640082
0.0063435
0.00630921
0.00629328
0.00629156
0.00630045
0.006317
0.00633888
0.00636438
0.00639227
0.00642172
0.00645222
0.00648341
0.00651501
0.00654658
0.00657743
0.00660631
0.00663129
0.00664958
0.00665803
0.0066539
0.00663559
0.00660305
0.00655762
0.00650171
0.00643831
0.00637066
0.00630194
0.0062351
0.00617267
0.0061167
0.00606872
0.00602969
0.00600001
0.0059797
0.00597003
0.0059703
0.00597842
0.00599215
0.00600963
0.00602948
0.00605074
0.0060728
0.00609533
0.00611811
0.00614109
0.00616424
0.00618759
0.00621115
0.00623498
0.00625913
0.00628366
0.00630863
0.0063342
0.00636065
0.00638866
0.00641956
0.00645919
0.00650433
0.0052692
0.00454247
0.00409215
0.0038024
0.00361079
0.00348137
0.00339238
0.00332992
0.00328539
0.00324929
0.00647963
0.00600269
0.00563554
0.00534249
0.00510292
0.00490348
0.00473499
0.00459085
0.00446616
0.00435744
0.00428066
0.00421376
0.00414557
0.00408221
0.0040229
0.00396743
0.00391575
0.00386781
0.00382353
0.00378277
0.00374539
0.0037112
0.00368002
0.00365166
0.00362592
0.00360261
0.00358153
0.00356254
0.00354545
0.00353015
0.00351651
0.00350445
0.00349391
0.00348485
0.00347728
0.00347123
0.00346672
0.00346374
0.00346219
0.00346182
0.00346217
0.00346267
0.00346278
0.003462
0.00346004
0.00345665
0.00345179
0.00344558
0.0034382
0.00342989
0.00342089
0.00341147
0.00340186
0.00339229
0.00338294
0.00337397
0.00336551
0.00335765
0.00335043
0.00334387
0.00333795
0.00333262
0.00332783
0.00332353
0.00331966
0.00331616
0.00331298
0.00331007
0.00330741
0.00330495
0.00330268
0.00330056
0.00329859
0.00329675
0.00329503
0.00329342
0.00329192
0.00329052
0.0032892
0.00328779
0.00328001
0.00327085
0.003262
0.00325398
0.00324685
0.00324053
0.00323489
0.00322969
0.00322547
0.00321898
0.00647966
0.00600273
0.00563558
0.00534255
0.00510299
0.00490359
0.00473517
0.00459113
0.00446661
0.00435803
0.00426288
0.00417907
0.0041047
0.00403827
0.00397856
0.00392461
0.00387563
0.00383099
0.00379016
0.0037527
0.00371827
0.00368656
0.00365732
0.00363035
0.00360546
0.0035825
0.00356135
0.00354191
0.00352408
0.00350779
0.00349301
0.00347969
0.00346786
0.00345753
0.00344879
0.00344176
0.00343657
0.00343331
0.00343196
0.00343225
0.00343358
0.00343516
0.00343624
0.00343623
0.00343477
0.00343174
0.00342718
0.00342123
0.00341409
0.00340599
0.00339716
0.00338784
0.00337824
0.00336853
0.00335886
0.00334935
0.00334011
0.00333121
0.00332274
0.00331472
0.0033072
0.00330018
0.00329366
0.00328765
0.00328212
0.00327705
0.00327243
0.00326821
0.00326438
0.00326091
0.00325776
0.00325492
0.00325236
0.00325006
0.00324798
0.00324612
0.00324446
0.00324295
0.00324158
0.00324021
0.00323873
0.00323716
0.00323559
0.00323406
0.00323254
0.00323099
0.00322941
0.0032276
0.00322625
0.00322149
0.00647969
0.00600277
0.00563562
0.0053426
0.00510307
0.00490371
0.00473536
0.00459147
0.00446719
0.00435892
0.00426395
0.0041801
0.00410558
0.00403893
0.00397897
0.00392475
0.00387549
0.00383056
0.00378941
0.00375162
0.00371681
0.00368469
0.00365499
0.00362752
0.00360209
0.00357857
0.00355682
0.00353675
0.00351828
0.00350134
0.00348591
0.00347197
0.00345954
0.00344871
0.00343961
0.00343246
0.00342755
0.00342516
0.00342549
0.00342823
0.00343249
0.00343712
0.00344095
0.00344313
0.0034432
0.00344106
0.00343679
0.0034306
0.0034228
0.00341371
0.00340367
0.00339302
0.00338197
0.00337069
0.00335943
0.00334839
0.00333773
0.00332757
0.00331798
0.00330903
0.00330076
0.00329318
0.00328629
0.00328009
0.00327455
0.00326965
0.00326536
0.00326164
0.00325846
0.00325578
0.00325356
0.00325177
0.00325035
0.00324929
0.00324852
0.00324803
0.00324774
0.00324762
0.0032476
0.00324761
0.00324754
0.00324737
0.00324709
0.00324667
0.00324608
0.0032452
0.00324391
0.00324177
0.00323883
0.00322915
0.00647972
0.0060028
0.00563566
0.00534263
0.00510309
0.00490373
0.00473538
0.00459148
0.00446718
0.00435886
0.00426375
0.00417968
0.00410487
0.00403792
0.00397766
0.00392314
0.00387358
0.00382833
0.00378687
0.00374875
0.0037136
0.00368112
0.00365106
0.00362321
0.00359739
0.00357347
0.00355132
0.00353084
0.00351196
0.00349461
0.00347875
0.00346438
0.00345154
0.00344033
0.00343094
0.00342374
0.00341921
0.003418
0.00342082
0.00342751
0.00343686
0.00344701
0.00345598
0.00346241
0.00346572
0.00346579
0.00346284
0.00345726
0.00344949
0.00344001
0.00342954
0.00341837
0.00340684
0.00339523
0.0033838
0.00337276
0.00336229
0.00335252
0.00334358
0.00333553
0.00332845
0.00332234
0.00331723
0.00331307
0.00330984
0.00330747
0.00330589
0.00330501
0.00330473
0.00330496
0.00330558
0.00330649
0.00330758
0.00330875
0.00330991
0.00331097
0.00331185
0.00331248
0.00331279
0.00331271
0.00331216
0.00331108
0.00330944
0.0033072
0.00330431
0.00330069
0.00329623
0.00329046
0.0032835
0.00326895
0.00647975
0.00600284
0.00563569
0.00534265
0.00510309
0.00490371
0.00473535
0.00459143
0.00446711
0.00435876
0.00426356
0.00417933
0.00410432
0.00403711
0.00397655
0.00392169
0.00387176
0.00382612
0.00378424
0.00374568
0.00371008
0.00367714
0.0036466
0.00361827
0.00359198
0.00356758
0.00354496
0.00352401
0.00350466
0.00348684
0.00347049
0.0034556
0.0034422
0.00343039
0.00342041
0.00341275
0.00340818
0.00340804
0.00341473
0.00342959
0.0034514
0.00347639
0.00349999
0.00351939
0.0035335
0.00354225
0.00354617
0.00354604
0.00354272
0.00353705
0.00353045
0.00352379
0.00351752
0.00351199
0.00350743
0.00350399
0.00350173
0.0035006
0.00350053
0.00350134
0.00350284
0.00350483
0.00350707
0.00350937
0.00351152
0.00351336
0.00351475
0.00351558
0.00351578
0.0035153
0.0035141
0.00351218
0.00350955
0.00350623
0.00350223
0.00349761
0.00349238
0.00348659
0.00348026
0.0034734
0.00346603
0.00345814
0.00344975
0.00344085
0.00343141
0.00342136
0.0034106
0.00339864
0.00338555
0.00336536
0.00647978
0.00600287
0.00563571
0.00534265
0.00510306
0.00490365
0.00473523
0.00459124
0.00446684
0.00435836
0.00426299
0.00417855
0.00410327
0.00403576
0.00397486
0.00391964
0.00386932
0.00382326
0.00378094
0.00374192
0.00370583
0.00367238
0.00364132
0.00361247
0.00358564
0.00356072
0.00353757
0.00351611
0.00349624
0.00347788
0.00346096
0.00344544
0.00343131
0.00341865
0.00340767
0.00339902
0.0033937
0.0033945
0.00341196
0.00345624
0.00352592
0.00360613
0.00368158
0.0037463
0.00379872
0.00383971
0.00387108
0.00389479
0.0039126
0.00392595
0.00393542
0.00394397
0.00395125
0.00395676
0.00396012
0.00396113
0.00395971
0.00395593
0.00394993
0.00394194
0.0039322
0.00392095
0.00390842
0.00389484
0.0038804
0.00386527
0.00384959
0.00383349
0.00381708
0.00380044
0.00378366
0.00376679
0.00374989
0.003733
0.00371615
0.00369938
0.0036827
0.00366612
0.00364963
0.00363325
0.00361693
0.00360067
0.00358443
0.00356818
0.00355184
0.0035353
0.00351842
0.00350066
0.00348201
0.00345696
0.00647981
0.0060029
0.00563573
0.00534264
0.00510302
0.00490355
0.00473507
0.004591
0.0044665
0.00435789
0.00426236
0.0041777
0.00410218
0.00403437
0.00397313
0.00391753
0.00386678
0.00382026
0.00377743
0.00373786
0.00370119
0.00366713
0.00363545
0.00360595
0.00357848
0.00355292
0.00352914
0.00350707
0.00348658
0.00346759
0.00344999
0.00343371
0.00341864
0.00340479
0.00339219
0.00338151
0.00337383
0.00337544
0.00344401
0.00362677
0.00389015
0.0041527
0.00436733
0.00452904
0.00464221
0.00471566
0.00475797
0.00477649
0.00477716
0.00476471
0.00474282
0.00471261
0.00467629
0.00463545
0.00459163
0.00454611
0.00449996
0.00445396
0.00440867
0.00436447
0.00432159
0.00428015
0.00424021
0.00420174
0.00416471
0.00412906
0.00409472
0.00406162
0.00402968
0.00399885
0.00396906
0.00394026
0.00391238
0.00388546
0.00385944
0.00383422
0.00380971
0.00378582
0.00376251
0.00373971
0.00371734
0.00369535
0.00367366
0.00365217
0.00363082
0.00360965
0.00358845
0.00356662
0.003544
0.00351552
0.00647983
0.00600292
0.00563574
0.00534262
0.00510295
0.00490342
0.00473487
0.0045907
0.00446606
0.0043573
0.00426157
0.00417668
0.00410087
0.00403274
0.00397113
0.0039151
0.00386389
0.00381685
0.00377345
0.00373326
0.00369594
0.00366118
0.00362877
0.00359852
0.00357031
0.003544
0.00351951
0.00349674
0.00347556
0.00345589
0.00343759
0.00342054
0.00340458
0.00338956
0.00337522
0.00336215
0.00335076
0.00335988
0.00369615
0.00438149
0.0050826
0.00557811
0.00585586
0.00597373
0.00598157
0.00592081
0.00582102
0.005702
0.0055762
0.00545085
0.00532933
0.00521314
0.00510371
0.005002
0.00490819
0.00482196
0.00474273
0.00466981
0.00460246
0.00454006
0.00448201
0.00442787
0.00437742
0.00433015
0.00428545
0.00424293
0.00420231
0.0041634
0.00412605
0.00409015
0.00405558
0.00402227
0.00399014
0.00395912
0.00392913
0.00390012
0.00387201
0.00384473
0.00381823
0.00379242
0.00376724
0.00374261
0.00371842
0.00369456
0.00367087
0.0036471
0.00362292
0.0035975
0.00357144
0.00354043
0.00647986
0.00600295
0.00563574
0.00534259
0.00510287
0.00490328
0.00473463
0.00459036
0.00446559
0.00435665
0.00426073
0.00417559
0.0040995
0.00403102
0.00396902
0.00391254
0.00386082
0.0038132
0.00376916
0.00372826
0.00369016
0.00365458
0.0036213
0.00359016
0.00356104
0.00353385
0.00350851
0.00348492
0.00346298
0.00344255
0.00342351
0.00340573
0.00338894
0.00337288
0.00335671
0.00334044
0.00332143
0.00336466
0.00460995
0.00604846
0.00697398
0.00736391
0.00737885
0.00718591
0.00689952
0.00658811
0.00628801
0.0060156
0.0057761
0.00556904
0.00539146
0.0052394
0.0051089
0.00499608
0.00489759
0.0048108
0.00473394
0.00466571
0.00460342
0.00454556
0.00449122
0.00443983
0.004391
0.00434445
0.00429996
0.00425735
0.00421647
0.00417722
0.00413947
0.00410315
0.00406816
0.00403443
0.00400188
0.00397044
0.00394003
0.0039106
0.00388207
0.00385438
0.00382746
0.00380123
0.00377563
0.00375056
0.00372593
0.00370161
0.00367744
0.00365316
0.00362841
0.00360228
0.00357324
0.00353976
0.00647988
0.00600296
0.00563574
0.00534255
0.00510278
0.00490311
0.00473438
0.00458999
0.00446507
0.00435596
0.00425981
0.00417442
0.00409801
0.00402917
0.00396674
0.00390977
0.00385748
0.00380922
0.00376445
0.00372274
0.00368374
0.00364719
0.00361287
0.00358067
0.00355048
0.00352225
0.00349593
0.00347143
0.00344864
0.00342745
0.00340776
0.00338955
0.00337274
0.00335731
0.00334252
0.00332843
0.00331109
0.00335904
0.00471047
0.00624106
0.00721326
0.00758346
0.00757898
0.00736506
0.00705017
0.00670524
0.00637031
0.00606468
0.00579551
0.00556358
0.00536626
0.00519975
0.00505988
0.00494413
0.00484652
0.004762
0.0046872
0.00461976
0.00455804
0.00450086
0.0044474
0.00439705
0.00434939
0.00430408