/*--------------------------------*- C++ -*----------------------------------*\
| =========                 |                                                 |
| \\      /  F ield         | OpenFOAM: The Open Source CFD Toolbox           |
|  \\    /   O peration     | Version:  v2012                                 |
|   \\  /    A nd           | Website:  www.openfoam.com                      |
|    \\/     M anipulation  |                                                 |
\*---------------------------------------------------------------------------*/
FoamFile
{
    version     2.0;
    format      ascii;
    class       volScalarField;
    location    "650/air";
    object      epsilon;
}
// * * * * * * * * * * * * * * * * * * * * * * * * * * * * * * * * * * * * * //

dimensions      [0 2 -3 0 0 0 0];


internalField   nonuniform List<scalar> 
287104
(
0.0965288
0.0769509
0.0638413
0.0545282
0.0476355
0.0423722
0.0382509
0.0349558
0.0322745
0.0300595
0.0282058
0.0266368
0.0252953
0.0241383
0.0231323
0.0222515
0.0214752
0.0207871
0.0201738
0.0196245
0.0191302
0.0186837
0.0182786
0.0179098
0.0175729
0.0172641
0.0169803
0.0167186
0.0164767
0.0162525
0.016044
0.0158498
0.0156684
0.0154985
0.0153389
0.0151887
0.0150468
0.0149126
0.0147852
0.0146639
0.0145482
0.0144374
0.0143311
0.0142289
0.0141302
0.0140348
0.0139423
0.0138525
0.0137651
0.01368
0.0135969
0.0135158
0.0134364
0.0133588
0.0132828
0.0132084
0.0131355
0.0130642
0.0129943
0.0129258
0.0128589
0.0127933
0.0127292
0.0126664
0.012605
0.012545
0.0124862
0.0124288
0.0123725
0.0123174
0.0122634
0.0122104
0.0121583
0.0121071
0.0120565
0.0120065
0.0119568
0.0119074
0.0118579
0.0118081
0.0117576
0.0117061
0.0116528
0.011597
0.0115374
0.0114718
0.0113975
0.011305
0.0111969
0.0109476
0.096523
0.0769405
0.0638278
0.0545126
0.0476185
0.0423544
0.0382325
0.0349371
0.0322555
0.0300405
0.0281868
0.0266179
0.0252767
0.02412
0.0231145
0.0222342
0.0214584
0.0207708
0.020158
0.0196092
0.0191155
0.0186695
0.0182649
0.0178967
0.0175603
0.0172521
0.0169689
0.0167078
0.0164666
0.0162431
0.0160355
0.0158421
0.0156616
0.0154927
0.0153343
0.0151852
0.0150446
0.0149117
0.0147856
0.0146658
0.0145514
0.0144421
0.0143372
0.0142364
0.0141391
0.014045
0.0139538
0.0138652
0.0137789
0.0136948
0.0136127
0.0135323
0.0134537
0.0133767
0.0133012
0.0132272
0.0131547
0.0130835
0.0130137
0.0129454
0.0128784
0.0128127
0.0127484
0.0126854
0.0126238
0.0125634
0.0125043
0.0124465
0.0123898
0.0123342
0.0122798
0.0122263
0.0121737
0.0121219
0.0120708
0.0120202
0.0119699
0.0119198
0.0118696
0.011819
0.0117677
0.0117152
0.011661
0.0116043
0.0115437
0.0114773
0.0114024
0.0113095
0.0112014
0.0109551
0.0965206
0.076936
0.063822
0.0545058
0.0476109
0.0423461
0.0382237
0.0349278
0.0322459
0.0300306
0.0281768
0.0266079
0.0252668
0.0241103
0.023105
0.0222249
0.0214495
0.0207622
0.0201498
0.0196013
0.0191079
0.0186622
0.018258
0.0178901
0.0175541
0.0172464
0.0169636
0.016703
0.0164624
0.0162395
0.0160325
0.01584
0.0156603
0.0154923
0.0153348
0.0151867
0.0150473
0.0149155
0.0147907
0.0146721
0.014559
0.014451
0.0143475
0.014248
0.0141521
0.0140593
0.0139694
0.0138822
0.0137972
0.0137143
0.0136334
0.0135543
0.0134769
0.013401
0.0133267
0.0132538
0.0131824
0.0131123
0.0130437
0.0129764
0.0129105
0.012846
0.0127828
0.012721
0.0126605
0.0126013
0.0125434
0.0124867
0.0124312
0.0123769
0.0123237
0.0122715
0.0122202
0.0121696
0.0121198
0.0120704
0.0120214
0.0119724
0.0119234
0.0118738
0.0118235
0.011772
0.0117186
0.0116626
0.0116029
0.0115373
0.0114634
0.0113719
0.0112655
0.0110244
0.0965183
0.0769312
0.0638152
0.0544973
0.047601
0.042335
0.0382115
0.0349146
0.0322319
0.030016
0.0281619
0.0265928
0.0252518
0.0240955
0.0230905
0.0222107
0.0214356
0.0207485
0.0201363
0.0195881
0.0190949
0.0186494
0.0182453
0.0178776
0.0175419
0.0172343
0.0169518
0.0166917
0.0164514
0.016229
0.0160227
0.0158308
0.0156519
0.0154848
0.0153283
0.0151813
0.015043
0.0149125
0.0147889
0.0146717
0.0145601
0.0144534
0.0143513
0.0142532
0.0141586
0.0140671
0.0139785
0.0138923
0.0138084
0.0137266
0.0136465
0.0135682
0.0134915
0.0134162
0.0133424
0.01327
0.0131989
0.0131291
0.0130607
0.0129936
0.0129278
0.0128633
0.0128001
0.0127382
0.0126776
0.0126183
0.0125602
0.0125033
0.0124476
0.012393
0.0123393
0.0122867
0.0122348
0.0121837
0.0121331
0.0120829
0.0120328
0.0119828
0.0119323
0.0118813
0.0118291
0.0117755
0.0117198
0.0116612
0.0115988
0.0115305
0.011454
0.0113601
0.0112517
0.0110102
0.0965161
0.076927
0.0638094
0.0544902
0.0475927
0.0423255
0.0382009
0.034903
0.0322195
0.0300028
0.0281482
0.026579
0.025238
0.0240819
0.0230772
0.0221978
0.021423
0.0207363
0.0201244
0.0195765
0.0190836
0.0186383
0.0182345
0.017867
0.0175315
0.0172242
0.0169421
0.0166824
0.0164426
0.0162208
0.0160152
0.0158241
0.0156462
0.0154801
0.0153248
0.0151791
0.0150422
0.0149131
0.0147912
0.0146755
0.0145656
0.0144607
0.0143603
0.0142638
0.0141709
0.014081
0.013994
0.0139093
0.0138269
0.0137464
0.0136677
0.0135906
0.013515
0.0134408
0.013368
0.0132966
0.0132264
0.0131576
0.01309
0.0130238
0.0129588
0.0128951
0.0128327
0.0127716
0.0127118
0.0126532
0.0125959
0.0125397
0.0124847
0.0124308
0.0123779
0.0123259
0.0122747
0.0122242
0.0121743
0.0121246
0.0120751
0.0120255
0.0119754
0.0119245
0.0118724
0.0118186
0.0117627
0.011704
0.0116416
0.0115736
0.0114979
0.011406
0.0113004
0.0110654
0.096514
0.0769227
0.0638032
0.0544823
0.0475832
0.0423146
0.0381885
0.0348893
0.0322045
0.029987
0.028132
0.0265629
0.0252224
0.0240668
0.0230627
0.0221839
0.0214095
0.0207232
0.0201116
0.0195638
0.0190709
0.0186257
0.0182219
0.0178545
0.0175192
0.0172121
0.0169303
0.016671
0.0164318
0.0162107
0.016006
0.015816
0.0156394
0.0154748
0.0153211
0.0151773
0.0150424
0.0149155
0.0147959
0.0146827
0.0145753
0.0144731
0.0143754
0.0142817
0.0141915
0.0141045
0.0140201
0.0139382
0.0138584
0.0137806
0.0137045
0.01363
0.0135569
0.0134853
0.013415
0.0133461
0.0132784
0.0132121
0.0131472
0.0130835
0.0130213
0.0129604
0.0129009
0.0128429
0.0127862
0.0127309
0.012677
0.0126245
0.0125733
0.0125233
0.0124745
0.0124269
0.0123802
0.0123344
0.0122894
0.012245
0.012201
0.012157
0.0121129
0.0120682
0.0120224
0.0119753
0.0119265
0.0118755
0.0118217
0.0117637
0.0116996
0.0116222
0.0115337
0.011328
0.0965119
0.0769184
0.0637971
0.0544745
0.0475737
0.0423032
0.0381753
0.034874
0.0321871
0.0299675
0.0281112
0.0265416
0.0252012
0.0240462
0.0230428
0.0221647
0.021391
0.0207053
0.0200941
0.0195467
0.0190541
0.0186092
0.0182057
0.0178386
0.0175036
0.017197
0.0169158
0.0166574
0.0164193
0.0161995
0.0159964
0.0158083
0.0156339
0.0154718
0.015321
0.0151804
0.0150489
0.0149258
0.0148102
0.0147012
0.0145982
0.0145005
0.0144074
0.014318
0.0142321
0.0141492
0.014069
0.0139912
0.0139156
0.0138419
0.01377
0.0136996
0.0136308
0.0135633
0.0134972
0.0134324
0.013369
0.0133069
0.0132462
0.013187
0.0131292
0.0130728
0.0130181
0.0129648
0.0129132
0.0128631
0.0128147
0.0127678
0.0127226
0.0126789
0.0126367
0.0125961
0.0125569
0.012519
0.0124824
0.0124468
0.0124122
0.0123782
0.0123444
0.0123105
0.0122759
0.0122402
0.0122033
0.0121652
0.0121254
0.0120833
0.0120383
0.0119863
0.0119365
0.0117878
0.0965098
0.0769141
0.0637908
0.0544664
0.0475636
0.0422911
0.0381608
0.0348572
0.0321679
0.0299465
0.0280897
0.0265213
0.0251825
0.0240291
0.0230269
0.0221495
0.0213761
0.0206901
0.0200783
0.0195299
0.0190362
0.01859
0.0181853
0.0178171
0.0174812
0.0171742
0.0168928
0.0166346
0.0163973
0.0161789
0.0159777
0.0157921
0.0156202
0.015461
0.0153133
0.0151761
0.0150484
0.0149292
0.0148176
0.0147127
0.0146137
0.0145199
0.0144305
0.0143449
0.0142626
0.0141832
0.0141061
0.0140313
0.0139583
0.0138869
0.0138171
0.0137487
0.0136818
0.0136163
0.0135521
0.0134894
0.0134281
0.0133683
0.01331
0.0132532
0.0131979
0.0131442
0.0130921
0.0130416
0.0129927
0.0129453
0.0128995
0.0128552
0.0128123
0.0127709
0.0127309
0.0126921
0.0126546
0.0126182
0.0125828
0.0125482
0.0125142
0.0124804
0.0124466
0.0124119
0.0123758
0.012338
0.0122988
0.0122583
0.0122162
0.0121724
0.0121271
0.0120787
0.0120406
0.011964
0.0965077
0.0769098
0.0637844
0.0544578
0.0475526
0.042277
0.0381429
0.0348342
0.0321379
0.0299083
0.0280572
0.0265082
0.0251939
0.0240626
0.0230758
0.0222058
0.0214319
0.0207387
0.0201148
0.019551
0.01904
0.0185761
0.0181543
0.0177704
0.0174206
0.0171018
0.0168109
0.0165454
0.0163029
0.0160811
0.015878
0.0156919
0.015521
0.0153641
0.0152197
0.0150865
0.0149632
0.0148486
0.0147414
0.0146404
0.0145446
0.0144532
0.0143653
0.0142805
0.0141983
0.0141183
0.0140402
0.0139642
0.0138899
0.0138174
0.0137466
0.0136774
0.0136096
0.0135433
0.0134785
0.0134152
0.0133534
0.0132931
0.0132344
0.0131773
0.0131218
0.013068
0.0130158
0.0129653
0.0129164
0.0128691
0.0128235
0.0127796
0.0127372
0.0126964
0.0126572
0.0126195
0.0125833
0.0125485
0.0125151
0.012483
0.012452
0.0124218
0.012392
0.0123612
0.012328
0.0122932
0.012258
0.0122226
0.0121866
0.0121496
0.0121114
0.0120706
0.0120381
0.0119818
0.0965057
0.0769056
0.0637781
0.0544493
0.0475416
0.0422631
0.0381254
0.0348121
0.0321094
0.0298759
0.0292306
0.0289193
0.0284425
0.0277176
0.0267982
0.0257679
0.0246995
0.0236453
0.0226391
0.0217006
0.0208394
0.0200587
0.0193572
0.0187313
0.0181757
0.0176846
0.0172511
0.0168679
0.0165276
0.0162228
0.0159462
0.0156901
0.0154654
0.0152795
0.0151228
0.0149881
0.0148696
0.0147629
0.014665
0.0145736
0.0144867
0.0144032
0.0143219
0.0142422
0.014166
0.0140947
0.0140283
0.0139664
0.0139085
0.0138538
0.013802
0.0137524
0.0137048
0.0136589
0.0136146
0.0135718
0.0135306
0.0134909
0.0134526
0.0134159
0.0133806
0.0133467
0.0133142
0.0132831
0.0132534
0.0132251
0.0131982
0.0131726
0.0131483
0.0131255
0.013104
0.0130838
0.0130652
0.013048
0.0130322
0.0130179
0.013005
0.012993
0.0129819
0.0129686
0.0128706
0.0127549
0.0126439
0.0125437
0.012455
0.0123757
0.0123039
0.0122353
0.0121777
0.0120954
0.0965037
0.0769013
0.0637716
0.0544402
0.0475292
0.0422461
0.0381005
0.0347735
0.0320337
0.0299375
0.164272
0.215555
0.215167
0.196479
0.174405
0.154106
0.136902
0.122789
0.111379
0.102231
0.0949486
0.0892026
0.0847218
0.0812829
0.0786987
0.0768089
0.0754742
0.0745721
0.0739949
0.0736494
0.0734577
0.0733555
0.0733102
0.0733201
0.073379
0.0734681
0.0735692
0.0736688
0.0737597
0.0738398
0.0739107
0.0739782
0.07404
0.074095
0.0741418
0.0741854
0.0742379
0.0743116
0.0744185
0.0745692
0.0747706
0.0750274
0.0753433
0.0757217
0.0761642
0.0766705
0.077241
0.0778779
0.0785839
0.0793605
0.0802086
0.0811285
0.0821204
0.0831837
0.0843177
0.0855211
0.0867924
0.0881297
0.0895304
0.0909921
0.0925115
0.0940846
0.0957069
0.097375
0.099087
0.100844
0.102665
0.104584
0.106836
0.108932
0.0558016
0.0345439
0.0245722
0.0193428
0.016382
0.0146143
0.0135192
0.0128161
0.0123609
0.0119954
0.0965017
0.0768972
0.0637654
0.0544319
0.0475185
0.0422326
0.0380834
0.0347521
0.0320064
0.0299045
0.164257
0.215656
0.215127
0.19613
0.173699
0.153049
0.135526
0.121132
0.10948
0.100127
0.0926753
0.0867925
0.0822072
0.0786957
0.0760706
0.0741714
0.0728574
0.0720036
0.0714988
0.0712447
0.071156
0.0711606
0.0711999
0.0712285
0.0712136
0.0711322
0.0709682
0.0707117
0.0703576
0.0699047
0.0693549
0.0687123
0.0679936
0.0672117
0.0663752
0.065495
0.0645827
0.0636494
0.0627042
0.0617533
0.0608035
0.0598614
0.0589332
0.0580248
0.057142
0.0562903
0.055476
0.0547054
0.0539844
0.0533196
0.0527192
0.052191
0.0517427
0.0513825
0.0511189
0.0509608
0.0509165
0.0509939
0.0511997
0.0515398
0.0520184
0.0526386
0.0534023
0.0543108
0.0553654
0.0565682
0.0579298
0.0594575
0.0613024
0.0630784
0.0367253
0.0248953
0.0188322
0.015426
0.0133921
0.0121288
0.0113237
0.0107888
0.0104203
0.0100464
0.0964998
0.0768931
0.0637594
0.0544238
0.047508
0.0422192
0.0380662
0.0347298
0.0319771
0.0298663
0.163783
0.215121
0.214714
0.195851
0.173515
0.152917
0.135412
0.121016
0.109354
0.0999918
0.0925375
0.0866653
0.0821078
0.0786453
0.0760928
0.0742911
0.0730996
0.0723921
0.0720549
0.0719867
0.0720989
0.0723161
0.0725765
0.0728314
0.0730449
0.0731922
0.073257
0.0732288
0.0731031
0.0728792
0.0725594
0.072148
0.0716516
0.0710779
0.0704363
0.0697372
0.068991
0.0682083
0.0673986
0.0665706
0.0657322
0.0648895
0.0640475
0.0632096
0.0623776
0.0615516
0.0607308
0.0599143
0.0591006
0.0582886
0.0574767
0.056664
0.0558501
0.055035
0.0542184
0.0534001
0.0525803
0.0517598
0.0509405
0.050125
0.0493166
0.0485195
0.0477389
0.0469809
0.0462538
0.0455675
0.0449394
0.0443819
0.0440015
0.0435179
0.0257501
0.0179929
0.0140821
0.0118809
0.0105298
0.00963839
0.00901169
0.00852934
0.00813403
0.00765037
0.0964979
0.0768893
0.0637537
0.0544164
0.047499
0.0422082
0.0380532
0.0347146
0.0319596
0.0298467
0.163619
0.214935
0.214552
0.195709
0.173379
0.152777
0.135263
0.120856
0.109184
0.0998147
0.0923569
0.0864855
0.0819339
0.0784828
0.0759479
0.0741706
0.0730103
0.0723412
0.0720494
0.0720331
0.072203
0.0724834
0.0728118
0.0731395
0.0734301
0.0736581
0.0738056
0.0738606
0.0738165
0.073671
0.0734244
0.0730804
0.0726451
0.0721266
0.0715362
0.0708881
0.0701968
0.0694772
0.0687429
0.0680063
0.0672783
0.0665676
0.0659072
0.0653001
0.0647406
0.0642221
0.0637393
0.0632887
0.0628681
0.062478
0.0621206
0.0617978
0.0615097
0.0612555
0.061035
0.0608484
0.0606951
0.0605741
0.0604837
0.0604222
0.0603877
0.0603779
0.0603906
0.0604238
0.0604777
0.0605546
0.0606685
0.0608441
0.0612444
0.0619201
0.0369135
0.0263539
0.0211024
0.0181422
0.0162895
0.0150133
0.0140472
0.0132302
0.0124594
0.0117136
0.096496
0.0768855
0.0637484
0.0544096
0.0474907
0.0421984
0.0380417
0.0347013
0.0319442
0.029829
0.163418
0.214656
0.214271
0.195451
0.173147
0.152565
0.135064
0.120665
0.108998
0.09963
0.0921741
0.0863054
0.0817584
0.0783146
0.0757901
0.0740265
0.0728836
0.0722354
0.0719677
0.0719787
0.0721789
0.0724922
0.0728566
0.0732229
0.0735544
0.0738246
0.0740146
0.0741098
0.0741011
0.073983
0.0737528
0.0734115
0.0729638
0.0724177
0.071786
0.0710851
0.0703322
0.0695444
0.0687375
0.0679255
0.0671202
0.0663307
0.0655643
0.0648261
0.0641196
0.0634463
0.0628069
0.0622014
0.061629
0.0611048
0.0606277
0.060191
0.0597882
0.0594142
0.059066
0.0587417
0.0584409
0.0581657
0.0579183
0.0577002
0.0575123
0.057356
0.0572338
0.0571493
0.0571076
0.057116
0.057193
0.0573672
0.0577951
0.0585491
0.0353708
0.0255761
0.0207163
0.0179942
0.016307
0.0151585
0.0142986
0.0135744
0.0128691
0.0119855
0.0964942
0.0768819
0.0637434
0.0544034
0.0474834
0.0421902
0.0380325
0.0346911
0.0319331
0.0298168
0.163277
0.214439
0.214024
0.195194
0.172889
0.152311
0.134814
0.120421
0.108759
0.0993984
0.0919496
0.0860889
0.0815509
0.0781172
0.075604
0.0738527
0.0727231
0.0720888
0.0718356
0.0718614
0.0720768
0.0724061
0.0727874
0.0731725
0.0735249
0.0738182
0.074032
0.0741498
0.0741587
0.0740488
0.0738125
0.0734469
0.0729545
0.072343
0.0716273
0.0708274
0.0699646
0.0690598
0.0681322
0.0671981
0.0662705
0.0653592
0.064471
0.0636102
0.0627793
0.0619786
0.0612076
0.0604646
0.0597475
0.0590538
0.0583809
0.0577261
0.0570866
0.0564593
0.0558413
0.0552296
0.0546213
0.0540139
0.053405
0.0527922
0.0521735
0.0515467
0.0509107
0.0502646
0.0496089
0.0489451
0.0482808
0.0476179
0.0470412
0.046279
0.0277218
0.01975
0.0157846
0.0135584
0.0121626
0.0111874
0.0104329
0.00978113
0.00918835
0.00844112
0.0964925
0.0768785
0.0637387
0.0543979
0.0474772
0.0421836
0.0380256
0.0346842
0.0319264
0.0298102
0.163203
0.214295
0.213823
0.194951
0.172617
0.15202
0.134515
0.12012
0.108462
0.0991095
0.0916725
0.0858263
0.0813049
0.0778888
0.0753934
0.0736591
0.0725446
0.0719224
0.071678
0.071709
0.0719267
0.0722568
0.0726394
0.0730284
0.0733899
0.0736987
0.0739344
0.0740781
0.0741117
0.0740181
0.0737815
0.0733917
0.0728474
0.0721561
0.0713365
0.0704143
0.0694174
0.0683727
0.0673041
0.0662311
0.0651686
0.0641272
0.0631138
0.0621321
0.0611833
0.0602664
0.0593796
0.05852
0.0576848
0.0568706
0.0560742
0.0552925
0.0545226
0.0537619
0.0530082
0.0522597
0.0515153
0.0507744
0.050037
0.0493043
0.048578
0.0478611
0.0471578
0.0464741
0.045818
0.0451996
0.0446361
0.0441399
0.0438125
0.0433784
0.025871
0.0183039
0.0145414
0.0124603
0.0112062
0.0103911
0.00982219
0.00938307
0.00902077
0.00855524
0.0964908
0.0768752
0.0637343
0.0543928
0.0474717
0.0421779
0.0380201
0.034679
0.0319215
0.0298049
0.163074
0.21403
0.213471
0.194564
0.172229
0.15165
0.134171
0.119806
0.10818
0.0988595
0.0914571
0.0856487
0.0811692
0.0777991
0.075353
0.0736693
0.0726047
0.0720301
0.0718302
0.0719035
0.072164
0.0725415
0.0729813
0.0734428
0.0738962
0.0743183
0.074687
0.0749762
0.0751556
0.0751907
0.0750471
0.0747006
0.0741438
0.0733878
0.0724623
0.071409
0.0702719
0.0690922
0.0679047
0.0667364
0.0656064
0.0645266
0.0635036
0.0625394
0.0616327
0.0607802
0.0599777
0.0592214
0.0585085
0.0578359
0.057201
0.0566016
0.0560362
0.0555039
0.0550048
0.0545396
0.0541101
0.0537187
0.0533686
0.0530638
0.0528091
0.0526098
0.0524725
0.0524047
0.0524161
0.0525186
0.0527325
0.0530907
0.0537414
0.0544351
0.0324151
0.0229025
0.0181591
0.0155263
0.0139396
0.0129168
0.012217
0.0117
0.0112899
0.01083
0.0964891
0.076872
0.0637303
0.0543885
0.0474677
0.0421748
0.0380188
0.0346808
0.0319285
0.0298187
0.163276
0.214152
0.213415
0.194357
0.171931
0.151324
0.13388
0.119608
0.108132
0.0990196
0.0918805
0.0863868
0.0822653
0.0792856
0.0772491
0.0759814
0.0753282
0.0751541
0.075342
0.0757938
0.07643
0.0771892
0.0780253
0.0789042
0.0797988
0.0806826
0.0815223
0.08227
0.0828625
0.083223
0.0832742
0.082962
0.0822708
0.081228
0.0798985
0.0783695
0.0767314
0.0750672
0.0734453
0.071917
0.0705165
0.0692635
0.0681657
0.0672219
0.0664247
0.0657629
0.0652287
0.0648134
0.0645058
0.0642928
0.0641618
0.0641019
0.0641045
0.0641632
0.064274
0.0644348
0.0646451
0.0649053
0.0652169
0.0655818
0.0660025
0.0664821
0.0670242
0.0676335
0.0683175
0.0690886
0.0699731
0.0711006
0.0727257
0.0748659
0.0434668
0.0299509
0.0231332
0.0192825
0.0169225
0.0153847
0.014332
0.013573
0.0129924
0.0124499
0.0964874
0.0768689
0.0637264
0.0543843
0.0474636
0.0421714
0.038017
0.0346812
0.0319324
0.0298248
0.162922
0.213496
0.212859
0.1941
0.17222
0.152434
0.136077
0.123128
0.11316
0.105682
0.10024
0.0964432
0.0939604
0.0925144
0.0918738
0.0918471
0.0922788
0.0930449
0.0940497
0.0952222
0.0965114
0.0978833
0.0993159
0.100795
0.102309
0.10384
0.105354
0.106791
0.108051
0.108998
0.109468
0.109325
0.108492
0.106971
0.104845
0.102254
0.0993584
0.0963232
0.0932995
0.0904157
0.0877739
0.0854485
0.0834874
0.0819149
0.0807338
0.079933
0.0795537
0.0795654
0.0798865
0.0804312
0.081128
0.0819237
0.0827816
0.0836782
0.0845994
0.0855379
0.0864907
0.087457
0.0884377
0.0894344
0.090449
0.0914839
0.0925417
0.0936265
0.0947449
0.0959098
0.0971537
0.0985373
0.100332
0.102366
0.0543559
0.0347878
0.0254096
0.0203681
0.0174282
0.0156095
0.0144337
0.0136435
0.0130982
0.0126692
0.0964858
0.076866
0.0637229
0.0543808
0.0474613
0.0421716
0.038023
0.0346991
0.0319859
0.0297403
0.0282263
0.0269516
0.0256902
0.0245545
0.0235222
0.0225837
0.0217323
0.0209624
0.020268
0.019643
0.0190818
0.0185785
0.0181279
0.0177249
0.017365
0.0170439
0.0167577
0.0165031
0.0162771
0.0160772
0.0159011
0.0157474
0.0156146
0.0155022
0.0154098
0.0153378
0.0152864
0.0152551
0.0152426
0.0152455
0.015258
0.0152726
0.015282
0.0152797
0.0152616
0.0152243
0.0151674
0.0150924
0.0150019
0.014899
0.0147871
0.0146697
0.0145499
0.0144306
0.0143143
0.014203
0.0140981
0.0140007
0.0139115
0.0138304
0.0137572
0.0136912
0.0136319
0.0135785
0.0135303
0.0134865
0.0134466
0.01341
0.0133762
0.0133448
0.0133155
0.0132881
0.0132623
0.013238
0.0132151
0.0131936
0.0131732
0.0131538
0.0131354
0.0131155
0.0130192
0.0129068
0.0127987
0.0127008
0.0126139
0.0125369
0.0124684
0.0124057
0.0123555
0.0122813
0.0964842
0.0768629
0.063719
0.0543766
0.0474572
0.0421682
0.038021
0.0346991
0.0319893
0.0297458
0.0278693
0.0262844
0.0249304
0.0237617
0.0227438
0.0218502
0.0210602
0.0203575
0.0197292
0.0191649
0.0186563
0.0181963
0.0177795
0.017401
0.0170571
0.0167444
0.0164602
0.0162022
0.0159686
0.0157579
0.0155689
0.0154007
0.0152529
0.0151258
0.0150198
0.0149365
0.0148772
0.014843
0.0148334
0.014845
0.0148698
0.014898
0.0149196
0.0149267
0.0149146
0.014882
0.0148292
0.0147582
0.0146716
0.0145725
0.0144642
0.0143496
0.0142317
0.0141126
0.0139943
0.0138782
0.0137658
0.013658
0.0135555
0.0134588
0.0133683
0.0132841
0.0132061
0.0131341
0.0130681
0.0130076
0.0129523
0.0129019
0.012856
0.0128143
0.0127764
0.0127421
0.0127109
0.0126827
0.0126571
0.0126339
0.0126129
0.0125937
0.0125759
0.012558
0.0125386
0.0125183
0.0124981
0.0124784
0.012459
0.0124395
0.0124198
0.012398
0.0123827
0.01233
0.0964826
0.0768599
0.0637151
0.0543724
0.0474531
0.0421649
0.0380193
0.0347002
0.0319952
0.0297575
0.0278838
0.0262974
0.0249398
0.0237666
0.0227439
0.0218456
0.0210509
0.0203435
0.0197104
0.0191411
0.0186271
0.0181614
0.0177384
0.0173535
0.0170026
0.0166827
0.0163911
0.0161255
0.0158841
0.0156655
0.0154688
0.0152932
0.0151387
0.0150058
0.014896
0.0148118
0.0147567
0.0147342
0.0147466
0.01479
0.0148533
0.0149215
0.0149796
0.0150161
0.0150251
0.0150051
0.0149572
0.0148844
0.0147907
0.0146804
0.0145584
0.0144289
0.0142948
0.0141583
0.0140225
0.0138899
0.0137624
0.0136414
0.0135279
0.0134225
0.0133256
0.0132372
0.0131574
0.0130858
0.0130222
0.0129662
0.0129174
0.0128754
0.0128396
0.0128097
0.012785
0.0127652
0.0127498
0.0127383
0.0127302
0.012725
0.0127223
0.0127213
0.0127214
0.0127217
0.012721
0.012719
0.0127156
0.0127106
0.0127035
0.0126931
0.0126781
0.0126536
0.0126208
0.0125099
0.096481
0.0768568
0.0637109
0.0543674
0.0474476
0.0421591
0.0380133
0.034694
0.0319886
0.0297499
0.0278735
0.0262828
0.0249204
0.0237424
0.0227151
0.0218122
0.0210132
0.0203016
0.0196642
0.0190907
0.0185723
0.0181022
0.0176747
0.0172851
0.0169296
0.016605
0.0163087
0.0160384
0.0157923
0.015569
0.0153674
0.0151869
0.0150277
0.0148905
0.0147775
0.0146931
0.0146432
0.0146359
0.0146801
0.0147742
0.0149031
0.0150431
0.0151686
0.015261
0.0153122
0.0153206
0.0152891
0.0152227
0.0151276
0.0150103
0.0148804
0.014742
0.0145995
0.0144568
0.0143169
0.0141826
0.0140558
0.0139384
0.0138314
0.0137358
0.0136521
0.0135805
0.0135209
0.013473
0.0134361
0.0134095
0.0133922
0.0133833
0.0133815
0.0133856
0.0133943
0.0134064
0.0134206
0.0134357
0.0134506
0.0134642
0.0134756
0.0134839
0.0134883
0.0134879
0.0134819
0.0134694
0.0134501
0.0134236
0.0133895
0.0133466
0.0132938
0.0132257
0.0131437
0.0129724
0.0964795
0.0768536
0.0637066
0.0543622
0.0474417
0.0421526
0.0380063
0.0346866
0.0319808
0.0297413
0.0278633
0.0262699
0.0249039
0.0237217
0.0226896
0.0217816
0.0209772
0.0202599
0.0196168
0.0190374
0.018513
0.0180369
0.0176035
0.017208
0.0168467
0.0165165
0.0162147
0.015939
0.0156876
0.0154589
0.0152518
0.0150654
0.0148997
0.0147556
0.0146356
0.0145459
0.0144958
0.0145018
0.0145949
0.0147929
0.0150829
0.0154182
0.0157392
0.0160071
0.016205
0.0163304
0.0163893
0.0163921
0.0163507
0.0162767
0.0161898
0.0161021
0.0160196
0.015947
0.0158874
0.0158427
0.0158136
0.0157996
0.0157994
0.015811
0.0158319
0.0158591
0.0158898
0.0159212
0.0159506
0.0159759
0.0159952
0.0160069
0.01601
0.0160039
0.0159882
0.0159628
0.0159278
0.0158836
0.0158305
0.0157691
0.0156999
0.0156233
0.0155399
0.0154499
0.0153535
0.0152509
0.0151422
0.0150275
0.0149066
0.0147785
0.0146423
0.0144917
0.0143285
0.0140779
0.0964779
0.0768504
0.063702
0.0543565
0.0474349
0.0421446
0.0379972
0.0346761
0.0319685
0.0297268
0.0278458
0.0262487
0.0248784
0.0236914
0.0226543
0.0217411
0.0209311
0.0202082
0.0195592
0.0189737
0.0184431
0.0179607
0.0175208
0.017119
0.0167514
0.0164151
0.0161073
0.0158258
0.0155686
0.0153339
0.0151203
0.0149268
0.0147527
0.0145986
0.0144669
0.0143651
0.0143059
0.0143234
0.0145506
0.0151267
0.0160588
0.0171763
0.0182723
0.0192479
0.020062
0.0207136
0.021221
0.0216092
0.0219031
0.0221246
0.0222822
0.0224254
0.0225476
0.0226403
0.0226969
0.0227134
0.0226886
0.0226238
0.0225217
0.0223864
0.0222222
0.0220337
0.0218253
0.0216008
0.0213639
0.0211176
0.0208644
0.0206067
0.0203461
0.0200843
0.0198225
0.0195617
0.0193027
0.0190462
0.0187928
0.0185427
0.0182962
0.0180533
0.0178142
0.0175785
0.017346
0.0171164
0.0168892
0.0166639
0.0164395
0.0162145
0.015987
0.01575
0.0155038
0.0151766
0.0964763
0.0768472
0.0636975
0.0543506
0.0474277
0.0421362
0.0379873
0.0346646
0.0319551
0.029711
0.0278272
0.0262267
0.0248524
0.0236609
0.0226187
0.0216999
0.0208839
0.0201545
0.0194986
0.0189059
0.0183679
0.0178778
0.0174301
0.0170204
0.0166452
0.0163014
0.0159865
0.015698
0.015434
0.0151924
0.0149714
0.0147693
0.0145845
0.0144165
0.0142653
0.0141392
0.0140508
0.0140752
0.0149447
0.0174356
0.0214894
0.0261082
0.0303374
0.0338046
0.036378
0.0381128
0.0391335
0.039582
0.039592
0.0392796
0.0387391
0.0380045
0.0371349
0.0361742
0.0351625
0.0341325
0.0331093
0.0321103
0.0311469
0.0302258
0.0293499
0.0285199
0.0277349
0.0269929
0.0262913
0.0256276
0.024999
0.0244031
0.0238373
0.0232994
0.0227875
0.0222998
0.0218344
0.021391
0.0209682
0.0205638
0.0201758
0.0198027
0.019443
0.0190955
0.0187589
0.0184318
0.0181131
0.0178011
0.0174952
0.0171954
0.0168985
0.0165964
0.0162873
0.0159031
0.0964748
0.0768441
0.0636929
0.0543447
0.0474204
0.0421273
0.0379766
0.0346519
0.03194
0.0296932
0.027806
0.0262017
0.024823
0.0236264
0.0225787
0.0216539
0.0208313
0.0200949
0.0194314
0.0188307
0.0182842
0.0177853
0.0173286
0.01691
0.016526
0.0161736
0.0158505
0.0155544
0.0152829
0.015034
0.0148054
0.0145951
0.0144004
0.0142193
0.014048
0.0138935
0.0137598
0.0138676
0.0184233
0.0306024
0.0476526
0.0628873
0.0726739
0.0770991
0.077376
0.0750329
0.0713047
0.067028
0.0627003
0.0585792
0.0547612
0.0512697
0.0481205
0.0453124
0.0428217
0.0406149
0.0386556
0.0369092
0.0353443
0.0339344
0.0326575
0.031496
0.0304391
0.0294704
0.0285735
0.0277374
0.0269542
0.026218
0.025524
0.0248686
0.0242484
0.0236606
0.0231027
0.0225725
0.0220679
0.0215868
0.0211276
0.0206883
0.0202674
0.0198633
0.0194743
0.0190987
0.0187347
0.0183805
0.0180334
0.0176897
0.0173447
0.0169871
0.0166261
0.0162027
0.0964735
0.0768413
0.0636887
0.054339
0.0474132
0.0421184
0.0379659
0.034639
0.0319246
0.0296749
0.0277843
0.0261761
0.0247928
0.0235911
0.0225377
0.0216064
0.0207766
0.0200323
0.0193602
0.0187501
0.0181937
0.0176843
0.017217
0.0167876
0.0163929
0.0160304
0.0156978
0.0153927
0.015113
0.0148562
0.0146201
0.0144022
0.014199
0.0140067
0.0138146
0.0136229
0.0133953
0.0139039
0.035573
0.080024
0.122364
0.143878
0.144702
0.133648
0.118326
0.103055
0.0896426
0.0785241
0.0695437
0.0623552
0.0565999
0.0519628
0.0481913
0.0450823
0.0424802
0.0402725
0.0383831
0.0367561
0.0353115
0.0340041
0.032806
0.0316994
0.0306714
0.0297125
0.0288148
0.0279724
0.02718
0.0264333
0.0257284
0.0250621
0.0244312
0.0238331
0.0232653
0.0227255
0.0222115
0.0217215
0.0212535
0.0208058
0.0203767
0.0199645
0.0195676
0.0191844
0.0188129
0.0184511
0.0180963
0.0177446
0.017391
0.0170231
0.0166207
0.0161645
0.0964724
0.0768388
0.063685
0.0543339
0.0474065
0.04211
0.0379554
0.0346262
0.0319091
0.0296563
0.0277621
0.0261497
0.0247616
0.0235544
0.0224947
0.0215563
0.0207187
0.0199655
0.0192837
0.0186629
0.0180949
0.0175733
0.0170933
0.016651
0.0162438
0.0158695
0.015526
0.0152112
0.0149228
0.0146584
0.0144162
0.0141951
0.0139937
0.0138111
0.013638
0.0134744
0.0132687
0.0138313
0.0379091
0.0877581
0.135079
0.156695
0.156418
0.143583
0.125998
0.10845
0.0930485
0.0803317
0.0701397
0.0620813
0.0557316
0.0507231
0.0467564
0.0436346
0.041113
0.0390099
0.0372096
0.0356351
0.0342336
0.0329688
0.0318149
0.0307534
0.0297706
0.0288562
0.028002
0.0272014
0.0264491
0.0257406
0.025072
0.0244398
0.0238412
0.0232733
0.0227338
0.0222205
0.0217313
0.0212643
0.0208179
0.0203903
0.0199798
0.019585
0.0192041
0.0188356
0.0184776
0.0181279
0.0177839
0.0174417
0.0170963
0.016735
0.0163364
0.0158477
0.0964716
0.0768369
0.0636819
0.0543295
0.0474006
0.0421023
0.0379457
0.0346142
0.0318944
0.0296383
0.0277404
0.0261236
0.0247305
0.0235176
0.0224512
0.0215052
0.0206589
0.0198959
0.019203
0.0185699
0.0179884
0.0174522
0.0169568
0.016499
0.0160765
0.015688
0.0153319
0.0150062
0.0147083
0.0144357
0.0141877
0.0139662
0.0137752
0.0136247
0.0135155
0.0134614
0.0133766
0.0139451
0.0370334
0.0862137
0.133977
0.156331
0.156516
0.144115
0.126892
0.109646
0.0944528
0.0818315
0.0716228
0.0634334
0.056864
0.0516122
0.047435
0.0440276
0.0411932
0.0387971
0.0367432
0.0349607
0.0333963
0.0320094
0.0307686
0.0296495
0.0286328
0.0277032
0.0268484
0.0260581
0.0253241
0.0246395
0.0239984
0.0233959
0.0228278
0.0222905
0.0217808
0.0212963
0.0208344
0.0203932
0.0199708
0.0195657
0.0191762
0.018801
0.0184386
0.0180874
0.0177459
0.0174118
0.0170826
0.0167544
0.0164224
0.0160737
0.0156876
0.0152087
0.096471
0.0768355
0.0636795
0.0543259
0.0473956
0.0420956
0.037937
0.0346031
0.0318805
0.0296212
0.0277195
0.0260982
0.0247
0.023481
0.0224076
0.0214534
0.0205977
0.0198237
0.0191183
0.0184711
0.0178738
0.0173203
0.0168065
0.0163298
0.015889
0.0154836
0.0151132
0.0147759
0.0144682
0.0141875
0.0139342
0.0137168
0.0135515
0.0134758
0.0135258
0.0137702
0.0139932
0.0145914
0.0342956
0.0775741
0.121317
0.143926
0.14599
0.135761
0.121068
0.106385
0.0934067
0.082473
0.0733819
0.0658036
0.0594374
0.0541255
0.0496473
0.0458175
0.0425161
0.039658
0.0371766
0.0350167
0.0331309
0.0314782
0.0300234
0.0287361
0.0275904
0.0265644
0.0256396
0.0248006
0.0240345
0.0233305
0.0226799
0.0220751
0.02151
0.0209797
0.0204798
0.0200068
0.0195578
0.0191304
0.0187223
0.0183316
0.0179567
0.0175958
0.0172473
0.0169095
0.0165808
0.016259
0.0159416
0.0156244
0.015303
0.014964
0.0145877
0.0141178
0.0964707
0.0768347
0.0636779
0.0543232
0.0473915
0.0420899
0.0379293
0.0345931
0.0318678
0.0296052
0.0276997
0.0260741
0.0246705
0.0234453
0.0223646
0.0214018
0.0205359
0.01975
0.0190307
0.0183672
0.0177514
0.0171773
0.016641
0.0161409
0.0156772
0.0152513
0.0148649
0.0145163
0.0142006
0.0139145
0.0136619
0.0134638
0.0133639
0.0134678
0.0139252
0.0149578
0.0158288
0.0163344
0.0173003
0.02116
0.0289106
0.0380449
0.0464547
0.0535607
0.0587036
0.0617034
0.0627629
0.0622346
0.0604998
0.057921
0.0548212
0.0515082
0.0481828
0.0449682
0.0419464
0.0391648
0.0366433
0.0343823
0.0323691
0.030584
0.0290033
0.0276027
0.0263588
0.0252498
0.024256
0.0233601
0.0225472
0.0218044
0.0211211
0.0204884
0.0198988
0.0193462
0.0188257
0.0183334
0.0178662
0.0174215
0.0169973
0.0165919
0.0162038