/*--------------------------------*- C++ -*----------------------------------*\
| =========                 |                                                 |
| \\      /  F ield         | OpenFOAM: The Open Source CFD Toolbox           |
|  \\    /   O peration     | Version:  v2012                                 |
|   \\  /    A nd           | Website:  www.openfoam.com                      |
|    \\/     M anipulation  |                                                 |
\*---------------------------------------------------------------------------*/
FoamFile
{
    version     2.0;
    format      ascii;
    class       volScalarField;
    location    "650/air";
    object      G;
}
// * * * * * * * * * * * * * * * * * * * * * * * * * * * * * * * * * * * * * //

dimensions      [1 0 -3 0 0 0 0];


internalField   nonuniform List<scalar> 
287104
(
2870.23
2906.23
2916.08
2924.2
2931.85
2938.82
2945.07
2950.69
2955.77
2960.41
2964.65
2968.56
2972.17
2975.54
2978.68
2981.63
2984.41
2987.04
2989.53
2991.89
2994.15
2996.31
2998.39
3000.38
3002.3
3004.15
3005.95
3007.68
3009.37
3011.02
3012.62
3014.18
3015.71
3017.2
3018.65
3020.06
3021.46
3022.86
3024.23
3025.56
3026.86
3028.13
3029.39
3030.67
3031.91
3033.12
3034.33
3035.51
3036.68
3037.84
3038.98
3040.11
3041.22
3042.32
3043.41
3044.49
3045.55
3046.61
3047.65
3048.68
3049.69
3050.7
3051.7
3052.69
3053.67
3054.64
3055.6
3056.57
3057.53
3058.49
3059.45
3060.41
3061.37
3062.33
3063.27
3064.2
3065.13
3066.04
3066.96
3067.87
3068.79
3069.72
3070.64
3071.54
3072.36
3073.04
3073.79
3075.6
3079.96
3070.83
2881.5
2920.31
2929.92
2937.64
2944.92
2951.51
2957.41
2962.7
2967.46
2971.76
2975.68
2979.25
2982.53
2985.57
2988.38
2991
2993.45
2995.75
2997.92
2999.97
3001.92
3003.77
3005.53
3007.22
3008.84
3010.39
3011.89
3013.33
3014.72
3016.07
3017.38
3018.66
3019.9
3021.1
3022.26
3023.36
3024.48
3025.63
3026.74
3027.79
3028.81
3029.78
3030.75
3031.8
3032.8
3033.74
3034.68
3035.61
3036.52
3037.42
3038.32
3039.2
3040.07
3040.93
3041.78
3042.62
3043.45
3044.27
3045.08
3045.88
3046.67
3047.46
3048.24
3049.01
3049.77
3050.53
3051.28
3052.04
3052.8
3053.56
3054.31
3055.06
3055.8
3056.52
3057.24
3057.96
3058.7
3059.46
3060.24
3061.05
3061.87
3062.7
3063.52
3064.33
3065.09
3065.75
3066.48
3068.47
3073.8
3065.31
2868.99
2906.89
2916.03
2923.41
2930.4
2936.75
2942.41
2947.49
2952.06
2956.19
2959.94
2963.35
2966.48
2969.37
2972.04
2974.53
2976.85
2979.03
2981.07
2983.01
2984.84
2986.58
2988.23
2989.82
2991.33
2992.78
2994.18
2995.52
2996.82
2998.07
2999.28
3000.46
3001.61
3002.72
3003.78
3004.77
3005.78
3006.86
3007.9
3008.86
3009.78
3010.64
3011.51
3012.49
3013.41
3014.27
3015.12
3015.96
3016.79
3017.61
3018.41
3019.21
3020
3020.78
3021.55
3022.3
3023.05
3023.79
3024.52
3025.25
3025.96
3026.67
3027.37
3028.07
3028.76
3029.44
3030.13
3030.81
3031.49
3032.17
3032.83
3033.49
3034.13
3034.76
3035.4
3036.07
3036.77
3037.51
3038.29
3039.1
3039.93
3040.74
3041.52
3042.28
3043
3043.62
3044.28
3046.24
3051.88
3044.32
2856.63
2893.62
2902.49
2909.65
2916.45
2922.61
2928.12
2933.06
2937.5
2941.52
2945.15
2948.47
2951.51
2954.31
2956.91
2959.32
2961.57
2963.68
2965.66
2967.53
2969.3
2970.98
2972.58
2974.11
2975.57
2976.97
2978.32
2979.61
2980.85
2982.06
2983.22
2984.35
2985.45
2986.51
2987.51
2988.44
2989.38
2990.43
2991.45
2992.36
2993.23
2994.02
2994.82
2995.78
2996.68
2997.48
2998.29
2999.08
2999.87
3000.64
3001.41
3002.16
3002.91
3003.64
3004.37
3005.08
3005.79
3006.49
3007.18
3007.87
3008.54
3009.21
3009.87
3010.53
3011.19
3011.84
3012.49
3013.13
3013.77
3014.39
3014.99
3015.59
3016.18
3016.78
3017.41
3018.08
3018.81
3019.59
3020.41
3021.26
3022.12
3022.95
3023.73
3024.46
3025.14
3025.7
3026.3
3028.21
3033.94
3026.89
2845.17
2881.43
2890.12
2897.12
2903.77
2909.79
2915.16
2919.99
2924.33
2928.25
2931.81
2935.05
2938.03
2940.77
2943.3
2945.65
2947.85
2949.9
2951.84
2953.66
2955.38
2957.02
2958.58
2960.06
2961.49
2962.85
2964.16
2965.42
2966.63
2967.8
2968.92
2970.01
2971.07
2972.1
2973.07
2973.96
2974.85
2975.86
2976.84
2977.71
2978.55
2979.3
2980.06
2980.98
2981.85
2982.62
2983.39
2984.15
2984.9
2985.64
2986.37
2987.09
2987.79
2988.49
2989.18
2989.86
2990.53
2991.19
2991.85
2992.5
2993.14
2993.77
2994.4
2995.02
2995.64
2996.26
2996.87
2997.46
2998.04
2998.6
2999.15
2999.7
3000.27
3000.87
3001.52
3002.23
3002.99
3003.8
3004.64
3005.49
3006.33
3007.13
3007.85
3008.48
3009.01
3009.43
3009.92
3011.71
3017.22
3010.07
2834.15
2869.8
2878.34
2885.2
2891.71
2897.6
2902.87
2907.6
2911.86
2915.72
2919.22
2922.41
2925.34
2928.03
2930.51
2932.81
2934.96
2936.97
2938.86
2940.64
2942.32
2943.92
2945.44
2946.9
2948.28
2949.62
2950.9
2952.13
2953.31
2954.45
2955.55
2956.6
2957.63
2958.63
2959.57
2960.45
2961.31
2962.26
2963.18
2964.02
2964.83
2965.58
2966.31
2967.15
2967.97
2968.7
2969.44
2970.16
2970.87
2971.57
2972.26
2972.93
2973.59
2974.24
2974.88
2975.52
2976.15
2976.76
2977.37
2977.97
2978.56
2979.15
2979.73
2980.3
2980.87
2981.43
2981.96
2982.48
2982.97
2983.44
2983.93
2984.43
2984.98
2985.58
2986.24
2986.96
2987.73
2988.51
2989.29
2990.06
2990.78
2991.44
2991.98
2992.4
2992.67
2992.83
2993.1
2994.59
2999.37
2990.93
2823.39
2858.45
2866.85
2873.59
2879.96
2885.71
2890.85
2895.48
2899.68
2903.48
2906.98
2910.13
2913.01
2915.66
2918.09
2920.35
2922.46
2924.43
2926.28
2928.03
2929.69
2931.26
2932.75
2934.17
2935.52
2936.82
2938.07
2939.28
2940.44
2941.56
2942.63
2943.65
2944.64
2945.6
2946.54
2947.45
2948.29
2949.11
2949.93
2950.73
2951.52
2952.29
2953.01
2953.71
2954.43
2955.11
2955.78
2956.44
2957.09
2957.71
2958.33
2958.92
2959.5
2960.08
2960.65
2961.2
2961.75
2962.28
2962.8
2963.32
2963.82
2964.32
2964.82
2965.3
2965.76
2966.19
2966.6
2966.99
2967.36
2967.73
2968.12
2968.56
2969.06
2969.63
2970.25
2970.92
2971.6
2972.28
2972.92
2973.5
2973.98
2974.36
2974.62
2974.73
2974.7
2974.57
2974.54
2975.56
2979.05
2967.5
2812.78
2847.27
2855.55
2862.17
2868.4
2874
2878.98
2883.46
2887.54
2891.25
2894.73
2897.79
2900.6
2903.2
2905.61
2907.85
2909.94
2911.9
2913.74
2915.49
2917.13
2918.69
2920.17
2921.58
2922.91
2924.18
2925.4
2926.58
2927.72
2928.82
2929.86
2930.86
2931.8
2932.7
2933.63
2934.6
2935.45
2936.06
2936.68
2937.41
2938.15
2938.98
2939.7
2940.15
2940.67
2941.29
2941.87
2942.43
2942.98
2943.5
2943.99
2944.48
2944.95
2945.42
2945.87
2946.31
2946.73
2947.13
2947.52
2947.9
2948.27
2948.63
2948.97
2949.28
2949.57
2949.82
2950.04
2950.25
2950.47
2950.72
2951.02
2951.38
2951.8
2952.27
2952.79
2953.34
2953.9
2954.42
2954.89
2955.27
2955.5
2955.62
2955.59
2955.44
2955.19
2954.88
2954.67
2955.28
2957.23
2940.35
2802.31
2836.24
2844.4
2850.91
2857.03
2862.49
2867.3
2871.57
2875.39
2878.78
2881.63
2884.31
2886.94
2889.49
2891.93
2894.23
2896.41
2898.47
2900.43
2902.28
2904.03
2905.68
2907.24
2908.7
2910.07
2911.35
2912.55
2913.7
2914.81
2915.88
2916.89
2917.83
2918.7
2919.53
2920.44
2921.51
2922.38
2922.69
2923.03
2923.67
2924.36
2925.29
2926.09
2926.2
2926.44
2927
2927.47
2927.93
2928.34
2928.73
2929.1
2929.47
2929.84
2930.2
2930.55
2930.87
2931.17
2931.46
2931.74
2932.01
2932.26
2932.5
2932.71
2932.89
2933.04
2933.16
2933.27
2933.41
2933.59
2933.83
2934.14
2934.5
2934.92
2935.37
2935.85
2936.35
2936.84
2937.32
2937.75
2938.12
2938.45
2938.6
2938.54
2938.29
2937.96
2937.66
2937.54
2938.17
2939.41
2919.34
2791.98
2825.35
2833.39
2839.81
2845.84
2851.19
2855.87
2859.95
2863.4
2865.76
2863.54
2863.94
2865.65
2868.07
2870.79
2873.62
2876.46
2879.24
2881.92
2884.46
2886.84
2889.06
2891.1
2892.98
2894.68
2896.22
2897.61
2898.9
2900.1
2901.25
2902.35
2903.37
2904.29
2905.12
2906.12
2907.44
2908.49
2908.54
2908.6
2909.28
2910.02
2911.22
2912.3
2912.1
2912.11
2912.74
2913.21
2913.65
2914.05
2914.41
2914.77
2915.14
2915.51
2915.86
2916.18
2916.47
2916.73
2916.97
2917.19
2917.39
2917.56
2917.7
2917.79
2917.84
2917.87
2917.89
2917.93
2918.02
2918.16
2918.37
2918.64
2918.94
2919.26
2919.59
2919.93
2920.27
2920.6
2920.92
2921.24
2921.69
2923.42
2924.69
2925.31
2925.4
2925.21
2925.06
2925.26
2926.47
2928.43
2909.07
2781.8
2814.61
2822.53
2828.85
2834.79
2840.09
2844.73
2848.79
2851.86
2850.55
2806.64
2798.01
2799.9
2805.21
2811.44
2817.7
2823.65
2829.15
2834.14
2838.59
2842.52
2845.94
2848.87
2851.35
2853.41
2855.1
2856.46
2857.57
2858.49
2859.3
2860.04
2860.73
2861.32
2861.85
2862.64
2864.01
2865.09
2864.65
2864.22
2864.8
2865.49
2866.92
2868.3
2867.73
2867.44
2868.17
2868.68
2869.17
2869.61
2870.03
2870.46
2870.91
2871.34
2871.72
2872.05
2872.33
2872.56
2872.74
2872.88
2872.97
2872.98
2872.93
2872.8
2872.62
2872.41
2872.2
2872.01
2871.85
2871.72
2871.6
2871.47
2871.33
2871.16
2870.95
2870.73
2870.46
2870.16
2869.77
2869.38
2869.99
2885.73
2897.7
2905.67
2910.62
2913.58
2915.51
2917.36
2920.38
2924.97
2910.44
2771.76
2804.02
2811.83
2818.04
2823.89
2829.12
2833.72
2837.74
2840.71
2838.93
2792.54
2783.13
2784.94
2790.4
2796.88
2803.41
2809.64
2815.39
2820.61
2825.27
2829.39
2832.96
2836.01
2838.58
2840.7
2842.42
2843.78
2844.82
2845.64
2846.3
2846.9
2847.47
2847.96
2848.43
2849.29
2851.03
2852.5
2851.83
2851.12
2851.92
2852.87
2854.9
2857.04
2856.38
2856.06
2857.25
2858.17
2859.09
2860.02
2860.99
2862.03
2863.11
2864.19
2865.26
2866.29
2867.31
2868.31
2869.29
2870.23
2871.12
2871.95
2872.73
2873.46
2874.16
2874.86
2875.57
2876.28
2876.96
2877.6
2878.15
2878.6
2878.94
2879.17
2879.28
2879.27
2879.14
2878.87
2878.44
2877.93
2878.43
2891.31
2901.07
2907.56
2911.67
2914.22
2916.03
2918.11
2922.21
2929.79
2921.74
2761.88
2793.59
2801.29
2807.41
2813.17
2818.31
2822.84
2826.8
2829.72
2827.9
2782.05
2772.7
2774.46
2779.85
2786.24
2792.7
2798.86
2804.55
2809.72
2814.34
2818.41
2821.92
2824.92
2827.43
2829.5
2831.19
2832.51
2833.48
2834.17
2834.65
2835.03
2835.4
2835.73
2836.06
2836.87
2838.84
2840.55
2839.41
2838.1
2838.78
2839.61
2841.83
2844.35
2843.1
2842.18
2843.27
2844.01
2844.78
2845.58
2846.45
2847.38
2848.32
2849.23
2850.12
2850.99
2851.85
2852.71
2853.56
2854.37
2855.16
2855.94
2856.74
2857.59
2858.51
2859.51
2860.6
2861.74
2862.92
2864.09
2865.25
2866.38
2867.49
2868.56
2869.59
2870.56
2871.45
2872.23
2872.87
2873.46
2874.97
2887.21
2896.17
2902.11
2906.12
2909.04
2911.5
2914.37
2919.65
2929.61
2927.3
2752.15
2783.33
2790.92
2796.95
2802.62
2807.69
2812.14
2816.04
2818.92
2817.14
2772.11
2762.93
2764.66
2769.96
2776.24
2782.59
2788.65
2794.26
2799.35
2803.9
2807.9
2811.35
2814.29
2816.74
2818.78
2820.48
2821.86
2822.89
2823.59
2823.98
2824.2
2824.4
2824.6
2824.84
2825.67
2827.94
2830.02
2828.5
2826.64
2827.3
2828.07
2830.54
2833.57
2831.84
2830.37
2831.44
2832.1
2832.83
2833.64
2834.5
2835.36
2836.14
2836.84
2837.49
2838.13
2838.76
2839.35
2839.9
2840.39
2840.85
2841.32
2841.82
2842.39
2843.02
2843.71
2844.41
2845.11
2845.77
2846.39
2846.96
2847.49
2847.97
2848.39
2848.74
2849
2849.15
2849.18
2849.07
2848.86
2849.35
2861.25
2869.82
2875.52
2879.49
2882.59
2885.35
2888.57
2894
2902.87
2895.99
2742.57
2773.23
2780.72
2786.66
2792.26
2797.25
2801.63
2805.46
2808.29
2806.55
2762.29
2753.27
2754.97
2760.18
2766.36
2772.61
2778.58
2784.1
2789.11
2793.59
2797.53
2800.92
2803.79
2806.18
2808.19
2809.91
2811.38
2812.56
2813.37
2813.78
2813.87
2813.85
2813.86
2813.98
2814.82
2817.38
2819.87
2818.08
2815.73
2816.38
2817.14
2819.85
2823.45
2821.37
2819.4
2820.52
2821.24
2822.11
2823.09
2824.07
2824.92
2825.62
2826.23
2826.85
2827.51
2828.19
2828.83
2829.42
2829.99
2830.56
2831.17
2831.86
2832.62
2833.43
2834.26
2835.06
2835.83
2836.55
2837.22
2837.84
2838.4
2838.9
2839.3
2839.59
2839.75
2839.78
2839.7
2839.51
2839.28
2839.79
2851.34
2859.73
2865.35
2869.22
2872.07
2874.45
2877.28
2882.26
2890.61
2883.99
2733.13
2763.26
2770.67
2776.54
2782.07
2787
2791.32
2795.09
2797.86
2796.14
2752.58
2743.69
2745.36
2750.48
2756.57
2762.73
2768.61
2774.05
2778.99
2783.4
2787.28
2790.62
2793.43
2795.75
2797.7
2799.41
2800.98
2802.37
2803.41
2803.95
2803.99
2803.75
2803.48
2803.4
2804.17
2806.96
2809.86
2807.9
2805.11
2805.77
2806.53
2809.44
2813.59
2811.26
2808.88
2810.11
2811.01
2812.18
2813.43
2814.52
2815.3
2815.84
2816.33
2816.92
2817.61
2818.34
2819.06
2819.75
2820.48
2821.27
2822.17
2823.14
2824.17
2825.21
2826.22
2827.2
2828.15
2829.07
2829.97
2830.84
2831.65
2832.37
2832.99
2833.5
2833.92
2834.28
2834.64
2835.07
2835.71
2837.53
2849.58
2858.56
2864.68
2868.84
2871.77
2874.18
2877.05
2882.21
2891.73
2890.47
2723.82
2753.44
2760.75
2766.57
2772.05
2776.94
2781.23
2784.95
2787.67
2785.95
2743.02
2734.26
2735.89
2740.93
2746.92
2752.99
2758.79
2764.15
2769.02
2773.37
2777.19
2780.47
2783.22
2785.46
2787.32
2788.98
2790.6
2792.18
2793.54
2794.36
2794.48
2794.08
2793.48
2793.08
2793.68
2796.58
2799.84
2797.81
2794.65
2795.31
2796.06
2799.09
2803.72
2801.25
2798.53
2799.95
2801.2
2802.78
2804.3
2805.4
2805.97
2806.26
2806.59
2807.13
2807.86
2808.66
2809.47
2810.31
2811.23
2812.24
2813.34
2814.47
2815.59
2816.67
2817.72
2818.73
2819.71
2820.67
2821.59
2822.42
2823.14
2823.72
2824.15
2824.46
2824.69
2824.89
2825.16
2825.55
2826.2
2828.08
2840.09
2849.04
2854.97
2858.76
2861.22
2863.13
2865.42
2869.73
2878.09
2874.41
2714.65
2743.76
2750.98
2756.72
2762.16
2767.04
2771.34
2775.07
2777.79
2776.1
2733.78
2725.16
2726.76
2731.72
2737.61
2743.57
2749.27
2754.53
2759.3
2763.55
2767.28
2770.48
2773.14
2775.28
2777.01
2778.53
2780.08
2781.76
2783.42
2784.62
2784.99
2784.53
2783.6
2782.76
2782.99
2785.8
2789.31
2787.24
2783.77
2784.36
2785.08
2788.09
2793.08
2790.53
2787.62
2789.33
2791.05
2793.08
2794.76
2795.65
2795.81
2795.73
2795.83
2796.29
2797
2797.8
2798.65
2799.53
2800.48
2801.48
2802.48
2803.42
2804.31
2805.12
2805.89
2806.61
2807.28
2807.87
2808.33
2808.63
2808.75
2808.68
2808.46
2808.14
2807.79
2807.47
2807.23
2807.13
2807.25
2808.47
2820.43
2829.24
2834.97
2838.59
2840.98
2842.86
2844.8
2848.11
2854.19
2846.28
2705.64
2734.24
2741.36
2747.02
2752.4
2757.25
2761.57
2765.37
2768.21
2766.75
2725.41
2717.06
2718.68
2723.52
2729.26
2735.05
2740.56
2745.63
2750.19
2754.22
2757.7
2760.65
2763.05
2764.91
2766.32
2767.49
2768.73
2770.26
2772.01
2773.52
2774.21
2773.8
2772.56
2771.16
2770.81
2773.26
2776.82
2774.72
2770.95
2771.44
2772.08
2774.98
2780.22
2777.76
2774.87
2777.08
2779.47
2781.96
2783.67
2784.21
2783.91
2783.49
2783.47
2783.91
2784.64
2785.45
2786.26
2787.05
2787.8
2788.49
2789.09
2789.59
2790.01
2790.37
2790.69
2790.94
2791.08
2791.08
2790.89
2790.51
2789.96
2789.29
2788.56
2787.85
2787.21
2786.67
2786.26
2785.88
2785.54
2785.95
2798.15
2807.35
2813.56
2817.74
2820.69
2822.91
2824.78
2827.34
2831.49
2820.51
2696.78
2724.87
2731.9
2737.47
2742.76
2747.57
2751.87
2755.74
2758.81
2758.14
2720.66
2713.31
2714.97
2719.48
2724.73
2729.95
2734.8
2739.14
2742.9
2746.09
2748.73
2750.85
2752.48
2753.65
2754.42
2754.99
2755.67
2756.8
2758.47
2760.24
2761.39
2761.33
2760.1
2758.34
2757.42
2759.43
2763
2760.98
2757.07
2757.51
2758.07
2760.77
2766.17
2763.9
2761.23
2764.08
2767.17
2770.02
2771.62
2771.8
2771.22
2770.79
2770.98
2771.73
2772.71
2773.66
2774.43
2775
2775.39
2775.63
2775.73
2775.76
2775.74
2775.7
2775.59
2775.38
2775.01
2774.46
2773.74
2772.89
2771.97
2771.07
2770.24
2769.54
2768.99
2768.58
2768.27
2767.96
2767.63
2768.02
2781.11
2791.15
2798.1
2802.87
2806.15
2808.37
2809.93
2811.78
2814.5
2801.62
2688.06
2715.65
2722.58
2728.07
2733.28
2737.99
2742.2
2745.98
2749.3
2751.8
2751.04
2752.19
2754.22
2756.49
2758.77
2760.98
2763.07
2765.04
2766.86
2768.56
2770.12
2771.57
2772.87
2774
2774.92
2775.72
2776.66
2778.12
2780.33
2783.01
2785.36
2786.51
2786.14
2784.74
2783.78
2785.8
2789.81
2788.19
2784.38
2784.99
2785.5
2787.87
2793.21
2790.6
2787.48
2790.24
2792.99
2794.94
2795.14
2793.86
2792.22
2791.24
2791.28
2792.04
2793.06
2794.05
2794.87
2795.54
2796.07
2796.52
2796.91
2797.27
2797.59
2797.84
2797.94
2797.86
2797.57
2797.12
2796.57
2795.99
2795.46
2795.05
2794.8
2794.71
2794.78
2794.94
2795.15
2795.34
2795.47
2795.68
2796.94
2798.04
2798.89
2799.51
2799.87
2799.98
2800.02
2800.63
2802.21
2788.38
2679.43
2706.53
2713.37
2718.78
2723.91
2728.54
2732.67
2736.37
2739.69
2742.63
2745.19
2747.55
2749.81
2751.91
2753.89
2755.73
2757.46
2759.1
2760.63
2762.08
2763.46
2764.76
2765.99
2767.1
2768.03
2768.8
2769.57
2770.75
2772.73
2775.47
2778.3
2780.2
2780.5
2779.34
2778.11
2779.63
2783.51
2782.01
2778.24
2778.89
2779.3
2781.35
2786.78
2784.45
2781.59
2784.69
2787.39
2788.7
2788.04
2786.15
2784.44
2783.82
2784.33
2785.42
2786.58
2787.55
2788.29
2788.89
2789.41
2789.91
2790.39
2790.83
2791.17
2791.33
2791.28
2791.03
2790.62
2790.13
2789.66
2789.28
2789.03
2788.95
2789.02
2789.21
2789.49
2789.79
2790.05
2790.26
2790.39
2790.48
2790.6
2790.74
2790.87
2790.95
2790.9
2790.71
2790.54
2791.03
2792.84
2780.61
2670.86
2697.47
2704.22
2709.55
2714.6
2719.16
2723.23
2726.88
2730.16
2733.13
2735.93
2738.41
2740.66
2742.73
2744.65
2746.43
2748.1
2749.68
2751.16
2752.57
2753.91
2755.19
2756.42
2757.58
2758.59
2759.41
2760.1
2760.99
2762.57
2765.04
2768.01
2770.46
2771.47
2770.77
2769.46
2770.49
2774.08
2772.57
2768.78
2769.43
2769.7
2771.4
2777
2775.11
2772.58
2775.88
2778.27
2778.86
2777.57
2775.63
2774.43
2774.54
2775.6
2776.93
2778.08
2778.94
2779.61
2780.23
2780.86
2781.48
2782.04
2782.45
2782.64
2782.61
2782.38
2782.01
2781.61
2781.25
2781.02
2780.93
2781
2781.21
2781.51
2781.85
2782.2
2782.52
2782.78
2782.97
2783.1
2783.19
2783.22
2783.26
2783.32
2783.35
2783.3
2783.17
2783.08
2783.78
2786.52
2778.24
2662.33
2688.45
2695.12
2700.36
2705.33
2709.82
2713.83
2717.42
2720.65
2723.58
2726.28
2728.72
2730.94
2732.99
2734.89
2736.66
2738.31
2739.87
2741.33
2742.72
2744.03
2745.29
2746.51
2747.71
2748.84
2749.81
2750.58
2751.34
2752.52
2754.55
2757.31
2760.01
2761.59
2761.42
2760.25
2760.93
2764.17
2762.58
2759.02
2759.59
2759.64
2760.91
2766.23
2764.72
2762.35
2765.47
2767.26
2767.12
2765.53
2763.92
2763.4
2764.04
2765.2
2766.28
2767.08
2767.69
2768.29
2768.94
2769.58
2770.14
2770.49
2770.59
2770.43
2770.1
2769.66
2769.24
2768.9
2768.71
2768.67
2768.77
2768.99
2769.27
2769.58
2769.88
2770.16
2770.4
2770.6
2770.77
2770.9
2770.99
2771.04
2771.12
2771.23
2771.38
2771.51
2771.58
2771.69
2772.71
2776.02
2768.49
2653.85
2679.48
2686.06
2691.22
2696.11
2700.54
2704.48
2708.01
2711.19
2714.07
2716.69
2719.08
2721.27
2723.3
2725.18
2726.94
2728.58
2730.12
2731.57
2732.93
2734.22
2735.45
2736.65
2737.87
2739.11
2740.31
2741.35
2742.24
2743.26
2744.86
2747.23
2749.85
2751.71
2751.94
2750.93
2751.4
2754.38
2752.69
2748.22
2748.45
2748
2748.54
2754.24
2752.79
2750.18
2752.8
2753.91
2753.25
2751.67
2750.51
2750.38
2750.92
2751.51
2751.88
2752.12
2752.42
2752.86
2753.33
2753.67
2753.77
2753.58
2753.16
2752.59
2752.01
2751.52
2751.17
2751.01
2751.03
2751.19
2751.46
2751.79
2752.15
2752.5
2752.84
2753.17
2753.48
2753.78
2754.06
2754.31
2754.53
2754.75
2755.01
2755.35
2755.78
2756.21
2756.55
2756.88
2758.14
2761.45
2752.36
2645.47
2670.61
2677.1
2682.19
2687.01
2691.36
2695.24
2698.72
2701.85
2704.68
2707.24
2709.59
2711.75
2713.75
2715.62
2717.36
2718.99
2720.52
2721.96
2723.31
2724.58
2725.78
2726.94
2728.13
2729.42
2730.84
2732.26
2733.54
2734.74
2736.17
2738.18
2740.55
2742.43
2742.78
2741.75
2741.98
2744.82
2743.21
2742.88
2742.18
2740.2
2738.82
2738.55
2736.23
2732.79
2734.7
2735.18
2734.15
2732.55
2731.45
2731.01
2730.77
2730.43
2730.12
2730.09
2730.4
2730.89
2731.31
2731.49
2731.4
2731.13
2730.78
2730.5
2730.38
2730.45
2730.71
2731.13
2731.66
2732.27
2732.91
2733.54
2734.16
2734.75
2735.31
2735.85
2736.38
2736.87
2737.33
2737.77
2738.2
2738.68
2739.23
2739.87
2740.58
2741.24
2741.72
2742.16
2743.49
2746.5
2735.7
2637.32
2661.99
2668.39
2673.4
2678.14
2682.43
2686.26
2689.69
2692.77
2695.55
2698.08
2700.39
2702.52
2704.49
2706.33
2708.05
2709.66
2711.19
2712.62
2713.97
2715.24
2716.42
2717.54
2718.66
2719.92
2721.42
2723.15
2724.91
2726.56
2728.18
2730.07
2732.26
2734.12
2734.5
2733.27
2733.07
2735.8
2733.72
2716.46
2712.08
2706.01
2701.17
2713.44
2710.3
2706.35
2708.36
2709.1
2708.52
2707.52
2706.87
2706.52
2706.24
2706.13
2706.44
2707.26
2708.37
2709.41
2710.18
2710.62
2710.86
2711.04
2711.3
2711.71
2712.31
2713.05
2713.89
2714.8
2715.72
2716.63
2717.5
2718.34
2719.13
2719.88
2720.59
2721.27
2721.9
2722.5
2723.07
2723.66
2724.29
2725.02
2725.84
2726.71
2727.54
2728.23
2728.7
2729.16
2730.49
2733.2
2721.39
2629.63
2653.85
2660.18
2665.1
2669.78
2674
2677.77
2681.15
2684.19
2686.93
2689.42
2691.7
2693.8
2695.74
2697.56
2699.26
2700.87
2702.38
2703.82
2705.18
2706.46
2707.65
2708.74
2709.8
2710.94
2712.34
2714.12
2716.17
2718.3
2720.33
2722.37
2724.61
2726.67
2727.39
2726.19
2725.42
2727.85
2725.45
2752.43
2740.41
2727.86
2719.04
2682.14
2679.88
2678.09
2682.58
2685.23
2686.26
2686.67
2687.13
2687.61
2688.14
2688.98
2690.27
2691.81
2693.28
2694.4
2695.17
2695.72
2696.21
2696.81
2697.56
2698.44
2699.44
2700.49
2701.56
2702.62
2703.64
2704.61
2705.54
2706.41
2707.23
2708.01
2708.74
2709.42
2710.07
2710.7
2711.35
2712.07
2712.9
2713.82
2714.79
2715.71
2716.49
2717.05
2717.44
2717.95
2719.33
2721.83
2709.45
2622.75
2646.55
2652.81
2657.67
2662.27
2666.44
2670.15
2673.48
2676.47
2679.17
2681.62
2683.86
2685.93
2687.85
2689.64
2691.33
2692.93
2694.45
2695.9
2697.27
2698.58
2699.81
2700.94
2701.97
2702.99
2704.17
2705.72
2707.69
2709.99
2712.34
2714.63
2717.03
2719.5
2721.12
2720.85
2720.18
2722.3
2714.6
2651.75
2631.98
2620.3
2616.65
2655.75
2659.71
2661.08
2667.76
2671.39
2673.24
2674.53
2675.79
2676.99
2678.22
2679.62
2681.13
2682.52
2683.59
2684.33
2684.89
2685.46
2686.16
2687.04
2688.05
2689.14
2690.28
2691.41
2692.51
2693.56
2694.56
2695.51
2696.39
2697.23
2698.01
2698.74
2699.42
2700.06
2700.7
2701.37
2702.12
2702.97
2703.92
2704.93
2705.9
2706.73
2707.35
2707.78
2708.14
2708.72
2710.14
2712.47
2699.71
2617.03
2640.5
2646.71
2651.51
2656.07
2660.19
2663.86
2667.15
2670.1
2672.77
2675.18
2677.38
2679.41
2681.28
2683.04
2684.7
2686.28
2687.79
2689.24
2690.63
2691.97
2693.26
2694.46
2695.55
2696.53
2697.54
2698.76
2700.36
2702.42
2704.78
2707.17
2709.68
2712.49
2715.19
2716.66
2717.1
2719.54
2704.62
2421.04
2401.26
2393.84
2397.62
2644.82
2654.89
2655.76
2660.91
2662.81
2664.08
2665.67
2667.54
2669.35
2671.04
2672.59
2673.91
2674.93
2675.72
2676.43
2677.22
2678.17
2679.26
2680.45
2681.68
2682.88
2684.06
2685.18
2686.24
2687.23
2688.15
2689.01
2689.81
2690.55
2691.25
2691.9
2692.53
2693.17
2693.85
2694.6
2695.45
2696.38
2697.37
2698.33
2699.2
2699.89
2700.38
2700.75
2701.16
2701.84
2703.28
2705.44
2692.4
2612.79
2636.02
2642.19
2646.98
2651.52
2655.64
2659.33
2662.63
2665.59
2668.27
2670.68
2672.88
2674.88
2676.72
2678.42
2680.02
2681.54
2682.99
2684.39
2685.75
2687.08
2688.37
2689.61
2690.76
2691.79
2692.75
2693.77
2695.02
2696.71
2698.85
2701.22
2703.79
2706.78
2710.31
2713.54
2715.46
2719.19
2699.65
2236.74
2218.06
2214.87
2224.81
2642.72
2656.33
2654.61
2656.84
2656.68
2657.56
2659.43
2661.52
2663.34
2664.87
2666.18
2667.37
2668.53
2669.74
2671.06
2672.53
2674.07
2675.59
2677.06
2678.42
2679.66
2680.8
2681.84
2682.78
2683.64
2684.42
2685.13
2685.8
2686.44
2687.05
2687.67
2688.31
2689.01
2689.78
2690.63
2691.54
2692.49
2693.42
2694.27
2695
2695.6
2696.07
2696.5
2697.02
2697.79
2699.28
2701.35
2688.09
2610.15
2633.22
2639.38
2644.16
2648.72
2652.88
2656.62
2660
2663.06
2665.84
2668.37
2670.66
2672.75
2674.64
2676.37
2677.95
2679.41
2680.78
2682.08
2683.34
2684.57
2685.76
2686.93
2688.03
2689.04
2689.96
2690.9
2691.96
2693.41
2695.37
2697.7
2700.39
2703.57
2707.56
2711.89
2714.51
2719.44
2699.36
2166.43
2149.24
2149.15
2162.51
2650.25
2663.43
2658.16
2657.77
2656.09
2656.44
2657.67
2658.81
2659.69
2660.6
2661.78
2663.33
2665.19
2667.24
2669.37
2671.48
2673.46
2675.23
2676.78
2678.12
2679.26
2680.25
2681.11
2681.86
2682.54
2683.17
2683.76
2684.35
2684.95
2685.58
2686.26
2687.01
2687.83
2688.71
2689.64
2690.56
2691.46
2692.3
2693.06
2693.73
2694.32
2694.87
2695.44
2696.09
2696.98
2698.58
2700.74
2687.42
2608.97
2631.96
2638.1
2642.86
2647.42
2651.6
2655.38
2658.83
2662
2664.91
2667.6
2670.08
2672.37
2674.45
2676.36
2678.08
2679.65
2681.07
2682.39
2683.63
2684.81
2685.93
2687
2688
2688.9
2689.68
2690.42
2691.28
2692.5
2694.22
2696.43
2699.09
2703.14
2707.4
2712.34
2714.63
2720.09
2701.97
2159.11
2143.73
2146
2162.71
2683.89
2693.62
2681.92
2676.74
2670.91
2667.7
2665.59
2663.99
2663.09
2663.15
2664.18
2665.96
2668.13
2670.41
2672.62
2674.67
2675.86
2677.41
2678.7
2679.78
2680.69
2681.47
2682.17
2682.82
2683.44
2684.05
2684.68
2685.34
2686.07
2686.86
2687.72
2688.66
2689.64
2690.64
2691.63
2692.57
2693.46
2694.29
2695.06
2695.8
2696.52
2697.23
2697.99
2698.82
2699.87
2701.71
2704.19
2691.07
2608.88
2631.84
2637.95
2642.68
2647.2
2651.32
2655.05
2658.46
2661.6
2664.52
2667.25
2669.81
2672.22
2674.47
2676.57
2678.52
2680.32
2681.97
2683.51
2684.95
2686.33
2687.65
2688.9
2690.06
2691.07
2691.89
2692.77
2693.4
2694.19
2695.32
2696.54
2698.32
2701.48
2704.99
2709.95
2712.27
2721.08
2704.61
2166.25
2150.49
2153.12
2172.68
2709.86
2723.99
2709.89
2703.12
2694.42
2688.08
2683.03
2679.18
2676.64
2675.41
2675.2
2675.66
2676.45
2677.36
2678.31
2679.29
2679.6
2680.47
2681.28
2682.06
2682.81
2683.58
2684.35
2685.14
2685.96
2686.8
2687.69
2688.64
2689.65
2690.72
2691.84
2692.99
2694.13
2695.23
2696.29
2697.28
2698.23
2699.15
2700.07
2701
2701.94
2702.9
2703.9
2704.96
2706.28
2708.53
2711.81
2699.86
2609.36
2632.33
2638.43
2643.14
2647.6
2651.66
2655.29
2658.58
2661.58
2664.35
2666.92
2669.34
2671.63
2673.8
2675.86
2677.82
2679.68
2681.44
2683.12
2684.75
2686.37
2688
2689.64
2691.26
2692.78
2694.04
2694.26
2694.91
2695.34
2695.67
2696.54
2696.4
2696.92
2697.28
2700.27
2704.87
2729.53
2715.72
2151.9
2130.07
2131.26
2155.57
2727.77
2747.25
2719.79
2709.56
2699.61
2693.53
2689.51
2686.88
2685.16
2683.98
2683.14
2682.53
2682.13
2681.95
2681.99
2682.3
2682.16
2682.8
2683.55
2684.41
2685.36
2686.39
2687.47
2688.58
2689.73
2690.93
2692.19
2693.53
2694.93
2696.39
2697.86
2699.31
2700.73
2702.09
2703.38
2704.62
2705.84
2707.11
2708.43
2709.8
2711.2
2712.63
2714.08
2715.59
2717.42
2720.39
2725.06
2715.98
2609.93
2632.94
2639.05
2643.75
2648.22
2652.25
2655.86
2659.09
2662
2664.66
2667.09
2669.33
2671.43
2673.4
2675.26
2677.03
2678.7
2680.3
2681.82
2683.3
2684.78
2686.34
2688.02
2689.83
2691.68
2693.38
2698.05
2698.57
2698.26
2697.32
2692.43
2690.31
2688.18
2684.68
2683.21
2689.19
2756.79
2746.75
2223.77
2197.23
2196.59
2223.23
2770.69
2797.81
2732.17
2717.6
2705.14
2696.86
2691.39
2688.03
2685.96
2684.59
2683.64
2683.02
2682.73
2682.78
2683.18
2683.94
2684.32
2685.53
2686.86
2688.29
2689.78
2691.31
2692.85
2694.46
2696.13
2697.89
2699.74
2701.67
2703.64
2705.61
2707.53
2709.37
2711.08
2712.66
2714.13
2715.51
2716.76
2717.86
2718.82
2719.68
2720.46
2721.19
2721.9
2722.68
2723.83
2726.22
2730.29
2719.65
2610.29
2633.32
2639.44
2644.16
2648.64
2652.7
2656.33
2659.59
2662.53
2665.2
2667.64
2669.88
2671.96
2673.89
2675.69
2677.38
2678.96
2680.43
2681.8
2683.06
2684.27
2685.5
2686.87
2688.44
2690.16
2691.42
2679.76
2677.98
2675
2671.63
2679.85
2676.39
2673.07
2668.27
2661.55
2635.8
2698.54
2714.14
2703.76
2695.84
2690.23
2686.71
2684.67
2683.68
2683.57
2684.09
2685.05
2686.39
2687.98
2689.84
2691.19
2693.28
2695.38
2697.45
2699.42
2701.3
2703
2704.46
2705.7
2706.81
2707.83
2708.75
2709.57
2710.27
2710.86
2711.35
2711.74
2712.07
2712.37
2712.66
2712.95
2713.25
2713.58
2713.94
2714.35
2714.81
2715.33
2715.96
2716.93
2718.98
2722.05
2708.89
2610.36
2633.39
2639.5
2644.21
2648.69
2652.76
2656.39
2659.67
2662.63
2665.33
2667.81
2670.09
2672.21
2674.19
2676.05
2677.79
2679.43
2680.95
2682.36
2683.63
2684.78
2685.87
2686.99
2688.27
2689.67
2691.01
2725.87
2719.65
2711.9
2705.22
2664.17
2661.17
2660.58
2660.41
2660.7
2637.24
2695.42
2718.47
2709.37
2701.27
2695.68
2692.08
2689.94
2688.98
2689.09
2690.01
2691.34
2693.08
2694.68
2696.12
2696.65
2697.7
2698.57
2699.3
2699.9
2700.45
2700.92
2701.35
2701.76
2702.18
2702.6
2703
2703.34
2703.61
2703.84
2704.04
2704.22
2704.43
2704.66
2704.93
2705.25
2705.61
2706.03
2706.52
2707.07
2707.67
2708.27
2708.92
2709.81
2711.53
2713.82
2699.55
2610.2
2633.21
2639.32
2644.02
2648.49
2652.53
2656.15
2659.41
2662.35
2665.03
2667.49
2669.76
2671.87
2673.85
2675.7
2677.45
2679.09
2680.63
2682.06
2683.35
2684.49
2685.49
2686.44
2687.42
2687.9
2684.21
2633.88
2618.83
2610.43
2608.79
2644
2647
2650.56
2654.94
2660.5
2640.92
2693.75
2718.35
2710.31
2702.58
2697.12
2693.37
2690.85
2689.43
2688.98
2689.22
2689.9
2690.94
2691.87
2692.64
2692.56
2692.99
2693.3
2693.54
2693.73
2693.99
2694.25
2694.54
2694.88
2695.24
2695.61
2695.95
2696.24
2696.48
2696.71
2696.95
2697.22
2697.54
2697.89
2698.3
2698.75
2699.26
2699.83
2700.47
2701.14
2701.79
2702.38
2702.96
2703.74
2705.19
2706.98
2692.42
2609.94
2632.94
2639.04
2643.73
2648.2
2652.23
2655.84
2659.08
2662.01
2664.68
2667.12
2669.37
2671.48
2673.44
2675.3
2677.05
2678.7
2680.24
2681.67
2682.96
2684.09
2685.07
2685.95
2686.75
2686.02
2674.32
2401.99
2384.06
2378.64
2384.39
2631.19
2640.95
2646.47
2652.79
2660.8
2643.35
2693.03
2718.17
2710.36
2702.12
2695.96
2691.5
2688.37
2686.43
2685.46
2685.23
2685.55
2686.12
2686.68
2687.21
2687
2687.3
2687.53
2687.72
2687.87
2688.12
2688.39
2688.7
2689.05
2689.4
2689.74
2690.04
2690.31
2690.58
2690.87
2691.19
2691.57
2692
2692.48
2693.01
2693.6
2694.24
2694.92
2695.63
2696.31
2696.9
2697.42
2697.94
2698.62
2699.84
2701.36
2686.86
2609.68
2632.67
2638.77
2643.48
2647.94
2651.97
2655.58
2658.81
2661.73
2664.38
2666.81
2669.05
2671.14
2673.1
2674.94
2676.69
2678.34
2679.88
2681.3
2682.58
2683.7
2684.69
2685.58
2686.31
2684.67
2666.42
2209.95
2190.44
2187.61
2199
2622.16
2637.5
2643.99
2650.55
2658.57
2641.46
2693.75
2719.65
2711.61
2703.53
2696.92
2691.88
2688.26
2685.95
2684.6
2683.97
2683.78
2683.84
2684.02
2684.33
2684.01
2684.25
2684.44
2684.61
2684.72
2684.93
2685.14
2685.37
2685.62
2685.87
2686.1
2686.32
2686.54
2686.81
2687.12
2687.49
2687.92
2688.41
2688.96
2689.56
2690.21
2690.89
2691.59
2692.24
2692.83
2693.33
2693.79
2694.29
2694.88
2695.91
2697.27
2682.91
2609.5
2632.49
2638.6
2643.3
2647.77
2651.82
2655.43
2658.66
2661.58
2664.23
2666.65
2668.88
2670.95
2672.9
2674.73
2676.46
2678.09
2679.62
2681.03
2682.3
2683.43
2684.41
2685.28
2685.89
2683.71
2662.5
2129.66
2109.39
2107.9
2122.29
2620.47
2638.12
2643.98
2648.94
2654.76
2636.15
2696.67
2724.42
2716.12
2707.77
2700.42
2694.69
2690.59
2688.03
2686.45
2685.4
2684.73