/*--------------------------------*- C++ -*----------------------------------*\
| =========                 |                                                 |
| \\      /  F ield         | OpenFOAM: The Open Source CFD Toolbox           |
|  \\    /   O peration     | Version:  v2012                                 |
|   \\  /    A nd           | Website:  www.openfoam.com                      |
|    \\/     M anipulation  |                                                 |
\*---------------------------------------------------------------------------*/
FoamFile
{
    version     2.0;
    format      ascii;
    class       volScalarField;
    location    "650/air";
    object      GLeaf;
}
// * * * * * * * * * * * * * * * * * * * * * * * * * * * * * * * * * * * * * //

dimensions      [1 0 -3 0 0 0 0];


internalField   nonuniform List<scalar> 
287104
(
766.894
794.789
797.374
798.846
800.352
801.586
802.469
803.037
803.344
803.438
803.356
803.128
802.779
802.327
801.79
801.179
800.507
799.781
799.01
798.199
797.354
796.48
795.581
794.66
793.721
792.766
791.798
790.82
789.833
788.839
787.84
786.838
785.833
784.825
783.808
782.785
781.779
780.797
779.811
778.812
777.812
776.803
775.813
774.859
773.899
772.933
771.978
771.03
770.091
769.16
768.237
767.324
766.421
765.527
764.642
763.767
762.902
762.047
761.201
760.367
759.543
758.73
757.928
757.137
756.358
755.591
754.838
754.101
753.382
752.682
752
751.336
750.687
750.047
749.414
748.784
748.159
747.541
746.934
746.341
745.762
745.198
744.643
744.066
743.403
742.607
741.86
742.152
744.88
733.844
778.273
809.095
811.539
812.71
813.932
814.882
815.495
815.81
815.871
815.716
815.379
814.892
814.282
813.569
812.771
811.903
810.975
809.996
808.974
807.915
806.824
805.707
804.568
803.411
802.237
801.05
799.852
798.645
797.432
796.214
794.994
793.773
792.553
791.329
790.086
788.823
787.595
786.436
785.267
784.058
782.843
781.601
780.394
779.276
778.139
776.972
775.823
774.683
773.554
772.435
771.328
770.233
769.149
768.077
767.016
765.966
764.928
763.902
762.889
761.888
760.899
759.923
758.959
758.007
757.069
756.145
755.238
754.35
753.481
752.63
751.793
750.966
750.145
749.33
748.523
747.733
746.968
746.238
745.549
744.896
744.268
743.651
743.036
742.412
741.739
740.963
740.249
740.765
744.498
734.13
765.875
795.899
797.974
798.883
799.908
800.687
801.145
801.322
801.257
800.988
800.543
799.955
799.248
798.444
797.561
796.61
795.604
794.552
793.459
792.332
791.177
789.999
788.801
787.588
786.361
785.122
783.874
782.617
781.354
780.089
778.822
777.556
776.293
775.027
773.735
772.41
771.13
769.953
768.766
767.517
766.26
764.96
763.701
762.576
761.424
760.22
759.04
757.869
756.711
755.565
754.432
753.313
752.205
751.109
750.025
748.954
747.896
746.851
745.82
744.802
743.797
742.806
741.827
740.863
739.914
738.981
738.067
737.171
736.29
735.422
734.562
733.705
732.853
732.011
731.191
730.407
729.672
728.992
728.367
727.782
727.216
726.645
726.053
725.441
724.791
724.038
723.306
723.841
727.952
718.565
753.635
782.857
784.753
785.531
786.441
787.118
787.488
787.59
787.463
787.138
786.643
786.012
785.269
784.431
783.517
782.538
781.505
780.428
779.313
778.166
776.992
775.797
774.584
773.357
772.117
770.867
769.608
768.341
767.067
765.789
764.51
763.232
761.958
760.681
759.373
758.02
756.714
755.543
754.361
753.1
751.829
750.502
749.214
748.1
746.956
745.739
744.549
743.37
742.203
741.051
739.912
738.786
737.671
736.567
735.475
734.397
733.332
732.281
731.244
730.22
729.209
728.211
727.227
726.257
725.304
724.368
723.448
722.54
721.641
720.745
719.851
718.96
718.08
717.225
716.411
715.651
714.955
714.323
713.746
713.205
712.674
712.122
711.525
710.879
710.171
709.351
708.541
709.004
713.173
704.281
742.284
770.888
772.697
773.407
774.242
774.848
775.158
775.212
775.046
774.689
774.167
773.518
772.76
771.911
770.984
769.993
768.949
767.863
766.74
765.587
764.408
763.209
761.993
760.764
759.525
758.276
757.02
755.757
754.487
753.212
751.934
750.656
749.383
748.11
746.808
745.455
744.14
742.97
741.798
740.541
739.278
737.956
736.664
735.558
734.43
733.219
732.038
730.869
729.714
728.574
727.448
726.333
725.228
724.135
723.056
721.991
720.94
719.904
718.882
717.872
716.876
715.894
714.927
713.976
713.042
712.122
711.212
710.307
709.401
708.495
707.594
706.709
705.857
705.053
704.311
703.637
703.031
702.483
701.978
701.494
701.008
700.487
699.897
699.217
698.441
697.56
696.744
697.204
701.281
692.436
731.385
759.47
761.227
761.889
762.666
763.215
763.48
763.504
763.323
762.954
762.435
761.784
761.027
760.176
759.245
758.248
757.2
756.109
754.985
753.831
752.654
751.457
750.243
749.016
747.779
746.535
745.288
744.036
742.779
741.515
740.247
738.975
737.707
736.443
735.164
733.847
732.543
731.351
730.172
728.931
727.695
726.42
725.153
724.031
722.913
721.731
720.576
719.437
718.316
717.21
716.118
715.038
713.97
712.919
711.884
710.867
709.868
708.885
707.917
706.967
706.034
705.119
704.225
703.351
702.493
701.646
700.804
699.963
699.123
698.294
697.49
696.733
696.042
695.432
694.908
694.462
694.081
693.747
693.44
693.142
692.827
692.471
692.043
691.515
690.881
690.173
689.602
690.258
694.113
684.538
720.73
748.335
750.049
750.668
751.384
751.866
752.072
752.062
751.871
751.509
751.039
750.395
749.642
748.793
747.861
746.862
745.812
744.722
743.599
742.449
741.277
740.084
738.875
737.652
736.418
735.18
733.942
732.706
731.47
730.231
728.985
727.733
726.481
725.238
724.014
722.793
721.546
720.311
719.11
717.921
716.757
715.614
714.452
713.325
712.261
711.213
710.194
709.207
708.245
707.306
706.386
705.487
704.613
703.763
702.94
702.139
701.361
700.603
699.868
699.156
698.469
697.809
697.174
696.562
695.965
695.38
694.802
694.236
693.693
693.192
692.758
692.412
692.17
692.039
692.016
692.083
692.219
692.395
692.587
692.774
692.919
693.023
693.058
693.006
692.857
692.632
692.5
693.302
696.08
683.701
710.233
737.374
739.053
739.634
740.29
740.69
740.803
740.706
740.452
740.057
739.617
738.939
738.165
737.316
736.395
735.413
734.383
733.315
732.216
731.089
729.94
728.769
727.58
726.373
725.151
723.922
722.697
721.483
720.282
719.086
717.889
716.686
715.5
714.351
713.297
712.347
711.333
710.154
709.048
708.109
707.24
706.514
705.749
704.768
703.912
703.21
702.52
701.871
701.252
700.661
700.111
699.61
699.163
698.768
698.421
698.116
697.853
697.633
697.458
697.33
697.25
697.214
697.218
697.255
697.316
697.401
697.514
697.67
697.889
698.193
698.601
699.123
699.76
700.506
701.35
702.274
703.252
704.253
705.244
706.192
707.038
707.802
708.455
708.996
709.444
709.817
710.243
711.379
713.465
696.124
699.873
726.552
728.202
728.76
729.376
729.709
729.715
729.469
729.019
728.354
727.33
726.31
725.372
724.484
723.575
722.628
721.646
720.63
719.582
718.504
717.397
716.265
715.109
713.927
712.758
711.612
710.501
709.438
708.431
707.474
706.556
705.662
704.779
703.941
703.277
702.86
702.327
701.332
700.431
699.92
699.518
699.432
699.294
698.544
698.009
697.863
697.709
697.613
697.557
697.544
697.577
697.664
697.807
697.996
698.221
698.475
698.758
699.074
699.425
699.812
700.231
700.672
701.126
701.585
702.049
702.523
703.024
703.577
704.202
704.914
705.719
706.61
707.572
708.59
709.651
710.743
711.851
712.951
714.016
715.034
716.025
716.839
717.419
717.8
718.081
718.358
718.764
719.825
721.259
700.983
689.649
715.867
717.489
718.034
718.633
718.937
718.88
718.5
717.727
716.085
709.943
706.391
704.128
702.554
701.287
700.171
699.128
698.11
697.087
696.042
694.964
693.849
692.697
691.504
690.319
689.14
687.975
686.842
685.762
684.744
683.786
682.865
681.909
680.918
680.121
679.698
679.046
677.449
675.931
675.109
674.434
674.307
674.15
672.829
671.824
671.528
671.17
670.864
670.593
670.373
670.228
670.171
670.197
670.287
670.428
670.618
670.86
671.16
671.52
671.936
672.397
672.891
673.411
673.954
674.532
675.163
675.87
676.675
677.589
678.61
679.727
680.92
682.17
683.459
684.778
686.12
687.476
688.835
690.216
691.797
694.848
697.505
699.537
701.007
702.137
703.197
704.483
706.584
709.085
689.768
679.57
705.327
706.92
707.446
708.035
708.345
708.318
707.972
706.869
701.5
650.01
633.245
626.909
624.082
622.369
620.961
619.573
618.114
616.572
614.967
613.333
611.703
610.106
608.564
607.087
605.68
604.346
603.095
601.943
600.895
599.938
599.032
598.132
597.261
596.7
596.732
596.477
594.723
592.966
592.205
591.53
591.57
591.543
589.572
587.903
587.255
586.418
585.583
584.741
583.931
583.186
582.513
581.894
581.307
580.744
580.214
579.729
579.3
578.929
578.611
578.338
578.108
577.928
577.815
577.795
577.894
578.133
578.519
579.046
579.695
580.447
581.282
582.185
583.15
584.169
585.235
586.326
587.417
588.583
591.962
612.517
628.961
641.09
649.923
656.475
661.681
666.442
671.928
678.286
664.503
669.64
694.942
696.505
697.011
697.582
697.887
697.873
697.55
696.411
690.627
636.818
619.456
613.187
610.637
609.249
608.156
607.045
605.817
604.46
602.999
601.47
599.91
598.357
596.843
595.388
594.001
592.675
591.408
590.214
589.117
588.132
587.238
586.355
585.482
585.001
585.366
585.414
583.309
581.127
580.392
579.751
580.119
580.523
578.099
575.995
575.35
574.397
573.41
572.39
571.383
570.406
569.438
568.444
567.397
566.297
565.154
563.978
562.768
561.519
560.228
558.901
557.556
556.222
554.937
553.742
552.667
551.728
550.929
550.263
549.724
549.311
549.028
548.886
548.894
549.052
549.355
549.781
550.305
550.986
553.103
569.143
582.995
594.05
602.876
610.128
616.48
622.834
630.852
641.803
636.397
659.863
684.717
686.254
686.742
687.294
687.585
687.562
687.233
686.092
680.322
627.179
610
603.814
601.312
599.961
598.905
597.834
596.649
595.339
593.928
592.449
590.942
589.445
587.998
586.637
585.375
584.19
583.049
581.938
580.878
579.917
579.072
578.277
577.517
577.247
578.102
578.657
576.351
573.859
573.322
572.885
573.785
574.926
572.315
570.038
569.763
569.127
568.511
567.932
567.425
566.976
566.541
566.081
565.593
565.089
564.578
564.054
563.5
562.903
562.263
561.587
560.899
560.227
559.597
559.018
558.481
557.963
557.433
556.867
556.246
555.567
554.83
554.034
553.177
552.248
551.237
550.129
548.92
547.698
547.629
559.393
568.691
575.471
580.61
584.834
588.684
592.946
599.542
610.529
608.801
650.235
674.651
676.167
676.641
677.177
677.455
677.424
677.092
675.964
670.286
618.079
601.192
595.103
592.634
591.296
590.251
589.195
588.028
586.738
585.349
583.892
582.402
580.918
579.488
578.165
576.982
575.916
574.894
573.848
572.762
571.7
570.746
569.882
569.101
568.913
570.131
571.104
568.49
565.521
565.023
564.61
565.833
567.561
564.567
561.845
561.668
561.088
560.591
560.187
559.866
559.564
559.226
558.885
558.567
558.294
558.058
557.832
557.59
557.336
557.092
556.894
556.777
556.763
556.857
557.046
557.3
557.587
557.883
558.173
558.454
558.725
558.981
559.208
559.387
559.493
559.508
559.421
559.247
559.159
560.963
575.61
586.462
593.974
599.35
603.43
606.756
610.065
614.98
622.372
613.81
640.753
664.738
666.242
666.71
667.237
667.506
667.464
667.126
666.006
660.414
609.092
592.485
586.491
584.054
582.731
581.7
580.659
579.511
578.243
576.877
575.444
573.973
572.498
571.073
569.773
568.664
567.742
566.905
566.012
564.96
563.79
562.649
561.611
560.726
560.554
562.065
563.44
560.545
557.077
556.568
556.124
557.571
559.841
556.466
553.233
553.083
552.533
552.154
551.897
551.659
551.321
550.859
550.348
549.878
549.483
549.128
548.766
548.381
547.994
547.668
547.437
547.316
547.295
547.35
547.443
547.541
547.63
547.703
547.767
547.822
547.863
547.877
547.844
547.747
547.579
547.346
547.07
546.803
546.75
548.684
563.063
573.922
581.672
587.39
591.81
595.487
599.255
604.712
612.568
604.071
631.407
654.969
656.466
656.94
657.473
657.747
657.705
657.357
656.234
650.712
600.204
583.857
577.951
575.55
574.251
573.242
572.225
571.103
569.861
568.524
567.119
565.673
564.211
562.784
561.482
560.417
559.63
559.024
558.381
557.474
556.253
554.886
553.568
552.466
552.214
553.924
555.668
552.557
548.612
548.058
547.556
549.137
551.888
548.19
544.466
544.349
543.911
543.741
543.663
543.441
542.94
542.228
541.497
540.886
540.404
539.975
539.54
539.097
538.689
538.358
538.121
537.964
537.848
537.731
537.578
537.374
537.117
536.812
536.459
536.041
535.535
534.908
534.137
533.215
532.154
530.992
529.776
528.573
527.528
527.729
538.855
547.397
553.348
557.457
560.366
562.723
565.473
570.392
579.399
577.166
622.196
645.334
646.826
647.312
647.867
648.172
648.156
647.819
646.694
641.226
591.462
575.359
569.538
567.174
565.902
564.918
563.929
562.834
561.622
560.313
558.938
557.519
556.072
554.636
553.307
552.234
551.531
551.145
550.821
550.188
549.031
547.464
545.783
544.325
543.848
545.61
547.653
544.395
540.013
539.376
538.789
540.396
543.53
539.585
535.443
535.416
535.219
535.356
535.444
535.124
534.315
533.255
532.268
531.517
530.961
530.484
530.024
529.594
529.235
528.964
528.76
528.576
528.364
528.095
527.761
527.37
526.931
526.441
525.883
525.223
524.432
523.487
522.392
521.174
519.886
518.603
517.41
516.4
515.73
516.473
528.332
537.942
545.12
550.537
554.882
558.842
563.227
569.617
579.857
577.687
613.127
635.841
637.32
637.812
638.391
638.746
638.798
638.524
637.451
632.072
583.032
567.184
561.457
559.122
557.862
556.886
555.904
554.816
553.611
552.31
550.945
549.537
548.095
546.64
545.256
544.114
543.404
543.163
543.159
542.904
541.974
540.323
538.276
536.348
535.483
537.129
539.387
536.066
531.332
530.607
529.941
531.496
534.926
530.863
526.469
526.685
526.919
527.46
527.679
527.154
525.965
524.579
523.439
522.687
522.216
521.869
521.578
521.35
521.2
521.108
521.024
520.905
520.728
520.499
520.234
519.946
519.63
519.259
518.798
518.217
517.504
516.673
515.763
514.835
513.961
513.22
512.685
512.433
512.593
514.301
528.018
539.384
548.094
554.868
560.461
565.465
570.4
576.472
584.935
578.825
604.21
626.502
627.963
628.445
629.031
629.426
629.56
629.412
628.513
623.414
575.459
560.002
554.397
552.064
550.766
549.741
548.704
547.56
546.3
544.948
543.54
542.105
540.65
539.176
537.738
536.504
535.715
535.524
535.792
535.99
535.484
533.978
531.709
529.311
527.943
529.312
531.697
528.402
523.424
522.619
521.864
523.265
526.875
522.794
518.315
518.91
519.678
520.581
520.768
519.879
518.267
516.645
515.519
514.958
514.758
514.716
514.743
514.823
514.936
515.045
515.115
515.135
515.12
515.093
515.061
515.007
514.893
514.678
514.331
513.85
513.263
512.622
511.997
511.458
511.067
510.87
510.897
511.316
512.234
515.473
531.996
545.157
555.028
562.611
568.729
573.87
578.403
583.278
589.118
578.796
595.445
617.322
618.764
619.228
619.799
620.199
620.381
620.353
619.747
615.486
571.443
557.048
551.562
549.038
547.497
546.259
545.077
543.873
542.642
541.409
540.198
539.023
537.87
536.702
535.521
534.441
533.718
533.613
534.144
534.851
534.965
533.906
531.689
528.947
527.022
527.956
530.342
527.082
521.886
520.916
519.913
520.887
524.375
520.122
515.444
516.218
517.192
517.95
517.541
515.841
513.57
511.649
510.562
510.237
510.356
510.672
511.167
511.729
512.293
512.821
513.303
513.757
514.2
514.63
515.016
515.307
515.459
515.449
515.288
515.024
514.726
514.47
514.328
514.355
514.577
514.991
515.566
516.262
517.184
520.136
537.062
550.434
560.336
567.768
573.471
577.883
581.42
584.964
588.902
576.495
586.811
608.28
609.706
610.158
610.708
611.081
611.227
611.171
610.869
609.928
605.873
603.832
602.785
602.052
601.407
600.764
600.085
599.35
598.556
597.706
596.805
595.856
594.845
593.729
592.479
591.174
590.073
589.544
589.818
590.605
591.098
590.434
588.297
585.167
582.526
582.87
585.223
581.962
576.552
575.562
574.473
575.237
578.952
574.737
570.039
571.251
572.531
573.077
571.987
569.529
566.825
564.917
564.139
564.198
564.635
565.14
565.595
565.985
566.332
566.668
567.027
567.424
567.843
568.235
568.533
568.689
568.686
568.552
568.345
568.143
568.023
568.046
568.251
568.647
569.214
569.907
570.663
571.425
572.171
573.048
575.107
577.062
578.779
580.268
581.492
582.425
583.213
584.468
586.402
572.476
578.274
599.336
600.751
601.191
601.728
602.084
602.207
602.128
601.874
601.421
600.738
600.011
599.29
598.536
597.744
596.917
596.063
595.183
594.284
593.367
592.44
591.505
590.553
589.538
588.398
587.139
585.942
585.187
585.264
586.131
587.107
587.177
585.679
582.758
579.798
579.602
581.775
578.589
573.19
572.229
571.049
571.524
575.393
571.553
567.248
568.942
570.294
570.326
568.466
565.488
562.779
561.263
560.955
561.322
561.834
562.232
562.485
562.662
562.836
563.052
563.32
563.599
563.824
563.929
563.868
563.644
563.306
562.931
562.603
562.397
562.362
562.519
562.861
563.356
563.954
564.599
565.242
565.849
566.411
566.963
567.573
568.198
568.802
569.327
569.694
569.886
570.03
570.723
572.442
559.666
569.798
590.454
591.856
592.285
592.809
593.154
593.272
593.196
592.959
592.586
592.197
591.629
590.959
590.217
589.422
588.587
587.721
586.831
585.923
585
584.067
583.132
582.197
581.233
580.171
578.952
577.654
576.587
576.23
576.799
577.871
578.452
577.613
575.097
572.007
571.275
573.102
569.859
564.374
563.344
561.951
561.99
565.902
562.347
558.181
559.822
560.569
559.53
556.649
553.15
550.439
549.087
548.742
548.749
548.655
548.357
547.954
547.566
547.252
546.997
546.74
546.391
545.885
545.2
544.359
543.432
542.512
541.685
541.016
540.538
540.253
540.138
540.155
540.253
540.386
540.518
540.624
540.694
540.729
540.737
540.713
540.722
540.758
540.774
540.712
540.549
540.379
540.902
543.224
534.407
561.36
581.611
583.001
583.419
583.929
584.264
584.375
584.296
584.057
583.687
583.248
582.683
582.029
581.308
580.536
579.722
578.875
578.001
577.106
576.193
575.266
574.336
573.422
572.526
571.6
570.554
569.351
568.16
567.429
567.56
568.447
569.281
569.018
567.038
564.073
562.989
564.473
561.16
555.936
554.863
553.324
553.036
556.803
553.764
549.878
551.48
551.747
550.094
547.005
543.928
541.988
541.249
541.075
540.866
540.426
539.866
539.35
538.949
538.621
538.265
537.785
537.118
536.271
535.308
534.315
533.392
532.616
532.035
531.657
531.463
531.415
531.464
531.564
531.673
531.767
531.832
531.863
531.854
531.8
531.699
531.553
531.41
531.286
531.169
531.013
530.761
530.512
531.121
533.928
525.695
552.969
572.815
574.194
574.601
575.098
575.423
575.528
575.445
575.204
574.831
574.357
573.788
573.145
572.443
571.694
570.906
570.084
569.233
568.359
567.461
566.542
565.611
564.7
563.849
563.063
562.27
561.356
560.311
559.427
559.152
559.656
560.424
560.451
558.867
556.073
554.781
556.007
552.637
546.603
545.436
543.775
543.26
547.988
545.616
542.119
543.851
544.066
542.52
540.062
538.05
537.113
536.919
536.852
536.638
536.385
536.285
536.394
536.611
536.771
536.74
536.475
536.002
535.414
534.83
534.332
533.984
533.808
533.792
533.901
534.09
534.312
534.529
534.713
534.849
534.938
534.981
534.977
534.918
534.796
534.617
534.403
534.199
534.042
533.928
533.786
533.503
533.174
533.711
536.204
526.103
544.678
564.121
565.49
565.887
566.373
566.69
566.789
566.702
566.46
566.087
565.604
565.036
564.4
563.712
562.98
562.212
561.413
560.585
559.733
558.854
557.947
557.014
556.087
555.234
554.528
553.973
553.454
552.816
552.119
551.686
551.833
552.358
552.405
550.944
548.133
546.606
547.716
544.532
543.1
541.983
540.245
539.511
540.029
538.522
535.869
538.476
539.574
539.099
538.001
537.345
537.262
537.333
537.265
537.177
537.311
537.723
538.247
538.646
538.756
538.544
538.1
537.547
537.017
536.615
536.37
536.285
536.332
536.468
536.649
536.834
536.995
537.114
537.185
537.211
537.197
537.142
537.042
536.892
536.698
536.487
536.298
536.169
536.115
536.105
536.024
535.743
535.39
535.884
537.982
526.117
536.616
555.665
557.024
557.41
557.885
558.194
558.289
558.201
557.96
557.589
557.108
556.543
555.914
555.233
554.514
553.762
552.983
552.179
551.352
550.5
549.616
548.694
547.75
546.855
546.131
545.682
545.483
545.34
545.109
544.864
544.89
545.232
545.253
543.811
540.789
538.821
539.841
536.835
520.778
519.347
517.163
516.144
531.618
531.105
529.212
532.754
534.604
534.793
534.291
533.914
533.659
533.297
532.955
532.936
533.341
533.961
534.477
534.677
534.534
534.16
533.727
533.362
533.143
533.102
533.202
533.402
533.656
533.922
534.169
534.378
534.539
534.65
534.716
534.74
534.723
534.663
534.56
534.428
534.3
534.219
534.215
534.287
534.397
534.458
534.353
534.016
533.654
534.136
535.931
523.079
529.014
547.688
549.036
549.409
549.871
550.17
550.26
550.17
549.928
549.56
549.084
548.525
547.901
547.228
546.519
545.782
545.022
544.241
543.44
542.618
541.768
540.877
539.938
538.994
538.167
537.633
537.5
537.663
537.91
538.074
538.252
538.624
538.83
537.698
534.671
532.105
532.954
531.614
565.077
561.715
556.648
552.945
519.524
519.333
518.621
523.482
526.034
526.68
526.528
526.303
526.041
525.797
525.834
526.309
527.053
527.722
528.069
528.073
527.868
527.632
527.509
527.545
527.736
528.058
528.443
528.849
529.242
529.599
529.907
530.161
530.361
530.509
530.608
530.657
530.654
530.609
530.542
530.494
530.51
530.624
530.83
531.074
531.263
531.29
531.087
530.691
530.367
530.853
532.392
518.948
522.201
540.539
541.877
542.237
542.684
542.97
543.05
542.951
542.704
542.33
541.852
541.292
540.669
540
539.298
538.573
537.832
537.077
536.309
535.525
534.721
533.883
532.989
532.038
531.103
530.359
530.007
530.089
530.504
530.98
531.392
531.916
532.505
532.227
530.08
527.582
528.86
525.841
479.123
471.636
467.488
467.661
507.895
511.786
512.406
517.953
520.278
520.777
520.75
520.769
520.821
520.992
521.417
522.026
522.568
522.836
522.821
522.68
522.585
522.634
522.869
523.243
523.696
524.191
524.677
525.13
525.534
525.881
526.168
526.396
526.566
526.681
526.742
526.754
526.728
526.692
526.685
526.749
526.915
527.179
527.493
527.767
527.894
527.797
527.488
527.096
526.89
527.456
528.773
514.888
516.548
534.609
535.945
536.301
536.743
537.026
537.104
537.002
536.75
536.368
535.88
535.307
534.668
533.983
533.267
532.532
531.789
531.044
530.297
529.546
528.788
528.014
527.196
526.303
525.34
524.417
523.738
523.441
523.617
524.081
524.578
525.181
526.074
526.851
526.401
524.959
526.531
516.566
251.799
246.341
248.181
257.128
504.332
513.556
513.127
516.7
516.944
516.575
516.599
517.019
517.523
518.014
518.478
518.831
518.987
518.977
518.938
519.013
519.268
519.673
520.19
520.743
521.281
521.79
522.243
522.634
522.96
523.217
523.409
523.54
523.615
523.64
523.626
523.589
523.557
523.566
523.648
523.823
524.086
524.395
524.682
524.864
524.865
524.664
524.327
524.008
523.927
524.547
525.73
511.483
512.355
530.215
531.56
531.929
532.392
532.704
532.817
532.754
532.539
532.191
531.726
531.163
530.52
529.813
529.06
528.279
527.484
526.688
525.901
525.125
524.358
523.595
522.817
521.984
521.058
520.075
519.181
518.514
518.304
518.536
518.981
519.617
520.669
522.259
523.591
523.71
526.451
511.574
68.7037
65.7234
73.1467
89.5076
506.556
518.708
515.266
515.655
513.664
512.78
512.996
513.543
513.944
514.185
514.368
514.545
514.771
515.117
515.635
516.324
517.121
517.919
518.674
519.339
519.893
520.351
520.711
520.982
521.171
521.287
521.343
521.353
521.33
521.288
521.248
521.233
521.27
521.379
521.567
521.817
522.095
522.349
522.526
522.579
522.485
522.261
521.985
521.771
521.783
522.44
523.537
509.066
509.742
527.472
528.828
529.215
529.714
530.081
530.269
530.301
530.196
529.965
529.619
529.165
528.611
527.965
527.239
526.444
525.6
524.727
523.844
522.964
522.093
521.231
520.37
519.478
518.512
517.474
516.479
515.602
515.122
515.146
515.537
516.292
517.576
519.754
522.441
523.669
527.545
511.235
-2.59266
-4.18397
6.57287
26.7635
513.373
524.871
517.785
515.549
512.108
510.804
510.508
510.233
509.803
509.522
509.631
510.185
511.112
512.288
513.583
514.893
516.112
517.145
517.98
518.621
519.084
519.405
519.607
519.716
519.752
519.738
519.695
519.643
519.602
519.589
519.622
519.716
519.876
520.095
520.348
520.601
520.817
520.966
521.027
520.994
520.875
520.703
520.53
520.421
520.507
521.23
522.358
507.77
508.576
526.233
527.581
527.965
528.47
528.862
529.099
529.209
529.212
529.123
528.945
528.68
528.324
527.872
527.32
526.668
525.923
525.102
524.226
523.317
522.388
521.442
520.473
519.457
518.358
517.167
515.948
514.854
514.124
513.914
514.224
515.07
517.468
520.42
524.573
526.628
531.418
512.71
-23.6545
-30.6408
-19.3212
5.11237
527.421
537.834
526.593
521.628
515.845
512.534
510.206
508.294
506.977
506.573
507.102
508.329
509.926
511.611
513.204
514.632
515.226
516.165
516.851
517.329
517.637
517.828
517.933
517.982
517.996
517.998
518.007
518.043
518.123
518.255
518.444
518.683
518.953
519.223
519.459
519.635
519.735
519.761
519.721
519.628
519.498
519.356
519.229
519.152
519.269
520.099
521.52
507.233
508.484
526.116
527.439
527.787
528.248
528.592
528.78
528.849
528.83
528.744
528.606
528.42
528.186
527.896
527.538
527.103
526.582
525.98
525.312
524.598
523.856
523.088
522.283
521.405
520.4
519.223
518.123
516.804
515.703
515.01
514.578
514.981
517.252
520.694
526.642
530.609
539.351
522.113
-11.9773
-23.8401
-17.3298
5.85317
541.172
553.675
538.487
531.194
522.522
516.71
512.523
509.682
508.157
507.817
508.333
509.317
510.444
511.518
512.465
513.305
513.39
513.949
514.361
514.676
514.918
515.121
515.295
515.446
515.582
515.713
515.856
516.033
516.248
516.506
516.8
517.103
517.383
517.607
517.753
517.816
517.81
517.756
517.67
517.562
517.44
517.31
517.178
517.078
517.194
518.184
520.104
506.626
508.957
526.603
527.91
528.226
528.636
528.905
528.995
528.941
528.78
528.54
528.246
527.915
527.561
527.186
526.789
526.364
525.903
525.403
524.874
524.337
523.821
523.348
522.917
522.486
521.969
521.216
519.495
518.299
517.084
516.047
515.965
515.504
516.602
518.781
524.741
532.019
556.017
540.835
-18.2049
-35.8265
-31.1026
-3.97097
564.397
580.284
549.889
537.231
525.378
518.023
513.368
510.67
509.284
508.693
508.529
508.577
508.728
508.941
509.217
509.592
509.406
509.873
510.321
510.764
511.188
511.593
511.961
512.286
512.569
512.826
513.076
513.329
513.582
513.816
514.006
514.117
514.127
514.024
513.797
513.46
513.056
512.576
512.021
511.417
510.785
510.143
509.508
508.937
508.677
509.556
512.071
500.709
509.52
527.197
528.506
528.822
529.224
529.473
529.524
529.409
529.16
528.802
528.361
527.859
527.313
526.737
526.137
525.517
524.874
524.204
523.512
522.819
522.165
521.61
521.204
520.948
520.764
520.485
523.367
522.509
521.41
520.324
515.998
515.219
515.317
514.974
516.99
524.117
588.695
574.907
57.7206
36.3897
39.6506
68.5857
606.342
624.796
552.574
534.026
519.554
510.571
505.22
502.503
501.332
500.966
501.019
501.323
501.801
502.41
503.122
503.946
504.181
505.002
505.731
506.363
506.879
507.27
507.527
507.655
507.703
507.721
507.75
507.805
507.884
507.97
508.047
508.108
508.138
508.146
508.183
508.282
508.434
508.675
509.019
509.443
509.922
510.437
510.982
511.61
512.58
514.741
518.47
507.293
509.878
527.57
528.884
529.21
529.628
529.897
529.972
529.881
529.654
529.313
528.879
528.369
527.799
527.179
526.518
525.817
525.072
524.276
523.42
522.508
521.572
520.686
519.958
519.468
519.164
518.634
506.26
504.892
503.342
502.019
512.438
511.312
510.345
507.828
502.537
474.334
494.228
517.589
512.916
508.116
504.336
501.036
498.547
497.212
496.844
497.134
497.852
498.907
500.139
501.541
502.393
503.92
505.422
506.904
508.317
509.715
511.045
512.299
513.476
514.589
515.637
516.601
517.459
518.192
518.797
519.282
519.667
519.982
520.261
520.524
520.784
521.045
521.314
521.599
521.906
522.23
522.567
522.958
523.626
525.277
527.822
513.919
509.949
527.634
528.942
529.262
529.678
529.949
530.031
529.954
529.746
529.432
529.031
528.562
528.037
527.467
526.856
526.206
525.512
524.763
523.941
523.031
522.032
520.991
520.015
519.221
518.674
519.457
556.626
554.623
551.229
547.756
509.138
507.577
507.525
507.026
505.309
475.433
501.488
533.657
529.733
524.492
520.46
517.584
515.761
514.875
514.897
515.764
517.217
519.093
520.608
521.932
522.411
523.362
524.097
524.657
525.056
525.375
525.603
525.768
525.91
526.048
526.175
526.263
526.291
526.256
526.168
526.048
525.92
525.807
525.724
525.677
525.668
525.701
525.783
525.921
526.106
526.309
526.495
526.68
527.058
528.206
529.8
514.667
509.794
527.464
528.764
529.074
529.477
529.733
529.799
529.704
529.478
529.146
528.729
528.245
527.71
527.134
526.522
525.875
525.19
524.455
523.651
522.753
521.736
520.608
519.458
518.387
517.484
516.387
475.928
469.116
465.735
466.196
501.291
503.139
504.748
506.32
507.122
477.268
504.886
540.255
537.994
533.871
530.873
528.844
527.543
526.899
526.868
527.284
528.005
528.826
529.405
529.822
529.431
529.505
529.426
529.252
529.004
528.793
528.582
528.391
528.235
528.108
527.982
527.826
527.624
527.39
527.155
526.939
526.759
526.626
526.541
526.504
526.517
526.584
526.71
526.889
527.083
527.237
527.308
527.333
527.494
528.254
529.252
513.77
509.533
527.193
528.493
528.8
529.198
529.447
529.502
529.395
529.156
528.81
528.379
527.883
527.339
526.758
526.145
525.501
524.819
524.089
523.289
522.391
521.364
520.205
518.988
517.742
515.744
507.021
247.575
240.265
241.869
251.281
496.559
504.027
506.503
508.753
510.31
479.631
507.002
543.506
541.845
537.896
534.747
532.524
531.019
530.125
529.765
529.771
530.027
530.313
530.488
530.589
529.963
529.797
529.526
529.202
528.828
528.541
528.273
528.041
527.846
527.667
527.471
527.242
526.991
526.742
526.52
526.34
526.212
526.139
526.117
526.145
526.225
526.359
526.538
526.729
526.878
526.935
526.897
526.832
526.883
527.419
528.116
512.582
509.277
526.934
528.239
528.551
528.951
529.2
529.253
529.14
528.891
528.533
528.089
527.58
527.024
526.434
525.817
525.173
524.491
523.758
522.951
522.043
521.013
519.865
518.66
517.348
514.452
499.273
57.8508
50.8198
56.7292
73.4299
494.14
506.487
509.404
511.437
512.525
481.241
507.766
546.118
544.538
540.049
536.493
534.039
532.424
531.381
530.772
530.422
530.233
530.093
529.949
529.828
529.068
528.795
528.456
528.085
527.653
527.331
527.015
526.728
526.468
526.214
525.946
525.666
525.397
525.163
524.981
524.859
524.796
524.791
524.84
524.941
525.088
525.268
525.453
525.597
525.657
525.625
525.543
525.469
525.46
525.844
526.451
511.162
509.1
526.754
528.066
528.386
528.795
529.052
529.112
529.004
528.757
528.397
527.946
527.427
526.858
526.255
525.624
524.966
524.272
523.527
522.71
521.798
520.772
519.631
518.403
516.976
513.456
495.07
-22.5722
-30.0664
-22.4345
-2.19736
493.253
507.755
510.133
510.973
510.713
479.86
507.823
547.768
546.593
541.325
537.54