/*--------------------------------*- C++ -*----------------------------------*\
| =========                 |                                                 |
| \\      /  F ield         | OpenFOAM: The Open Source CFD Toolbox           |
|  \\    /   O peration     | Version:  v2012                                 |
|   \\  /    A nd           | Website:  www.openfoam.com                      |
|    \\/     M anipulation  |                                                 |
\*---------------------------------------------------------------------------*/
FoamFile
{
    version     2.0;
    format      ascii;
    class       volScalarField;
    location    "650/air";
    object      ILambda_24_0;
}
// * * * * * * * * * * * * * * * * * * * * * * * * * * * * * * * * * * * * * //

dimensions      [1 0 -3 0 0 0 0];


internalField   nonuniform List<scalar> 
287104
(
167.142
167.588
167.994
168.373
168.728
169.063
169.381
169.683
169.971
170.246
170.511
170.766
171.011
171.249
171.479
171.703
171.921
172.133
172.34
172.542
172.741
172.935
173.126
173.314
173.498
173.68
173.859
174.035
174.209
174.381
174.551
174.718
174.884
175.048
175.21
175.371
175.53
175.687
175.843
175.997
176.15
176.302
176.452
176.601
176.749
176.895
177.04
177.184
177.327
177.468
177.609
177.748
177.886
178.023
178.158
178.293
178.426
178.558
178.689
178.819
178.948
179.076
179.203
179.328
179.453
179.577
179.699
179.821
179.942
180.062
180.181
180.3
180.417
180.534
180.65
180.765
180.88
180.994
181.108
181.221
181.334
181.447
181.56
181.673
181.788
181.903
182.022
182.147
182.292
182.476
166.856
167.042
167.222
167.4
167.574
167.743
167.908
168.069
168.226
168.38
168.53
168.676
168.82
168.961
169.099
169.235
169.368
169.499
169.628
169.755
169.88
170.004
170.126
170.246
170.365
170.483
170.599
170.714
170.828
170.942
171.054
171.165
171.275
171.384
171.493
171.601
171.708
171.814
171.92
172.024
172.129
172.233
172.336
172.438
172.54
172.642
172.743
172.843
172.943
173.043
173.142
173.241
173.339
173.437
173.534
173.631
173.728
173.824
173.92
174.016
174.111
174.206
174.301
174.395
174.489
174.583
174.677
174.77
174.863
174.956
175.049
175.142
175.235
175.328
175.42
175.513
175.606
175.698
175.791
175.885
175.979
176.073
176.169
176.265
176.364
176.466
176.574
176.691
176.838
177.039
166.726
166.783
166.847
166.917
166.991
167.067
167.145
167.225
167.305
167.386
167.467
167.548
167.629
167.71
167.79
167.871
167.951
168.03
168.109
168.188
168.266
168.344
168.421
168.498
168.574
168.65
168.725
168.8
168.875
168.949
169.023
169.096
169.169
169.242
169.314
169.386
169.458
169.529
169.6
169.671
169.742
169.812
169.882
169.952
170.022
170.091
170.161
170.23
170.299
170.368
170.437
170.505
170.574
170.642
170.711
170.779
170.847
170.915
170.984
171.052
171.12
171.188
171.256
171.325
171.393
171.461
171.53
171.598
171.667
171.736
171.805
171.874
171.944
172.013
172.083
172.154
172.224
172.295
172.367
172.439
172.512
172.586
172.661
172.738
172.817
172.9
172.989
173.088
173.218
173.398
166.687
166.696
166.714
166.738
166.768
166.802
166.839
166.878
166.92
166.964
167.009
167.055
167.103
167.151
167.2
167.25
167.3
167.35
167.401
167.452
167.503
167.555
167.606
167.657
167.709
167.76
167.811
167.863
167.914
167.965
168.016
168.067
168.117
168.168
168.218
168.269
168.319
168.369
168.419
168.469
168.519
168.569
168.618
168.668
168.717
168.767
168.816
168.865
168.914
168.963
169.012
169.061
169.11
169.16
169.209
169.258
169.307
169.356
169.405
169.454
169.503
169.553
169.602
169.652
169.702
169.751
169.801
169.852
169.902
169.953
170.003
170.054
170.106
170.157
170.209
170.261
170.314
170.367
170.421
170.475
170.53
170.587
170.644
170.703
170.764
170.828
170.898
170.977
171.08
171.225
166.686
166.687
166.694
166.705
166.72
166.738
166.759
166.783
166.808
166.835
166.864
166.894
166.926
166.958
166.991
167.025
167.06
167.095
167.131
167.168
167.204
167.241
167.279
167.316
167.354
167.392
167.43
167.468
167.506
167.544
167.582
167.621
167.659
167.697
167.735
167.774
167.812
167.85
167.888
167.926
167.964
168.002
168.04
168.077
168.115
168.153
168.191
168.228
168.266
168.303
168.341
168.378
168.415
168.453
168.49
168.527
168.565
168.602
168.64
168.677
168.715
168.752
168.79
168.827
168.865
168.903
168.941
168.979
169.017
169.056
169.094
169.133
169.172
169.211
169.251
169.291
169.331
169.371
169.412
169.454
169.496
169.539
169.582
169.628
169.675
169.724
169.778
169.839
169.918
170.026
166.694
166.7
166.708
166.719
166.731
166.746
166.762
166.78
166.8
166.82
166.842
166.865
166.889
166.914
166.939
166.966
166.993
167.02
167.048
167.077
167.106
167.135
167.165
167.194
167.225
167.255
167.285
167.316
167.347
167.378
167.409
167.44
167.471
167.503
167.534
167.565
167.596
167.628
167.659
167.69
167.721
167.753
167.784
167.815
167.846
167.877
167.908
167.939
167.97
168.001
168.032
168.062
168.093
168.124
168.154
168.185
168.216
168.246
168.277
168.307
168.338
168.368
168.399
168.43
168.46
168.491
168.522
168.552
168.583
168.614
168.645
168.676
168.708
168.739
168.771
168.803
168.835
168.867
168.9
168.933
168.966
169
169.035
169.071
169.108
169.147
169.189
169.237
169.296
169.375
166.7
166.712
166.723
166.736
166.749
166.764
166.779
166.795
166.812
166.83
166.849
166.868
166.888
166.909
166.931
166.952
166.975
166.998
167.021
167.045
167.069
167.094
167.119
167.144
167.169
167.195
167.221
167.247
167.273
167.3
167.326
167.353
167.379
167.406
167.433
167.46
167.487
167.514
167.541
167.568
167.595
167.622
167.649
167.676
167.703
167.73
167.756
167.783
167.81
167.837
167.863
167.89
167.917
167.943
167.97
167.996
168.022
168.049
168.075
168.101
168.128
168.154
168.18
168.206
168.233
168.259
168.285
168.311
168.338
168.364
168.39
168.417
168.443
168.47
168.496
168.523
168.55
168.577
168.604
168.632
168.66
168.688
168.716
168.746
168.776
168.808
168.842
168.88
168.925
168.984
166.702
166.717
166.73
166.744
166.758
166.772
166.787
166.802
166.818
166.834
166.851
166.868
166.886
166.904
166.923
166.942
166.961
166.981
167.001
167.022
167.043
167.064
167.086
167.107
167.129
167.151
167.174
167.197
167.219
167.242
167.265
167.289
167.312
167.335
167.359
167.382
167.406
167.43
167.454
167.477
167.501
167.525
167.549
167.572
167.596
167.62
167.643
167.667
167.691
167.714
167.738
167.761
167.785
167.808
167.831
167.855
167.878
167.901
167.924
167.947
167.97
167.993
168.016
168.039
168.062
168.085
168.108
168.131
168.153
168.176
168.199
168.222
168.244
168.267
168.29
168.313
168.336
168.359
168.382
168.405
168.428
168.452
168.476
168.501
168.526
168.552
168.58
168.611
168.647
168.692
166.702
166.717
166.731
166.744
166.758
166.772
166.786
166.8
166.815
166.83
166.845
166.861
166.877
166.893
166.91
166.927
166.944
166.961
166.979
166.997
167.015
167.034
167.053
167.072
167.091
167.111
167.13
167.15
167.17
167.19
167.21
167.231
167.251
167.271
167.292
167.313
167.333
167.354
167.375
167.396
167.416
167.437
167.458
167.479
167.5
167.52
167.541
167.562
167.582
167.603
167.624
167.644
167.665
167.685
167.706
167.726
167.746
167.767
167.787
167.807
167.827
167.847
167.867
167.887
167.907
167.927
167.947
167.967
167.987
168.007
168.026
168.046
168.066
168.086
168.105
168.125
168.145
168.165
168.185
168.205
168.225
168.246
168.266
168.288
168.309
168.332
168.355
168.381
168.41
168.446
166.702
166.716
166.729
166.742
166.755
166.768
166.782
166.795
166.809
166.823
166.837
166.851
166.865
166.88
166.895
166.91
166.926
166.942
166.958
166.974
166.99
167.007
167.024
167.041
167.058
167.075
167.093
167.11
167.128
167.146
167.164
167.182
167.2
167.218
167.237
167.255
167.273
167.292
167.31
167.329
167.347
167.366
167.384
167.403
167.421
167.439
167.458
167.476
167.494
167.513
167.531
167.549
167.567
167.585
167.603
167.621
167.639
167.656
167.674
167.692
167.71
167.727
167.745
167.762
167.78
167.797
167.815
167.832
167.849
167.867
167.884
167.901
167.918
167.936
167.953
167.97
167.988
168.005
168.023
168.04
168.058
168.076
168.094
168.112
168.131
168.15
168.171
168.193
168.217
168.247
166.701
166.714
166.727
166.739
166.752
166.765
166.777
166.79
166.803
166.817
166.831
166.847
166.862
166.878
166.894
166.91
166.926
166.943
166.959
166.975
166.992
167.008
167.024
167.04
167.057
167.073
167.089
167.105
167.122
167.138
167.155
167.171
167.188
167.204
167.221
167.238
167.255
167.272
167.289
167.306
167.323
167.34
167.357
167.374
167.391
167.408
167.425
167.441
167.458
167.475
167.492
167.508
167.525
167.541
167.557
167.573
167.589
167.605
167.621
167.637
167.652
167.668
167.683
167.698
167.714
167.729
167.744
167.759
167.773
167.788
167.803
167.817
167.832
167.846
167.861
167.876
167.89
167.905
167.92
167.934
167.948
167.961
167.976
167.99
168.005
168.021
168.038
168.056
168.077
168.102
166.7
166.713
166.725
166.738
166.75
166.762
166.775
166.787
166.8
166.813
166.828
166.844
166.861
166.878
166.894
166.911
166.928
166.945
166.961
166.978
166.994
167.011
167.027
167.043
167.059
167.075
167.091
167.106
167.122
167.138
167.153
167.169
167.185
167.201
167.217
167.233
167.249
167.265
167.282
167.298
167.315
167.331
167.348
167.364
167.381
167.397
167.414
167.431
167.447
167.464
167.48
167.497
167.513
167.529
167.546
167.562
167.578
167.594
167.61
167.625
167.641
167.657
167.672
167.687
167.702
167.717
167.732
167.746
167.76
167.774
167.788
167.801
167.815
167.827
167.84
167.853
167.865
167.877
167.889
167.9
167.91
167.919
167.929
167.939
167.949
167.96
167.972
167.985
168.001
168.02
166.7
166.713
166.725
166.737
166.749
166.761
166.773
166.786
166.798
166.811
166.827
166.843
166.86
166.877
166.894
166.911
166.928
166.945
166.962
166.978
166.995
167.011
167.027
167.043
167.059
167.074
167.09
167.105
167.12
167.136
167.151
167.166
167.182
167.197
167.213
167.228
167.244
167.26
167.276
167.292
167.308
167.324
167.34
167.356
167.373
167.389
167.405
167.422
167.438
167.455
167.471
167.487
167.504
167.52
167.536
167.553
167.569
167.585
167.602
167.618
167.634
167.65
167.666
167.682
167.697
167.713
167.729
167.744
167.759
167.774
167.789
167.803
167.817
167.831
167.845
167.859
167.872
167.884
167.897
167.908
167.918
167.928
167.937
167.946
167.955
167.964
167.974
167.985
167.998
168.014
166.7
166.713
166.724
166.737
166.749
166.761
166.773
166.785
166.797
166.81
166.826
166.842
166.859
166.876
166.893
166.91
166.926
166.943
166.96
166.976
166.993
167.009
167.024
167.04
167.056
167.071
167.086
167.101
167.116
167.131
167.146
167.161
167.176
167.191
167.206
167.222
167.237
167.252
167.268
167.284
167.299
167.315
167.331
167.347
167.363
167.379
167.395
167.411
167.427
167.443
167.46
167.476
167.492
167.508
167.524
167.54
167.557
167.573
167.589
167.605
167.621
167.637
167.653
167.669
167.685
167.701
167.717
167.733
167.748
167.763
167.779
167.794
167.809
167.823
167.838
167.852
167.866
167.879
167.892
167.904
167.913
167.923
167.932
167.941
167.951
167.961
167.971
167.983
167.996
168.012
166.7
166.712
166.724
166.736
166.748
166.76
166.772
166.784
166.796
166.809
166.825
166.841
166.857
166.874
166.891
166.908
166.924
166.941
166.957
166.973
166.989
167.005
167.021
167.036
167.051
167.066
167.081
167.096
167.11
167.125
167.14
167.154
167.169
167.184
167.198
167.213
167.228
167.244
167.259
167.274
167.289
167.305
167.32
167.336
167.352
167.367
167.383
167.399
167.414
167.43
167.446
167.462
167.478
167.494
167.51
167.526
167.542
167.558
167.574
167.59
167.606
167.622
167.638
167.654
167.67
167.686
167.702
167.718
167.734
167.75
167.766
167.781
167.796
167.812
167.827
167.842
167.856
167.87
167.884
167.896
167.905
167.915
167.924
167.934
167.944
167.954
167.965
167.977
167.99
168.008
166.7
166.712
166.724
166.736
166.748
166.76
166.772
166.783
166.795
166.808
166.823
166.84
166.856
166.872
166.889
166.905
166.922
166.938
166.954
166.97
166.986
167.001
167.016
167.031
167.046
167.061
167.075
167.09
167.104
167.118
167.133
167.147
167.161
167.176
167.19
167.205
167.22
167.234
167.249
167.264
167.279
167.294
167.309
167.325
167.34
167.355
167.37
167.386
167.401
167.417
167.432
167.448
167.463
167.479
167.495
167.51
167.526
167.542
167.558
167.574
167.59
167.606
167.622
167.638
167.655
167.671
167.687
167.703
167.72
167.736
167.753
167.769
167.785
167.802
167.818
167.834
167.85
167.866
167.882
167.896
167.908
167.92
167.932
167.944
167.956
167.968
167.981
167.995
168.01
168.03
166.699
166.712
166.724
166.735
166.747
166.759
166.771
166.783
166.794
166.807
166.822
166.838
166.854
166.87
166.887
166.903
166.919
166.935
166.951
166.967
166.982
166.997
167.012
167.027
167.042
167.056
167.07
167.084
167.098
167.112
167.126
167.14
167.154
167.168
167.183
167.197
167.211
167.226
167.24
167.255
167.269
167.284
167.299
167.314
167.329
167.344
167.359
167.374
167.389
167.405
167.42
167.435
167.45
167.466
167.481
167.497
167.512
167.528
167.544
167.56
167.576
167.592
167.608
167.624
167.641
167.657
167.674
167.69
167.707
167.724
167.742
167.759
167.776
167.794
167.811
167.829
167.846
167.864
167.881
167.897
167.912
167.926
167.94
167.953
167.967
167.981
167.995
168.01
168.026
168.047
166.699
166.712
166.723
166.735
166.747
166.758
166.77
166.782
166.793
166.806
166.821
166.837
166.853
166.869
166.885
166.901
166.917
166.932
166.948
166.964
166.979
166.994
167.008
167.023
167.037
167.051
167.065
167.079
167.093
167.107
167.12
167.134
167.148
167.162
167.176
167.19
167.204
167.218
167.232
167.247
167.261
167.276
167.29
167.305
167.32
167.334
167.349
167.364
167.379
167.394
167.409
167.424
167.439
167.454
167.469
167.485
167.5
167.515
167.531
167.547
167.562
167.578
167.594
167.61
167.627
167.643
167.66
167.677
167.693
167.711
167.728
167.745
167.763
167.78
167.798
167.816
167.834
167.852
167.869
167.886
167.901
167.915
167.929
167.943
167.957
167.971
167.985
168.001
168.018
168.039
166.699
166.711
166.723
166.734
166.746
166.758
166.769
166.781
166.792
166.805
166.82
166.835
166.851
166.867
166.882
166.898
166.914
166.93
166.945
166.96
166.975
166.99
167.005
167.019
167.033
167.047
167.061
167.074
167.088
167.101
167.115
167.128
167.142
167.155
167.169
167.182
167.196
167.21
167.224
167.238
167.252
167.266
167.28
167.295
167.309
167.323
167.338
167.353
167.367
167.382
167.397
167.411
167.426
167.441
167.456
167.471
167.486
167.501
167.516
167.531
167.547
167.562
167.577
167.593
167.609
167.625
167.641
167.657
167.673
167.689
167.706
167.722
167.739
167.756
167.773
167.79
167.807
167.823
167.84
167.855
167.868
167.881
167.893
167.906
167.92
167.933
167.948
167.963
167.98
168.003
166.699
166.711
166.722
166.734
166.745
166.757
166.768
166.78
166.791
166.803
166.818
166.834
166.85
166.866
166.882
166.897
166.913
166.928
166.943
166.958
166.973
166.987
167
167.014
167.027
167.04
167.053
167.066
167.079
167.092
167.105
167.118
167.131
167.144
167.157
167.17
167.183
167.196
167.209
167.223
167.236
167.25
167.264
167.278
167.292
167.307
167.321
167.336
167.35
167.365
167.38
167.394
167.409
167.424
167.438
167.453
167.467
167.481
167.496
167.51
167.524
167.538
167.553
167.567
167.582
167.596
167.611
167.626
167.64
167.655
167.67
167.685
167.7
167.715
167.731
167.746
167.761
167.776
167.791
167.804
167.815
167.826
167.838
167.85
167.862
167.875
167.889
167.905
167.922
167.946
166.699
166.711
166.722
166.733
166.745
166.756
166.768
166.779
166.79
166.802
166.816
166.829
166.843
166.857
166.871
166.885
166.898
166.912
166.925
166.939
166.952
166.965
166.978
166.99
167.003
167.015
167.028
167.04
167.053
167.065
167.078
167.09
167.103
167.115
167.128
167.14
167.153
167.165
167.178
167.191
167.204
167.217
167.23
167.243
167.257
167.271
167.284
167.298
167.312
167.326
167.34
167.354
167.367
167.381
167.395
167.409
167.422
167.436
167.449
167.463
167.476
167.49
167.503
167.516
167.53
167.543
167.557
167.57
167.584
167.597
167.611
167.624
167.638
167.651
167.665
167.679
167.693
167.706
167.72
167.732
167.743
167.754
167.766
167.778
167.791
167.804
167.818
167.834
167.852
167.875
166.698
166.71
166.722
166.733
166.744
166.755
166.767
166.778
166.789
166.801
166.813
166.825
166.837
166.85
166.862
166.874
166.886
166.898
166.911
166.923
166.935
166.947
166.959
166.971
166.982
166.994
167.006
167.018
167.03
167.042
167.054
167.066
167.078
167.09
167.101
167.113
167.125
167.137
167.149
167.162
167.174
167.186
167.198
167.211
167.223
167.236
167.249
167.261
167.274
167.287
167.3
167.313
167.325
167.338
167.351
167.363
167.376
167.389
167.401
167.414
167.426
167.439
167.451
167.463
167.476
167.488
167.501
167.513
167.525
167.538
167.55
167.563
167.575
167.587
167.6
167.612
167.625
167.637
167.65
167.662
167.673
167.684
167.696
167.708
167.721
167.734
167.749
167.764
167.782
167.806
166.698
166.71
166.721
166.732
166.744
166.755
166.766
166.777
166.788
166.8
166.811
166.822
166.834
166.845
166.857
166.868
166.879
166.891
166.902
166.913
166.925
166.936
166.947
166.959
166.97
166.981
166.993
167.004
167.015
167.027
167.038
167.05
167.061
167.073
167.084
167.095
167.107
167.118
167.13
167.141
167.153
167.165
167.176
167.188
167.2
167.211
167.223
167.235
167.247
167.259
167.271
167.283
167.295
167.307
167.319
167.331
167.343
167.355
167.367
167.378
167.39
167.402
167.414
167.426
167.437
167.449
167.461
167.472
167.484
167.496
167.507
167.519
167.531
167.543
167.554
167.566
167.578
167.59
167.601
167.613
167.624
167.636
167.648
167.66
167.672
167.686
167.7
167.715
167.733
167.756
166.698
166.71
166.721
166.732
166.743
166.754
166.765
166.776
166.787
166.799
166.81
166.821
166.832
166.843
166.854
166.865
166.875
166.886
166.897
166.908
166.919
166.93
166.941
166.952
166.963
166.974
166.985
166.996
167.007
167.018
167.029
167.04
167.051
167.062
167.074
167.085
167.096
167.107
167.118
167.129
167.14
167.151
167.162
167.173
167.184
167.196
167.207
167.218
167.229
167.241
167.252
167.263
167.275
167.286
167.297
167.308
167.32
167.331
167.342
167.353
167.365
167.376
167.387
167.398
167.409
167.42
167.431
167.442
167.454
167.465
167.476
167.487
167.498
167.509
167.52
167.531
167.542
167.554
167.565
167.576
167.587
167.599
167.61
167.622
167.635
167.648
167.662
167.677
167.694
167.715
166.698
166.71
166.721
166.732
166.743
166.754
166.765
166.775
166.786
166.797
166.808
166.819
166.83
166.841
166.852
166.862
166.873
166.884
166.895
166.906
166.917
166.927
166.938
166.949
166.96
166.97
166.981
166.992
167.003
167.014
167.024
167.035
167.046
167.057
167.068
167.079
167.089
167.1
167.111
167.122
167.133
167.144
167.153
167.164
167.174
167.185
167.195
167.206
167.217
167.227
167.238
167.248
167.259
167.269
167.279
167.29
167.3
167.311
167.321
167.331
167.341
167.352
167.362
167.372
167.382
167.393
167.403
167.413
167.424
167.434
167.444
167.455
167.465
167.476
167.486
167.497
167.508
167.519
167.529
167.54
167.551
167.562
167.574
167.585
167.597
167.61
167.623
167.638
167.654
167.674
166.698
166.709
166.72
166.731
166.742
166.753
166.764
166.775
166.785
166.796
166.807
166.818
166.829
166.839
166.85
166.861
166.872
166.882
166.893
166.904
166.914
166.925
166.936
166.946
166.957
166.968
166.978
166.989
167
167.01
167.021
167.032
167.043
167.053
167.064
167.075
167.085
167.096
167.105
167.115
167.124
167.134
167.145
167.155
167.164
167.173
167.183
167.192
167.202
167.211
167.221
167.23
167.24
167.249
167.259
167.268
167.277
167.287
167.297
167.306
167.316
167.325
167.335
167.345
167.354
167.364
167.374
167.384
167.394
167.403
167.413
167.424
167.434
167.444
167.454
167.464
167.475
167.485
167.496
167.506
167.517
167.528
167.539
167.55
167.562
167.574
167.586
167.6
167.615
167.634
166.698
166.709
166.72
166.731
166.741
166.752
166.763
166.774
166.785
166.795
166.806
166.817
166.827
166.838
166.849
166.859
166.87
166.881
166.891
166.902
166.913
166.923
166.934
166.944
166.955
166.966
166.976
166.987
166.997
167.008
167.019
167.029
167.04
167.051
167.061
167.072
167.083
167.093
167.104
167.113
167.121
167.129
167.133
167.141
167.149
167.158
167.166
167.175
167.183
167.192
167.201
167.21
167.219
167.228
167.237
167.246
167.256
167.265
167.274
167.283
167.293
167.302
167.312
167.321
167.33
167.34
167.35
167.359
167.369
167.379
167.388
167.398
167.408
167.418
167.428
167.438
167.448
167.458
167.468
167.478
167.488
167.499
167.509
167.52
167.531
167.543
167.555
167.567
167.581
167.598
166.698
166.709
166.72
166.73
166.741
166.752
166.762
166.773
166.784
166.794
166.805
166.815
166.826
166.837
166.847
166.858
166.868
166.879
166.889
166.9
166.911
166.921
166.932
166.942
166.953
166.963
166.974
166.984
166.995
167.006
167.016
167.027
167.038
167.048
167.059
167.07
167.08
167.089
167.099
167.104
167.109
167.115
167.117
167.124
167.132
167.14
167.149
167.158
167.167
167.176
167.185
167.194
167.203
167.212
167.221
167.23
167.239
167.249
167.258
167.267
167.276
167.286
167.295
167.304
167.314
167.323
167.333
167.342
167.351
167.361
167.37
167.38
167.39
167.399
167.409
167.419
167.428
167.438
167.448
167.458
167.467
167.477
167.488
167.498
167.508
167.519
167.53
167.542
167.554
167.57
166.697
166.709
166.719
166.73
166.74
166.751
166.762
166.772
166.783
166.793
166.804
166.814
166.825
166.835
166.846
166.856
166.867
166.877
166.888
166.898
166.909
166.919
166.93
166.94
166.951
166.961
166.972
166.982
166.993
167.003
167.014
167.025
167.035
167.046
167.057
167.067
167.077
167.084
167.055
167.052
167.054
167.057
167.1
167.109
167.118
167.127
167.136
167.145
167.155
167.164
167.174
167.183
167.192
167.201
167.211
167.22
167.229
167.238
167.248
167.257
167.266
167.275
167.284
167.294
167.303
167.312
167.321
167.331
167.34
167.349
167.358
167.368
167.377
167.386
167.396
167.405
167.415
167.424
167.433
167.443
167.452
167.462
167.472
167.481
167.491
167.502
167.512
167.523
167.534
167.549
166.697
166.708
166.719
166.729
166.74
166.75
166.761
166.771
166.782
166.792
166.803
166.813
166.824
166.834
166.844
166.855
166.865
166.876
166.886
166.896
166.907
166.917
166.928
166.938
166.948
166.959
166.969
166.98
166.99
167.001
167.012
167.023
167.033
167.044
167.055
167.065
167.075
167.079
167.059
167.057
167.061
167.066
167.087
167.097
167.107
167.117
167.126
167.136
167.146
167.156
167.166
167.175
167.185
167.194
167.204
167.213
167.222
167.231
167.24
167.25
167.259
167.268
167.277
167.286
167.295
167.304
167.314
167.323
167.332
167.341
167.35
167.359
167.368
167.378
167.387
167.396
167.405
167.414
167.423
167.433
167.442
167.451
167.46
167.47
167.479
167.489
167.499
167.509
167.52
167.533
166.697
166.708
166.719
166.729
166.739
166.75
166.76
166.771
166.781
166.791
166.802
166.812
166.822
166.833
166.843
166.853
166.864
166.874
166.884
166.895
166.905
166.915
166.926
166.936
166.947
166.957
166.968
166.978
166.989
166.999
167.01
167.021
167.032
167.043
167.053
167.064
167.073
167.075
167.162
167.175
167.182
167.193
167.084
167.087
167.098
167.109
167.119
167.129
167.14
167.15
167.16
167.17
167.179
167.189
167.198
167.208
167.217
167.226
167.235
167.245
167.254
167.263
167.272
167.281
167.29
167.299
167.308
167.317
167.326
167.335
167.344
167.353
167.362
167.371
167.38
167.389
167.398
167.407
167.416
167.425
167.434
167.443
167.452
167.462
167.471
167.48
167.489
167.499
167.509
167.522
166.697
166.708
166.718
166.729
166.739
166.749
166.76
166.77
166.78
166.791
166.801
166.811
166.822
166.832
166.842
166.852
166.863
166.873
166.883
166.893
166.904
166.914
166.924
166.935
166.945
166.955
166.966
166.977
166.987
166.998
167.009
167.02
167.03
167.041
167.052
167.063
167.072
167.071
167.328
167.353
167.353
167.367
167.09
167.078
167.092
167.103
167.113
167.124
167.135
167.145
167.155
167.165
167.175
167.185
167.194
167.204
167.213
167.223
167.232
167.241
167.25
167.26
167.269
167.278
167.287
167.296
167.305
167.314
167.323
167.332
167.341
167.35
167.359
167.368
167.377
167.385
167.394
167.403
167.412
167.421
167.43
167.439
167.448
167.457
167.466
167.475
167.484
167.493
167.503
167.514
166.697
166.708
166.718
166.728
166.739
166.749
166.759
166.77
166.78
166.79
166.8
166.811
166.821
166.831
166.841
166.851
166.862
166.872
166.882
166.892
166.902
166.913
166.923
166.933
166.944
166.954
166.965
166.975
166.986
166.997
167.008
167.019
167.03
167.04
167.051
167.061
167.07
167.067
167.504
167.534
167.513
167.519
167.109
167.078
167.094
167.104
167.115
167.125
167.135
167.145
167.155
167.165
167.174
167.184
167.194
167.203
167.213
167.222
167.231
167.241
167.25
167.259
167.268
167.277
167.286
167.295
167.304
167.313
167.322
167.331
167.34
167.349
167.358
167.367
167.376
167.385
167.393
167.402
167.411
167.42
167.429
167.438
167.447
167.456
167.465
167.474
167.483
167.492
167.501
167.513
166.697
166.708
166.718
166.728
166.738
166.749
166.759
166.769
166.779
166.79
166.8
166.81
166.82
166.83
166.84
166.851
166.861
166.871
166.881
166.891
166.902
166.912
166.922
166.933
166.943
166.953
166.964
166.975
166.985
166.996
167.007
167.018
167.028
167.039
167.048
167.057
167.067
167.063
167.619
167.639
167.591
167.586
167.131
167.089
167.105
167.116
167.126
167.135
167.144
167.153
167.162
167.171
167.18
167.189
167.198
167.207
167.216
167.225
167.234
167.243
167.252
167.262
167.271
167.28
167.289
167.298
167.307
167.316
167.325
167.334
167.343
167.352
167.361
167.37
167.379
167.388
167.397
167.406
167.415
167.424
167.433
167.442
167.451
167.46
167.469
167.478
167.487
167.496
167.505
167.517
166.697
166.707
166.718
166.728
166.738
166.748
166.759
166.769
166.779
166.789
166.799
166.81
166.82
166.83
166.84
166.85
166.86
166.87
166.88
166.891
166.901
166.911
166.921
166.932
166.942
166.953
166.964
166.975
166.985
166.996
167.006
167.016
167.026
167.035
167.044
167.052
167.062
167.056
167.661
167.665
167.592
167.574
167.14
167.094
167.118
167.125
167.135
167.145
167.154
167.163
167.172
167.18
167.189
167.197
167.206
167.215
167.223
167.232
167.241
167.25
167.259
167.268
167.277
167.286
167.295
167.304
167.313
167.323
167.332
167.341
167.35
167.359
167.369
167.378
167.388
167.397
167.407
167.416
167.426
167.436
167.446
167.456
167.466
167.476
167.486
167.496
167.506
167.517
167.527
167.539
166.697
166.707
166.718
166.728
166.738
166.748
166.758
166.769
166.779
166.789
166.799
166.809
166.819
166.829
166.839
166.849
166.86
166.87
166.88
166.89
166.9
166.91
166.921
166.931
166.942
166.952
166.962
166.972
166.982
166.992
167.003
167.013
167.021
167.03
167.038
167.047
167.061
167.061
167.539
167.501
167.398
167.364
167.135
167.116
167.107
167.145
167.151
167.161
167.171
167.179
167.187
167.195
167.203
167.21
167.218
167.226
167.235
167.243
167.252
167.261
167.27
167.279
167.289
167.298
167.308
167.318
167.328
167.338
167.349
167.359
167.37
167.38
167.391
167.401
167.412
167.423
167.433
167.443
167.454
167.464
167.474
167.484
167.494
167.504
167.514
167.523
167.533
167.543
167.553
167.565
166.697
166.707
166.718
166.728
166.738
166.748
166.758
166.768
166.778
166.789
166.799
166.809
166.819
166.829
166.839
166.849
166.859
166.869
166.879
166.889
166.9
166.91
166.92
166.931
166.941
166.952
166.964
166.974
166.983
166.992
166.998
167.006
167.014
167.023
167.033
167.046
167.241
167.141
167.175
167.184
167.191
167.199
167.207
167.214
167.222
167.23
167.238
167.246
167.255
167.263
167.272
167.282
167.291
167.301
167.311
167.321
167.331
167.341
167.351
167.361
167.371
167.381
167.392
167.402
167.412
167.423
167.433
167.443
167.453
167.463
167.473
167.482
167.492
167.501
167.511
167.52
167.529
167.538
167.547
167.557
167.566
167.578
166.697
166.707
166.717
166.728
166.738
166.748
166.758
166.768
166.778
166.788
166.798
166.808
166.818
166.828
166.838
166.848
166.858
166.869
166.879
166.889
166.899
166.909
166.92
166.93
166.941
166.951
166.962
166.969
166.977
166.985
166.989
166.998
167.007
167.017
167.03
167.049
167.384
167.131
167.194
167.201
167.207
167.214
167.222
167.229
167.237
167.245
167.253
167.261
167.269
167.278
167.287
167.296
167.306
167.315
167.325
167.335
167.344
167.354
167.364
167.374
167.384
167.394
167.403
167.413
167.423
167.433
167.442
167.452
167.461
167.471
167.48
167.489
167.498
167.507
167.516
167.524
167.533
167.542
167.551
167.56
167.57
167.581
166.697
166.707
166.717
166.727
166.738
166.748
166.758
166.768
166.778
166.788
166.798
166.808
166.818
166.828
166.838
166.848
166.858
166.868
166.878
166.888
166.899
166.909
166.919
166.93
166.94
166.948
166.931
166.931
166.934
166.939
166.978
166.99
167.001
167.014
167.031
167.057
167.509
167.122
167.205
167.213
167.217
167.223
167.23
167.237
167.244
167.252
167.26
167.268
167.276
167.285
167.293
167.303
167.312
167.321
167.331
167.34
167.35
167.359
167.369
167.378
167.388
167.397
167.407
167.416
167.425
167.435
167.444
167.453
167.462
167.471
167.479
167.488
167.497
167.505
167.514
167.522
167.531
167.54
167.548
167.558
167.567
167.579
166.697
166.707
166.717
166.727
166.737
166.747
166.757
166.768
166.778
166.788
166.798
166.808
166.818
166.827
166.837
166.847
166.857
166.868
166.878
166.888
166.898
166.908
166.919
166.929
166.939
166.945
166.938
166.942
166.949
166.956
166.97
166.982
166.996
167.012
167.034
167.068
167.616
167.115
167.212
167.22
167.222
167.227
167.233
167.239
167.246
167.254
167.261
167.269
167.277
167.286
167.294
167.303
167.313
167.322
167.331
167.34
167.35
167.359
167.368
167.377
167.386
167.395
167.405
167.414
167.422
167.431
167.44
167.449
167.458
167.466
167.475
167.483
167.492
167.5
167.509
167.517
167.526
167.534
167.543
167.552
167.562
167.573
166.696
166.707
166.717
166.727
166.737
166.747
166.757
166.767
166.777
166.787
166.797
166.807
166.817
166.827
166.837
166.847
166.857
166.867
166.877
166.887
166.897
166.908
166.918
166.928
166.938
166.942
167.012
167.032
167.047
167.066
166.967
166.973
166.989
167.008
167.034
167.078
167.708
167.111
167.216
167.226
167.226
167.23
167.234
167.24
167.246
167.253
167.261
167.268
167.276
167.285
167.293
167.302
167.311
167.32
167.329
167.338
167.347
167.356
167.365
167.374
167.383
167.392
167.4
167.409
167.418
167.426
167.435
167.444
167.452
167.46
167.469
167.477
167.486
167.494
167.502
167.511
167.519
167.528
167.537
167.546
167.555
167.567
166.696
166.707
166.717
166.727
166.737
166.747
166.757
166.767
166.777
166.787
166.797
166.807
166.817
166.827
166.837
166.847
166.857
166.867
166.877
166.887
166.897
166.907
166.918
166.928
166.937
166.939
167.114
167.143
167.155
167.181
166.969
166.964
166.983
167.004
167.034
167.085
167.792
167.11
167.221
167.234
167.232
167.233
167.236
167.241
167.247