/*--------------------------------*- C++ -*----------------------------------*\
| =========                 |                                                 |
| \\      /  F ield         | OpenFOAM: The Open Source CFD Toolbox           |
|  \\    /   O peration     | Version:  v2012                                 |
|   \\  /    A nd           | Website:  www.openfoam.com                      |
|    \\/     M anipulation  |                                                 |
\*---------------------------------------------------------------------------*/
FoamFile
{
    version     2.0;
    format      ascii;
    class       volScalarField;
    location    "650/air";
    object      ILambda_4_0;
}
// * * * * * * * * * * * * * * * * * * * * * * * * * * * * * * * * * * * * * //

dimensions      [1 0 -3 0 0 0 0];


internalField   nonuniform List<scalar> 
287104
(
213.317
218.546
219.465
220.842
222.077
223.15
224.096
224.938
225.691
226.37
226.986
227.547
228.062
228.536
228.975
229.382
229.762
230.118
230.452
230.766
231.064
231.346
231.614
231.869
232.113
232.346
232.57
232.785
232.993
233.193
233.386
233.574
233.755
233.931
234.103
234.269
234.432
234.592
234.748
234.9
235.049
235.194
235.337
235.479
235.618
235.755
235.889
236.022
236.152
236.281
236.408
236.534
236.658
236.78
236.9
237.02
237.137
237.253
237.368
237.481
237.592
237.703
237.811
237.919
238.025
238.13
238.234
238.336
238.438
238.538
238.637
238.735
238.833
238.929
239.025
239.12
239.215
239.309
239.404
239.498
239.592
239.688
239.786
239.889
239.998
240.115
240.242
240.407
240.757
242.093
215.866
221.348
222.211
223.597
224.832
225.9
226.838
227.668
228.407
229.071
229.67
230.214
230.709
231.164
231.582
231.969
232.328
232.662
232.974
233.267
233.543
233.803
234.049
234.282
234.504
234.715
234.917
235.11
235.295
235.473
235.644
235.809
235.969
236.123
236.272
236.416
236.557
236.696
236.831
236.962
237.089
237.212
237.333
237.456
237.575
237.69
237.804
237.917
238.027
238.136
238.243
238.349
238.454
238.557
238.659
238.759
238.858
238.955
239.052
239.147
239.241
239.334
239.425
239.516
239.605
239.693
239.78
239.866
239.951
240.035
240.118
240.201
240.282
240.363
240.444
240.524
240.604
240.683
240.763
240.842
240.922
241.003
241.087
241.176
241.273
241.377
241.491
241.652
242.055
243.636
214.371
219.663
220.51
221.857
223.057
224.094
225.005
225.811
226.529
227.173
227.754
228.281
228.761
229.202
229.607
229.981
230.329
230.652
230.954
231.237
231.503
231.753
231.99
232.215
232.429
232.632
232.827
233.012
233.19
233.361
233.525
233.683
233.836
233.984
234.126
234.262
234.396
234.529
234.659
234.783
234.903
235.019
235.134
235.251
235.364
235.474
235.582
235.688
235.792
235.895
235.996
236.096
236.195
236.292
236.387
236.482
236.575
236.667
236.757
236.846
236.934
237.021
237.107
237.192
237.275
237.358
237.439
237.519
237.598
237.676
237.754
237.83
237.906
237.981
238.056
238.13
238.204
238.277
238.351
238.425
238.499
238.575
238.653
238.736
238.828
238.928
239.039
239.201
239.615
241.182
213.582
218.791
219.626
220.951
222.131
223.152
224.048
224.841
225.547
226.181
226.752
227.271
227.744
228.176
228.575
228.942
229.284
229.601
229.897
230.175
230.436
230.682
230.915
231.135
231.345
231.544
231.734
231.916
232.09
232.257
232.417
232.572
232.721
232.865
233.003
233.135
233.265
233.395
233.522
233.642
233.759
233.871
233.982
234.096
234.206
234.312
234.417
234.519
234.62
234.72
234.818
234.915
235.01
235.104
235.197
235.288
235.378
235.467
235.555
235.641
235.727
235.811
235.894
235.976
236.057
236.136
236.215
236.293
236.369
236.445
236.52
236.594
236.668
236.741
236.813
236.885
236.957
237.029
237.101
237.174
237.247
237.322
237.401
237.484
237.577
237.678
237.791
237.955
238.372
239.92
212.851
217.979
218.801
220.105
221.267
222.273
223.155
223.935
224.631
225.254
225.817
226.327
226.792
227.218
227.61
227.972
228.307
228.619
228.911
229.184
229.441
229.683
229.911
230.128
230.334
230.53
230.716
230.895
231.066
231.229
231.386
231.537
231.683
231.824
231.959
232.088
232.213
232.34
232.464
232.581
232.695
232.803
232.91
233.021
233.129
233.231
233.332
233.432
233.529
233.626
233.721
233.814
233.906
233.997
234.086
234.175
234.261
234.347
234.432
234.515
234.597
234.678
234.758
234.837
234.915
234.991
235.067
235.141
235.215
235.288
235.359
235.431
235.501
235.571
235.64
235.709
235.778
235.847
235.916
235.985
236.055
236.128
236.204
236.286
236.375
236.472
236.582
236.74
237.141
238.645
212.127
217.174
217.983
219.268
220.412
221.402
222.27
223.039
223.724
224.338
224.891
225.393
225.851
226.27
226.656
227.012
227.342
227.65
227.937
228.206
228.458
228.696
228.921
229.134
229.337
229.529
229.713
229.888
230.056
230.217
230.371
230.519
230.661
230.799
230.931
231.057
231.179
231.302
231.421
231.535
231.645
231.751
231.854
231.96
232.063
232.161
232.258
232.353
232.447
232.539
232.629
232.718
232.805
232.891
232.976
233.059
233.141
233.221
233.301
233.379
233.455
233.531
233.605
233.678
233.749
233.819
233.888
233.956
234.022
234.087
234.151
234.214
234.276
234.337
234.398
234.457
234.516
234.575
234.632
234.69
234.749
234.809
234.871
234.939
235.013
235.095
235.189
235.321
235.669
237.053
211.415
216.381
217.179
218.444
219.571
220.546
221.401
222.158
222.833
223.437
223.981
224.475
224.925
225.338
225.718
226.069
226.394
226.697
226.98
227.245
227.494
227.729
227.951
228.161
228.36
228.549
228.729
228.902
229.067
229.224
229.375
229.519
229.658
229.791
229.92
230.044
230.163
230.278
230.389
230.498
230.603
230.706
230.804
230.9
230.994
231.085
231.173
231.26
231.344
231.427
231.507
231.585
231.662
231.737
231.811
231.883
231.953
232.022
232.089
232.155
232.219
232.282
232.343
232.403
232.461
232.517
232.571
232.624
232.675
232.724
232.771
232.817
232.861
232.903
232.943
232.982
233.019
233.055
233.09
233.124
233.157
233.19
233.226
233.267
233.314
233.371
233.439
233.537
233.811
234.976
210.714
215.602
216.387
217.633
218.743
219.704
220.547
221.292
221.956
222.548
223.079
223.56
224.001
224.406
224.781
225.127
225.449
225.749
226.03
226.293
226.54
226.773
226.993
227.201
227.397
227.584
227.761
227.931
228.092
228.247
228.394
228.534
228.666
228.793
228.916
229.036
229.147
229.247
229.343
229.44
229.534
229.628
229.717
229.793
229.869
229.947
230.021
230.093
230.162
230.229
230.293
230.354
230.414
230.471
230.526
230.579
230.63
230.678
230.723
230.767
230.808
230.847
230.884
230.918
230.951
230.981
231.009
231.034
231.058
231.079
231.099
231.116
231.131
231.145
231.157
231.167
231.175
231.182
231.189
231.195
231.202
231.21
231.221
231.238
231.265
231.306
231.36
231.437
231.63
232.487
210.025
214.834
215.608
216.835
217.929
218.875
219.706
220.44
221.091
221.663
222.15
222.599
223.019
223.413
223.782
224.128
224.453
224.759
225.047
225.318
225.574
225.815
226.042
226.256
226.457
226.645
226.82
226.986
227.142
227.289
227.428
227.558
227.679
227.792
227.904
228.015
228.116
228.193
228.265
228.345
228.424
228.508
228.586
228.637
228.689
228.749
228.805
228.857
228.906
228.952
228.995
229.036
229.075
229.113
229.149
229.182
229.212
229.241
229.267
229.291
229.314
229.334
229.352
229.369
229.384
229.397
229.408
229.418
229.426
229.433
229.439
229.443
229.446
229.448
229.449
229.449
229.449
229.448
229.448
229.451
229.465
229.481
229.496
229.515
229.546
229.596
229.665
229.755
229.923
230.584
209.347
214.079
214.842
216.05
217.127
218.059
218.877
219.599
220.229
220.738
220.835
220.974
221.215
221.533
221.899
222.29
222.69
223.088
223.475
223.845
224.196
224.526
224.832
225.116
225.376
225.612
225.828
226.025
226.208
226.377
226.535
226.683
226.819
226.941
227.06
227.185
227.295
227.367
227.433
227.516
227.6
227.697
227.787
227.832
227.877
227.94
227.996
228.047
228.093
228.135
228.175
228.212
228.248
228.28
228.309
228.334
228.356
228.374
228.389
228.401
228.411
228.417
228.421
228.423
228.421
228.417
228.411
228.403
228.392
228.379
228.365
228.35
228.332
228.314
228.294
228.274
228.253
228.232
228.214
228.214
228.304
228.397
228.466
228.518
228.569
228.636
228.727
228.852
229.058
229.717
208.68
213.336
214.088
215.278
216.339
217.257
218.063
218.771
219.37
219.674
211.525
209.912
210.25
211.109
212.121
213.146
214.122
215.023
215.839
216.566
217.204
217.757
218.228
218.623
218.949
219.214
219.427
219.596
219.732
219.844
219.94
220.025
220.099
220.166
220.235
220.319
220.394
220.423
220.45
220.508
220.573
220.66
220.748
220.777
220.812
220.877
220.936
220.991
221.042
221.088
221.131
221.169
221.201
221.227
221.245
221.256
221.258
221.253
221.24
221.219
221.19
221.153
221.107
221.053
220.991
220.92
220.842
220.756
220.663
220.563
220.457
220.345
220.227
220.105
219.979
219.849
219.714
219.575
219.429
219.304
222.143
224.332
225.821
226.827
227.506
227.982
228.346
228.68
229.094
230.023
208.024
212.605
213.346
214.518
215.563
216.467
217.261
217.956
218.536
218.778
210.195
208.465
208.799
209.686
210.738
211.807
212.828
213.773
214.63
215.394
216.065
216.645
217.138
217.55
217.886
218.155
218.366
218.528
218.651
218.747
218.824
218.891
218.95
219.008
219.079
219.18
219.281
219.323
219.368
219.464
219.575
219.726
219.888
219.972
220.065
220.209
220.35
220.493
220.639
220.787
220.94
221.094
221.249
221.403
221.556
221.706
221.853
221.997
222.138
222.273
222.402
222.523
222.636
222.738
222.828
222.905
222.968
223.014
223.044
223.055
223.047
223.019
222.972
222.906
222.821
222.717
222.595
222.456
222.301
222.2
224.499
226.265
227.464
228.275
228.822
229.204
229.511
229.85
230.399
231.664
207.378
211.885
212.615
213.77
214.799
215.69
216.472
217.157
217.725
217.953
209.549
207.847
208.169
209.035
210.067
211.117
212.122
213.053
213.897
214.651
215.313
215.885
216.368
216.769
217.094
217.35
217.547
217.692
217.796
217.868
217.92
217.961
217.996
218.029
218.079
218.169
218.258
218.268
218.275
218.347
218.435
218.571
218.724
218.771
218.824
218.943
219.058
219.175
219.295
219.419
219.547
219.676
219.804
219.931
220.058
220.184
220.311
220.438
220.566
220.694
220.823
220.953
221.084
221.216
221.349
221.483
221.618
221.753
221.889
222.025
222.161
222.296
222.43
222.561
222.69
222.814
222.933
223.045
223.151
223.319
225.514
227.137
228.215
228.95
229.471
229.867
230.218
230.646
231.38
233.061
206.743
211.178
211.897
213.034
214.047
214.925
215.696
216.37
216.929
217.151
208.884
207.206
207.52
208.371
209.386
210.42
211.41
212.328
213.161
213.904
214.556
215.119
215.594
215.987
216.305
216.557
216.751
216.893
216.991
217.055
217.095
217.124
217.147
217.171
217.214
217.306
217.399
217.391
217.372
217.434
217.512
217.647
217.807
217.832
217.859
217.967
218.069
218.173
218.281
218.391
218.501
218.606
218.703
218.793
218.879
218.962
219.041
219.116
219.188
219.257
219.322
219.383
219.44
219.494
219.544
219.59
219.632
219.671
219.706
219.738
219.767
219.793
219.816
219.837
219.856
219.873
219.887
219.896
219.893
219.892
222.068
223.638
224.659
225.356
225.865
226.277
226.671
227.153
227.903
229.359
206.119
210.481
211.19
212.309
213.307
214.172
214.931
215.596
216.146
216.365
208.229
206.578
206.886
207.724
208.723
209.741
210.715
211.619
212.439
213.172
213.815
214.368
214.836
215.222
215.534
215.783
215.976
216.12
216.22
216.282
216.316
216.335
216.349
216.366
216.407
216.504
216.608
216.59
216.554
216.614
216.69
216.832
217.01
217.027
217.041
217.151
217.257
217.37
217.488
217.606
217.719
217.824
217.924
218.021
218.118
218.214
218.307
218.396
218.482
218.563
218.638
218.709
218.776
218.841
218.902
218.96
219.016
219.068
219.117
219.163
219.204
219.242
219.276
219.305
219.329
219.348
219.361
219.364
219.351
219.329
221.4
222.877
223.818
224.442
224.88
225.225
225.56
225.987
226.68
228.152
205.504
209.795
210.494
211.596
212.579
213.431
214.179
214.833
215.375
215.591
207.586
205.96
206.264
207.089
208.073
209.075
210.035
210.925
211.733
212.454
213.087
213.632
214.092
214.47
214.777
215.021
215.215
215.364
215.47
215.535
215.567
215.578
215.582
215.591
215.629
215.734
215.849
215.827
215.779
215.839
215.917
216.068
216.267
216.282
216.289
216.408
216.529
216.661
216.798
216.929
217.048
217.157
217.262
217.369
217.48
217.591
217.7
217.807
217.911
218.014
218.114
218.214
218.313
218.412
218.511
218.61
218.709
218.81
218.911
219.014
219.119
219.226
219.335
219.446
219.56
219.677
219.797
219.92
220.049
220.244
222.346
223.866
224.85
225.51
225.982
226.364
226.739
227.207
227.979
229.737
204.899
209.12
209.808
210.894
211.862
212.701
213.437
214.082
214.616
214.83
206.951
205.352
205.653
206.465
207.435
208.422
209.368
210.245
211.041
211.751
212.374
212.91
213.361
213.732
214.03
214.269
214.461
214.615
214.731
214.807
214.842
214.848
214.842
214.841
214.875
214.983
215.111
215.088
215.03
215.09
215.171
215.329
215.548
215.566
215.571
215.704
215.848
216.005
216.162
216.304
216.426
216.536
216.645
216.762
216.885
217.01
217.133
217.254
217.372
217.49
217.607
217.724
217.841
217.959
218.077
218.196
218.317
218.438
218.561
218.684
218.809
218.933
219.057
219.181
219.302
219.42
219.534
219.643
219.747
219.912
221.956
223.435
224.382
224.993
225.403
225.707
225.979
226.318
226.939
228.449
204.304
208.456
209.134
210.203
211.156
211.983
212.708
213.343
213.87
214.083
206.333
204.763
205.061
205.862
206.817
207.789
208.72
209.582
210.364
211.061
211.671
212.195
212.635
212.994
213.281
213.508
213.693
213.846
213.969
214.055
214.097
214.101
214.082
214.064
214.081
214.182
214.312
214.283
214.209
214.262
214.338
214.495
214.725
214.746
214.751
214.902
215.07
215.25
215.42
215.559
215.669
215.766
215.866
215.977
216.094
216.211
216.322
216.428
216.53
216.628
216.723
216.816
216.906
216.994
217.079
217.16
217.239
217.314
217.384
217.45
217.51
217.564
217.611
217.649
217.678
217.697
217.703
217.695
217.669
217.682
219.695
221.151
222.077
222.672
223.066
223.348
223.579
223.841
224.307
225.482
203.719
207.803
208.472
209.525
210.463
211.277
211.991
212.617
213.139
213.357
205.74
204.207
204.507
205.299
206.239
207.195
208.107
208.947
209.705
210.374
210.953
211.442
211.844
212.163
212.408
212.593
212.738
212.858
212.961
213.036
213.07
213.057
213.01
212.955
212.932
212.999
213.108
213.059
212.959
212.995
213.061
213.212
213.454
213.49
213.515
213.703
213.915
214.133
214.321
214.462
214.564
214.652
214.744
214.844
214.943
215.033
215.109
215.173
215.226
215.27
215.307
215.337
215.361
215.38
215.394
215.402
215.406
215.405
215.398
215.386
215.367
215.343
215.312
215.274
215.228
215.173
215.108
215.018
214.893
214.747
216.815
218.367
219.402
220.107
220.601
220.962
221.244
221.512
221.901
222.87
203.145
207.162
207.821
208.858
209.782
210.583
211.287
211.906
212.429
212.686
205.305
203.843
204.148
204.919
205.82
206.717
207.551
208.293
208.933
209.47
209.907
210.251
210.512
210.7
210.829
210.912
210.972
211.026
211.085
211.138
211.164
211.146
211.086
211.007
210.953
210.99
211.082
211.022
210.909
210.932
210.989
211.133
211.383
211.447
211.511
211.757
212.036
212.315
212.552
212.731
212.871
212.999
213.128
213.254
213.362
213.443
213.486
213.496
213.482
213.451
213.41
213.36
213.307
213.25
213.192
213.132
213.07
213.008
212.943
212.877
212.809
212.739
212.666
212.591
212.512
212.429
212.341
212.242
212.124
211.997
214.436
216.304
217.576
218.45
219.057
219.484
219.798
220.057
220.367
221.171
202.581
206.531
207.181
208.202
209.112
209.9
210.593
211.205
211.739
212.165
212.024
212.202
212.527
212.883
213.241
213.587
213.913
214.219
214.501
214.762
215.001
215.219
215.418
215.596
215.755
215.897
216.036
216.187
216.36
216.547
216.715
216.832
216.884
216.89
216.905
217.02
217.205
217.2
217.108
217.158
217.216
217.336
217.56
217.529
217.473
217.624
217.795
217.936
218.009
218.02
218.011
218.025
218.072
218.14
218.209
218.269
218.318
218.357
218.389
218.416
218.437
218.454
218.468
218.477
218.484
218.489
218.491
218.491
218.489
218.485
218.48
218.474
218.466
218.458
218.448
218.437
218.424
218.411
218.399
218.402
218.597
218.771
218.902
219.002
219.08
219.145
219.207
219.282
219.44
220.099
202.023
205.908
206.548
207.553
208.449
209.226
209.909
210.513
211.05
211.522
211.975
212.362
212.717
213.048
213.356
213.643
213.911
214.161
214.396
214.616
214.822
215.017
215.201
215.372
215.528
215.671
215.809
215.956
216.129
216.328
216.527
216.684
216.774
216.801
216.817
216.924
217.112
217.117
217.029
217.08
217.131
217.236
217.454
217.422
217.363
217.517
217.675
217.78
217.806
217.778
217.752
217.763
217.814
217.885
217.956
218.018
218.072
218.121
218.166
218.208
218.247
218.281
218.312
218.34
218.365
218.386
218.405
218.421
218.435
218.446
218.455
218.463
218.468
218.473
218.476
218.477
218.478
218.477
218.477
218.481
218.479
218.486
218.499
218.516
218.536
218.561
218.593
218.642
218.793
219.492
201.47
205.29
205.921
206.91
207.793
208.557
209.23
209.826
210.357
210.832
211.263
211.653
212.01
212.339
212.644
212.926
213.189
213.435
213.665
213.881
214.084
214.276
214.458
214.63
214.79
214.936
215.071
215.208
215.367
215.557
215.763
215.945
216.065
216.113
216.13
216.22
216.396
216.399
216.306
216.352
216.391
216.475
216.694
216.675
216.632
216.798
216.951
217.035
217.044
217.019
217.018
217.064
217.147
217.24
217.329
217.408
217.48
217.549
217.613
217.673
217.73
217.781
217.829
217.873
217.913
217.949
217.982
218.012
218.039
218.062
218.083
218.102
218.119
218.134
218.147
218.159
218.169
218.179
218.188
218.197
218.207
218.222
218.241
218.266
218.294
218.325
218.362
218.42
218.61
219.462
200.92
204.675
205.297
206.271
207.139
207.892
208.554
209.142
209.666
210.137
210.562
210.949
211.303
211.629
211.929
212.208
212.468
212.71
212.937
213.151
213.351
213.541
213.722
213.895
214.059
214.212
214.352
214.485
214.63
214.804
215.002
215.193
215.336
215.406
215.428
215.506
215.665
215.661
215.58
215.612
215.625
215.674
215.853
215.834
215.791
215.945
216.07
216.12
216.107
216.085
216.101
216.163
216.25
216.339
216.421
216.496
216.567
216.635
216.699
216.758
216.811
216.858
216.9
216.938
216.97
216.997
217.021
217.04
217.057
217.07
217.082
217.092
217.101
217.109
217.117
217.126
217.136
217.147
217.16
217.174
217.192
217.215
217.246
217.283
217.326
217.374
217.428
217.51
217.737
218.625
200.374
204.063
204.677
205.636
206.49
207.232
207.883
208.462
208.978
209.442
209.863
210.245
210.595
210.916
211.213
211.489
211.746
211.986
212.211
212.422
212.62
212.808
212.987
213.16
213.329
213.492
213.645
213.787
213.929
214.089
214.273
214.462
214.616
214.7
214.728
214.796
214.939
214.927
214.765
214.752
214.702
214.671
214.843
214.784
214.698
214.801
214.868
214.863
214.815
214.778
214.782
214.817
214.86
214.897
214.927
214.954
214.98
215.003
215.021
215.034
215.042
215.048
215.051
215.054
215.057
215.06
215.065
215.071
215.08
215.091
215.105
215.122
215.143
215.166
215.193
215.223
215.257
215.294
215.333
215.376
215.424
215.476
215.536
215.601
215.673
215.75
215.834
215.953
216.21
217.032
199.834
203.46
204.064
205.008
205.849
206.579
207.221
207.79
208.299
208.757
209.171
209.548
209.893
210.211
210.505
210.777
211.032
211.269
211.493
211.702
211.9
212.085
212.261
212.432
212.604
212.777
212.948
213.111
213.266
213.424
213.598
213.78
213.936
214.025
214.05
214.106
214.239
214.215
214.307
214.173
213.907
213.627
213.267
213.014
212.781
212.746
212.686
212.57
212.435
212.328
212.263
212.217
212.175
212.14
212.119
212.118
212.134
212.159
212.191
212.228
212.27
212.317
212.368
212.423
212.482
212.543
212.607
212.673
212.741
212.811
212.882
212.954
213.027
213.102
213.177
213.254
213.332
213.412
213.492
213.574
213.658
213.745
213.835
213.93
214.027
214.129
214.241
214.388
214.656
215.39
199.309
202.872
203.468
204.397
205.226
205.944
206.576
207.137
207.638
208.089
208.498
208.87
209.211
209.525
209.815
210.085
210.337
210.573
210.794
211.003
211.2
211.384
211.559
211.727
211.896
212.072
212.258
212.445
212.625
212.799
212.976
213.157
213.317
213.411
213.432
213.474
213.6
213.527
212.234
211.501
210.573
209.703
209.98
209.512
209.102
208.978
208.886
208.788
208.714
208.689
208.703
208.742
208.8
208.883
208.997
209.134
209.284
209.437
209.588
209.736
209.881
210.023
210.162
210.298
210.431
210.561
210.688
210.812
210.934
211.053
211.17
211.285
211.398
211.508
211.617
211.725
211.831
211.937
212.043
212.149
212.256
212.364
212.474
212.585
212.699
212.818
212.948
213.112
213.379
214.047
198.813
202.318
202.905
203.821
204.637
205.344
205.967
206.52
207.014
207.459
207.862
208.229
208.566
208.877
209.164
209.431
209.681
209.916
210.136
210.345
210.541
210.727
210.901
211.067
211.23
211.402
211.589
211.79
211.994
212.193
212.385
212.577
212.754
212.871
212.906
212.94
213.066
212.889
214.112
211.949
209.724
208.235
205.27
204.792
204.695
204.915
205.165
205.404
205.649
205.902
206.151
206.388
206.622
206.866
207.12
207.375
207.621
207.852
208.067
208.269
208.459
208.641
208.812
208.977
209.134
209.287
209.434
209.578
209.717
209.852
209.984
210.113
210.239
210.362
210.483
210.602
210.719
210.836
210.952
211.068
211.185
211.301
211.418
211.535
211.654
211.781
211.925
212.102
212.366
212.989
198.368
201.819
202.4
203.303
204.107
204.805
205.42
205.965
206.452
206.892
207.29
207.653
207.986
208.293
208.578
208.844
209.092
209.326
209.546
209.755
209.952
210.14
210.316
210.483
210.642
210.804
210.981
211.176
211.388
211.604
211.814
212.022
212.227
212.395
212.487
212.549
212.674
212.07
205.87
202.107
199.988
199.13
200.952
201.431
201.887
202.597
203.24
203.807
204.313
204.759
205.14
205.471
205.776
206.07
206.355
206.623
206.868
207.088
207.29
207.48
207.662
207.836
208.004
208.168
208.326
208.479
208.629
208.774
208.914
209.051
209.184
209.313
209.44
209.564
209.685
209.805
209.923
210.04
210.157
210.275
210.392
210.509
210.626
210.743
210.863
210.992
211.14
211.318
211.579
212.174
197.997
201.404
201.978
202.871
203.667
204.357
204.965
205.504
205.986
206.42
206.814
207.173
207.503
207.807
208.09
208.354
208.601
208.834
209.055
209.264
209.464
209.655
209.835
210.006
210.166
210.322
210.484
210.661
210.861
211.075
211.293
211.513
211.742
211.968
212.148
212.266
212.399
211.365
190.364
186.67
185.395
185.066
199.099
200.542
200.983
201.725
202.399
203.022
203.592
204.094
204.527
204.91
205.262
205.585
205.879
206.144
206.383
206.602
206.804
206.995
207.178
207.353
207.521
207.683
207.84
207.992
208.138
208.28
208.416
208.549
208.677
208.803
208.926
209.047
209.165
209.282
209.397
209.512
209.626
209.741
209.856
209.971
210.085
210.2
210.319
210.449
210.598
210.775
211.027
211.605
197.72
201.094
201.664
202.55
203.34
204.025
204.629
205.164
205.644
206.076
206.467
206.824
207.152
207.454
207.735
207.997
208.242
208.474
208.695
208.905
209.106
209.299
209.484
209.66
209.825
209.981
210.136
210.3
210.482
210.686
210.903
211.128
211.373
211.645
211.907
212.075
212.235
210.912
178.001
174.568
174.031
174.065
198.19
200.372
200.688
201.34
201.927
202.501
203.045
203.538
203.984
204.396
204.779
205.135
205.463
205.76
206.03
206.279
206.511
206.726
206.928
207.117
207.295
207.463
207.622
207.772
207.916
208.054
208.186
208.314
208.439
208.561
208.681
208.799
208.915
209.03
209.143
209.256
209.368
209.481
209.594
209.708
209.821
209.936
210.057
210.19
210.342
210.521
210.769
211.333
197.545
200.898
201.466
202.347
203.134
203.817
204.42
204.956
205.436
205.869
206.263
206.622
206.951
207.255
207.536
207.798
208.044
208.275
208.494
208.703
208.905
209.099
209.286
209.464
209.633
209.793
209.951
210.112
210.29
210.492
210.709
210.939
211.182
211.473
211.771
211.913
212.06
210.688
173.118
169.831
169.64
169.872
198.382
200.859
201.029
201.52
201.933
202.365
202.802
203.221
203.627
204.026
204.418
204.801
205.165
205.506
205.824
206.121
206.406
206.66
206.89
207.101
207.294
207.472
207.637
207.792
207.938
208.077
208.211
208.341
208.468
208.593
208.716
208.837
208.955
209.072
209.187
209.301
209.415
209.529
209.644
209.759
209.875
209.994
210.12
210.26
210.42
210.608
210.866
211.436
197.464
200.807
201.373
202.253
203.038
203.72
204.323
204.86
205.342
205.779
206.177
206.541
206.876
207.186
207.473
207.741
207.991
208.227
208.449
208.661
208.865
209.061
209.251
209.433
209.604
209.766
209.921
210.081
210.26
210.465
210.688
210.906
211.291
211.561
211.82
211.804
211.873
210.791
172.592
169.458
169.493
170.017
203.756
205.806
204.953
204.535
204.166
204.004
203.998
204.094
204.271
204.515
204.807
205.129
205.461
205.789
206.106
206.42
206.591
206.857
207.098
207.316
207.516
207.701
207.874
208.036
208.192
208.341
208.487
208.629
208.769
208.907
209.042
209.175
209.306
209.436
209.564
209.691
209.817
209.944
210.071
210.198
210.327
210.46
210.6
210.755
210.93
211.137
211.411
211.997
197.454
200.795
201.36
202.239
203.022
203.703
204.305
204.841
205.323
205.76
206.159
206.527
206.866
207.182
207.476
207.752
208.012
208.257
208.49
208.712
208.926
209.133
209.334
209.528
209.711
209.88
210.051
210.204
210.365
210.545
210.719
210.882
211.175
211.297
211.354
211.066
211.212
210.252
172.937
169.89
170.035
170.859
207.558
210.317
209.385
208.77
208.082
207.561
207.158
206.843
206.621
206.499
206.468
206.51
206.607
206.741
206.903
207.099
207.179
207.381
207.576
207.766
207.952
208.135
208.316
208.495
208.672
208.847
209.019
209.189
209.356
209.519
209.676
209.83
209.982
210.131
210.279
210.425
210.57
210.716
210.863
211.012
211.165
211.323
211.49
211.671
211.874
212.118
212.452
213.145
197.482
200.826
201.392
202.27
203.053
203.733
204.333
204.866
205.345
205.779
206.174
206.538
206.876
207.19
207.485
207.764
208.028
208.28
208.522
208.756
208.983
209.207
209.426
209.642
209.848
210.037
210.146
210.28
210.395
210.496
210.624
210.626
210.667
210.41
210.001
209.558
210.5
209.813
171.711
168.482
168.664
169.742
208.445
211.599
210.06
209.461
208.961
208.664
208.438
208.232
208.045
207.887
207.767
207.689
207.656
207.667
207.721
207.829
207.834
207.982
208.14
208.308
208.488
208.678
208.874
209.076
209.281
209.489
209.7
209.912
210.124
210.335
210.545
210.752
210.959
211.165
211.369
211.568
211.769
211.979
212.198
212.425
212.66
212.902
213.154
213.42
213.71
214.049
214.513
215.456
197.519
200.867
201.434
202.313
203.097
203.777
204.377
204.909
205.387
205.818
206.21
206.57
206.903
207.213
207.504
207.779
208.041
208.292
208.535
208.771
209.004
209.235
209.466
209.697
209.922
210.128
210.526
210.619
210.603
210.507
210.093
209.79
209.484
208.766
207.821
207.495
209.535
209.048
175.597
172.506
172.643
173.947
210.562
214.661
212.442
211.61
210.629
209.775
209.128
208.684
208.397
208.214
208.099
208.035
208.019
208.05
208.129
208.267
208.314
208.51
208.721
208.948
209.191
209.445
209.708
209.99
210.287
210.597
210.917
211.241
211.567
211.891
212.209
212.521
212.818
213.098
213.362
213.61
213.834
214.024
214.183
214.318
214.436
214.544
214.651
214.769
214.915
215.119
215.458
216.262
197.544
200.896
201.463
202.343
203.128
203.81
204.411
204.945
205.423
205.855
206.249
206.609
206.942
207.251
207.542
207.816
208.077
208.328
208.571
208.808
209.042
209.278
209.516
209.755
209.987
210.173
209.324
209.07
208.654
208.131
208.44
207.921
207.444
206.693
205.718
204.234
210.432
213.312
211.246
210.11
209.249
208.683
208.359
208.205
208.197
208.287
208.447
208.666
208.931
209.252
209.469
209.834
210.204
210.575
210.935
211.285
211.607
211.883
212.115
212.311
212.478
212.622
212.744
212.849
212.94
213.017
213.083
213.139
213.187
213.229
213.265
213.297
213.328
213.361
213.399
213.446
213.506
213.588
213.703
213.875
214.15
214.791
197.551
200.903
201.47
202.351
203.136
203.818
204.419
204.954
205.434
205.867
206.262
206.624
206.959
207.271
207.563
207.84
208.104
208.359
208.606
208.849
209.09
209.335
209.584
209.835
210.074
210.206
212.35
211.323
209.914
208.81
205.705
205.182
205.177
205.199
205.416
204.464
209.473
213.474
211.828
210.807
210.057
209.55
209.25
209.124
209.164
209.338
209.576
209.892
210.18
210.444
210.529
210.726
210.893
211.036
211.161
211.271
211.365
211.444
211.51
211.568
211.619
211.664
211.705
211.742
211.775
211.807
211.838
211.868
211.898
211.928
211.961
211.996
212.036
212.082
212.136
212.2
212.277
212.373
212.5
212.67
212.912
213.466
197.542
200.893
201.46
202.34
203.125
203.806
204.407
204.941
205.421
205.854
206.249
206.611
206.946
207.258
207.551
207.829
208.095
208.351
208.602
208.849
209.098
209.35
209.611
209.873
210.079
209.824
205.357
202.6
200.952
200.364
202.281
202.844
203.613
204.462
205.55
205.223
209.275
213.435
211.981
211.045
210.339
209.83
209.49
209.312
209.274
209.336
209.458
209.642
209.805
209.945
209.919
210.007
210.073
210.128
210.176
210.223
210.269
210.312
210.356
210.4
210.445
210.491
210.536
210.579
210.622
210.665
210.71
210.755
210.802
210.85
210.9
210.953
211.011
211.074
211.145
211.223
211.313
211.423
211.559
211.726
211.947
212.46
197.525
200.874
201.441
202.32
203.104
203.785
204.386
204.92
205.399
205.831
206.226
206.588
206.922
207.234
207.528
207.806
208.072
208.33
208.582
208.832
209.083
209.338
209.6
209.852
209.983
209.262
189.604
186.455
185.461
185.385
200.488
202.196
203.132
204.251
205.693
205.76
209.235
213.393
211.942
210.894
210.068
209.448
209.021
208.77
208.66
208.65
208.721
208.827
208.93
209.034
208.993
209.065
209.121
209.167
209.21
209.254
209.298
209.343
209.389
209.438
209.488
209.539
209.591
209.643
209.697
209.752
209.809
209.867
209.927
209.989
210.053
210.12
210.19
210.265
210.345
210.433
210.532
210.649
210.786
210.942
211.15
211.652
197.509
200.856
201.422
202.302
203.085
203.766
204.366
204.899
205.378
205.81
206.204
206.566
206.9
207.212
207.504
207.782
208.048
208.305
208.557
208.807
209.058
209.312
209.569
209.804
209.857
208.723
176.49
173.226
172.853
173.142
199.279
201.889
202.82
203.946
205.393
205.545
209.372
213.62
212.101
211.096
210.214
209.497
208.975
208.651
208.478
208.416
208.421
208.457
208.51
208.584
208.527
208.586
208.631
208.667
208.697
208.729
208.762
208.796
208.833
208.873
208.916
208.961
209.008
209.059
209.112
209.167
209.226
209.286
209.349
209.415
209.483
209.554
209.627
209.705
209.788
209.878
209.981
210.099
210.23
210.374
210.568
211.055
197.498
200.844
201.41
202.289
203.073
203.754
204.354
204.887
205.365
205.797
206.191
206.552
206.886
207.197
207.488
207.765
208.029
208.284
208.533
208.779
209.027
209.277
209.526
209.741
209.742
208.404
170.889
167.58
167.503
168.005
199.038
202.013
202.804
203.702
204.825
204.698
209.843
214.438
212.855