/*--------------------------------*- C++ -*----------------------------------*\
| =========                 |                                                 |
| \\      /  F ield         | OpenFOAM: The Open Source CFD Toolbox           |
|  \\    /   O peration     | Version:  v2012                                 |
|   \\  /    A nd           | Website:  www.openfoam.com                      |
|    \\/     M anipulation  |                                                 |
\*---------------------------------------------------------------------------*/
FoamFile
{
    version     2.0;
    format      ascii;
    class       volScalarField;
    location    "650/air";
    object      ILambda_33_0;
}
// * * * * * * * * * * * * * * * * * * * * * * * * * * * * * * * * * * * * * //

dimensions      [1 0 -3 0 0 0 0];


internalField   nonuniform List<scalar> 
287104
(
214.342
216.411
217.904
219.209
220.344
221.34
222.222
223.01
223.718
224.359
224.942
225.476
225.967
226.42
226.841
227.233
227.6
227.944
228.268
228.574
228.864
229.139
229.402
229.652
229.892
230.122
230.344
230.557
230.762
230.961
231.153
231.34
231.521
231.697
231.868
232.035
232.198
232.359
232.515
232.668
232.818
232.964
233.109
233.252
233.392
233.53
233.666
233.8
233.932
234.063
234.191
234.318
234.443
234.567
234.689
234.81
234.928
235.046
235.162
235.276
235.389
235.501
235.611
235.72
235.827
235.933
236.038
236.142
236.245
236.346
236.446
236.546
236.644
236.742
236.839
236.936
237.032
237.128
237.224
237.321
237.418
237.512
237.593
237.658
237.759
238.094
239.021
240.321
238.038
217.612
219.491
221.664
223.21
224.554
225.716
226.731
227.624
228.417
229.126
229.763
230.34
230.865
231.345
231.785
232.191
232.567
232.917
233.242
233.547
233.834
234.103
234.358
234.599
234.828
235.046
235.254
235.453
235.643
235.826
236.001
236.17
236.334
236.491
236.644
236.791
236.934
237.074
237.212
237.346
237.475
237.601
237.723
237.845
237.967
238.085
238.2
238.313
238.425
238.535
238.644
238.751
238.856
238.96
239.063
239.164
239.264
239.363
239.46
239.557
239.651
239.745
239.838
239.929
240.019
240.108
240.196
240.283
240.368
240.453
240.537
240.62
240.702
240.784
240.865
240.945
241.025
241.104
241.186
241.269
241.355
241.438
241.503
241.531
241.529
241.617
242.126
243.493
245.161
242.084
218.717
217.447
219.543
221.038
222.337
223.46
224.441
225.304
226.071
226.755
227.371
227.928
228.435
228.897
229.322
229.714
230.076
230.413
230.727
231.02
231.296
231.555
231.8
232.032
232.252
232.461
232.661
232.851
233.034
233.209
233.377
233.538
233.695
233.845
233.99
234.13
234.265
234.399
234.531
234.659
234.781
234.9
235.016
235.131
235.247
235.359
235.468
235.575
235.681
235.784
235.887
235.988
236.087
236.185
236.282
236.377
236.471
236.564
236.655
236.745
236.834
236.922
237.009
237.094
237.179
237.262
237.344
237.425
237.505
237.583
237.662
237.739
237.815
237.891
237.966
238.04
238.113
238.187
238.263
238.343
238.426
238.503
238.557
238.568
238.549
238.627
239.132
240.48
242.141
239.333
217.114
216.523
218.582
220.051
221.328
222.432
223.396
224.245
224.998
225.671
226.277
226.824
227.322
227.777
228.194
228.579
228.935
229.265
229.573
229.862
230.132
230.387
230.627
230.854
231.07
231.275
231.471
231.658
231.836
232.007
232.171
232.33
232.482
232.629
232.771
232.906
233.038
233.168
233.297
233.421
233.54
233.655
233.767
233.879
233.992
234.101
234.206
234.31
234.413
234.513
234.613
234.71
234.807
234.902
234.995
235.088
235.179
235.269
235.357
235.445
235.531
235.616
235.7
235.783
235.864
235.945
236.024
236.103
236.18
236.257
236.332
236.407
236.481
236.555
236.627
236.699
236.771
236.843
236.917
236.996
237.078
237.155
237.21
237.223
237.208
237.284
237.769
239.068
240.684
237.968
216.253
215.76
217.787
219.234
220.492
221.579
222.527
223.363
224.105
224.768
225.364
225.903
226.393
226.84
227.251
227.63
227.98
228.305
228.608
228.892
229.158
229.408
229.644
229.868
230.08
230.281
230.473
230.657
230.832
231
231.161
231.316
231.465
231.609
231.747
231.879
232.007
232.134
232.26
232.381
232.496
232.608
232.716
232.825
232.935
233.041
233.143
233.244
233.343
233.44
233.536
233.631
233.724
233.816
233.906
233.995
234.083
234.17
234.255
234.34
234.423
234.505
234.586
234.665
234.744
234.822
234.898
234.973
235.048
235.121
235.194
235.265
235.336
235.407
235.476
235.545
235.613
235.682
235.754
235.83
235.908
235.983
236.036
236.05
236.036
236.111
236.584
237.852
239.428
236.739
215.356
214.991
216.985
218.411
219.649
220.719
221.654
222.477
223.207
223.86
224.447
224.977
225.459
225.9
226.304
226.676
227.021
227.341
227.64
227.919
228.181
228.427
228.659
228.879
229.088
229.286
229.475
229.655
229.827
229.992
230.15
230.302
230.448
230.588
230.724
230.853
230.978
231.101
231.223
231.34
231.452
231.561
231.666
231.77
231.875
231.977
232.075
232.171
232.266
232.359
232.451
232.541
232.63
232.717
232.802
232.886
232.969
233.051
233.132
233.211
233.289
233.365
233.44
233.514
233.587
233.658
233.728
233.796
233.864
233.93
233.995
234.06
234.123
234.185
234.245
234.305
234.364
234.423
234.484
234.549
234.616
234.678
234.719
234.721
234.696
234.757
235.21
236.442
237.96
235.242
214.065
214.233
216.195
217.599
218.819
219.873
220.793
221.604
222.324
222.966
223.543
224.065
224.539
224.973
225.37
225.737
226.077
226.393
226.687
226.962
227.22
227.463
227.692
227.909
228.114
228.309
228.495
228.672
228.841
229.003
229.158
229.306
229.448
229.585
229.716
229.844
229.966
230.083
230.197
230.307
230.415
230.519
230.621
230.718
230.814
230.907
230.997
231.085
231.171
231.255
231.337
231.417
231.495
231.572
231.647
231.72
231.792
231.863
231.931
231.999
232.064
232.129
232.191
232.252
232.311
232.369
232.425
232.479
232.532
232.582
232.632
232.679
232.725
232.768
232.81
232.85
232.888
232.925
232.964
233.005
233.047
233.083
233.098
233.074
233.024
233.061
233.487
234.681
236.13
233.31
212.104
213.488
215.419
216.802
218.003
219.041
219.948
220.747
221.455
222.086
222.651
223.159
223.622
224.048
224.439
224.801
225.137
225.449
225.74
226.013
226.269
226.51
226.738
226.952
227.155
227.348
227.53
227.704
227.871
228.029
228.181
228.325
228.462
228.593
228.718
228.84
228.957
229.064
229.162
229.259
229.356
229.45
229.542
229.627
229.703
229.78
229.857
229.931
230.002
230.071
230.137
230.2
230.262
230.321
230.378
230.433
230.485
230.535
230.583
230.628
230.671
230.712
230.751
230.787
230.822
230.854
230.883
230.911
230.936
230.96
230.981
231
231.017
231.032
231.045
231.056
231.065
231.074
231.083
231.096
231.111
231.121
231.11
231.06
230.988
231.011
231.431
232.613
233.997
230.955
209.27
212.754
214.655
216.016
217.199
218.222
219.116
219.903
220.6
221.215
221.752
222.223
222.66
223.07
223.453
223.812
224.148
224.464
224.761
225.041
225.304
225.553
225.787
226.008
226.216
226.411
226.593
226.764
226.926
227.078
227.222
227.356
227.482
227.601
227.714
227.826
227.933
228.024
228.098
228.174
228.256
228.337
228.418
228.485
228.536
228.592
228.651
228.706
228.757
228.805
228.85
228.892
228.933
228.972
229.01
229.044
229.077
229.107
229.135
229.16
229.184
229.206
229.226
229.244
229.26
229.274
229.287
229.298
229.307
229.315
229.321
229.326
229.33
229.333
229.335
229.335
229.334
229.333
229.334
229.341
229.356
229.372
229.365
229.318
229.249
229.283
229.723
230.919
232.267
229.083
207.194
212.033
213.903
215.245
216.41
217.418
218.297
219.07
219.751
220.327
220.723
220.844
221.032
221.31
221.648
222.022
222.412
222.806
223.194
223.569
223.927
224.265
224.581
224.875
225.146
225.394
225.62
225.827
226.017
226.193
226.358
226.511
226.653
226.784
226.906
227.027
227.145
227.239
227.307
227.38
227.466
227.556
227.649
227.721
227.763
227.816
227.877
227.93
227.979
228.024
228.065
228.103
228.14
228.174
228.205
228.232
228.256
228.276
228.293
228.308
228.319
228.328
228.334
228.337
228.337
228.335
228.331
228.325
228.316
228.305
228.293
228.279
228.264
228.247
228.228
228.208
228.188
228.169
228.155
228.152
228.179
228.258
228.306
228.295
228.25
228.302
228.758
229.964
231.314
228.189
206.681
211.324
213.162
214.479
215.62
216.616
217.525
218.399
219.143
219.11
216.615
210.435
210.186
210.766
211.691
212.698
213.689
214.619
215.472
216.239
216.919
217.513
218.025
218.46
218.822
219.12
219.361
219.554
219.71
219.837
219.943
220.035
220.117
220.19
220.26
220.337
220.418
220.474
220.501
220.541
220.606
220.681
220.767
220.832
220.861
220.907
220.972
221.028
221.081
221.129
221.173
221.213
221.248
221.277
221.3
221.314
221.321
221.32
221.311
221.295
221.27
221.238
221.197
221.148
221.091
221.026
220.953
220.872
220.784
220.69
220.589
220.482
220.37
220.254
220.135
220.01
219.867
219.688
219.494
219.509
220.445
223.193
224.957
226.126
226.866
227.43
228.212
229.625
231.153
228.366
207.782
210.627
212.432
213.725
214.843
215.826
216.745
217.654
218.41
218.242
215.345
208.689
208.419
209.027
210.007
211.077
212.131
213.122
214.03
214.848
215.572
216.204
216.747
217.204
217.582
217.888
218.131
218.32
218.464
218.575
218.662
218.734
218.797
218.855
218.92
219.005
219.104
219.18
219.219
219.283
219.39
219.518
219.669
219.8
219.882
219.994
220.139
220.278
220.42
220.565
220.712
220.863
221.015
221.167
221.317
221.465
221.61
221.752
221.891
222.025
222.154
222.275
222.389
222.492
222.585
222.665
222.732
222.783
222.818
222.835
222.834
222.814
222.775
222.72
222.647
222.553
222.421
222.234
222.023
222.019
222.853
225.164
226.631
227.596
228.198
228.662
229.362
230.722
232.287
229.791
210.055
209.941
211.715
212.987
214.087
215.055
215.963
216.864
217.613
217.453
214.62
208.105
207.828
208.418
209.375
210.424
211.459
212.434
213.329
214.135
214.85
215.473
216.006
216.453
216.821
217.116
217.346
217.52
217.647
217.736
217.799
217.846
217.883
217.918
217.962
218.03
218.119
218.176
218.181
218.214
218.301
218.412
218.552
218.666
218.711
218.792
218.915
219.031
219.15
219.274
219.401
219.531
219.661
219.791
219.919
220.048
220.176
220.305
220.434
220.563
220.693
220.824
220.955
221.088
221.221
221.354
221.488
221.623
221.757
221.891
222.025
222.158
222.29
222.422
222.553
222.676
222.778
222.842
222.895
223.129
224.065
226.201
227.525
228.381
228.925
229.372
230.081
231.474
233.154
230.995
212.038
209.265
211.01
212.263
213.346
214.299
215.193
216.078
216.814
216.658
213.879
207.473
207.197
207.775
208.716
209.747
210.766
211.726
212.607
213.402
214.106
214.719
215.243
215.682
216.043
216.332
216.558
216.728
216.85
216.932
216.985
217.019
217.044
217.067
217.103
217.168
217.258
217.31
217.292
217.304
217.382
217.486
217.627
217.736
217.755
217.814
217.926
218.027
218.134
218.243
218.354
218.462
218.564
218.659
218.748
218.833
218.915
218.994
219.069
219.141
219.21
219.275
219.336
219.394
219.448
219.499
219.546
219.59
219.63
219.667
219.701
219.732
219.762
219.791
219.82
219.844
219.851
219.822
219.78
219.903
220.72
222.831
224.093
224.899
225.417
225.864
226.595
228.026
229.741
227.614
208.81
208.601
210.316
211.551
212.617
213.556
214.436
215.307
216.031
215.878
213.143
206.84
206.568
207.136
208.062
209.077
210.08
211.025
211.893
212.676
213.37
213.974
214.49
214.922
215.275
215.56
215.784
215.955
216.079
216.161
216.21
216.235
216.25
216.266
216.297
216.364
216.462
216.515
216.483
216.483
216.561
216.668
216.819
216.936
216.943
216.994
217.11
217.217
217.332
217.45
217.566
217.675
217.777
217.875
217.972
218.067
218.161
218.252
218.339
218.422
218.499
218.571
218.64
218.705
218.767
218.826
218.882
218.935
218.984
219.03
219.072
219.11
219.146
219.179
219.209
219.232
219.234
219.198
219.142
219.24
220.005
222.012
223.187
223.918
224.366
224.745
225.409
226.764
228.396
226.288
207.949
207.946
209.633
210.85
211.9
212.824
213.691
214.549
215.262
215.112
212.421
206.218
205.951
206.51
207.422
208.421
209.409
210.34
211.195
211.966
212.649
213.244
213.752
214.175
214.522
214.801
215.023
215.197
215.327
215.415
215.464
215.484
215.489
215.496
215.522
215.592
215.698
215.757
215.716
215.707
215.788
215.9
216.065
216.194
216.195
216.245
216.374
216.498
216.632
216.766
216.892
217.006
217.113
217.218
217.326
217.437
217.547
217.655
217.76
217.863
217.964
218.063
218.162
218.26
218.357
218.455
218.553
218.651
218.751
218.851
218.953
219.056
219.163
219.273
219.387
219.501
219.603
219.68
219.759
220.017
220.932
222.956
224.176
224.946
225.428
225.839
226.528
227.896
229.565
227.665
209.982
207.302
208.961
210.159
211.193
212.103
212.957
213.802
214.504
214.358
211.71
205.606
205.343
205.895
206.793
207.778
208.751
209.669
210.511
211.27
211.943
212.528
213.027
213.443
213.781
214.053
214.272
214.447
214.585
214.682
214.739
214.759
214.756
214.752
214.771
214.841
214.954
215.02
214.975
214.959
215.042
215.16
215.336
215.478
215.48
215.534
215.682
215.829
215.987
216.137
216.27
216.386
216.495
216.607
216.727
216.851
216.975
217.097
217.216
217.334
217.451
217.568
217.685
217.802
217.92
218.039
218.158
218.279
218.401
218.524
218.648
218.772
218.898
219.025
219.153
219.275
219.379
219.452
219.52
219.757
220.636
222.61
223.796
224.527
224.959
225.304
225.904
227.157
228.69
226.63
208.752
206.669
208.299
209.48
210.498
211.394
212.235
213.067
213.759
213.617
211.014
205.01
204.755
205.3
206.185
207.155
208.113
209.015
209.843
210.589
211.249
211.822
212.309
212.713
213.04
213.301
213.51
213.681
213.822
213.929
213.995
214.018
214.008
213.988
213.991
214.049
214.16
214.225
214.169
214.14
214.219
214.334
214.514
214.665
214.667
214.728
214.897
215.069
215.246
215.402
215.528
215.631
215.729
215.835
215.949
216.067
216.182
216.291
216.396
216.497
216.595
216.69
216.783
216.873
216.961
217.046
217.128
217.207
217.282
217.352
217.417
217.477
217.532
217.58
217.622
217.651
217.653
217.615
217.558
217.663
218.433
220.387
221.547
222.258
222.673
222.998
223.565
224.748
226.151
223.927
206.072
206.047
207.649
208.812
209.815
210.697
211.525
212.344
213.027
212.892
210.34
204.442
204.2
204.742
205.616
206.57
207.511
208.394
209.2
209.921
210.553
211.094
211.547
211.913
212.2
212.419
212.588
212.724
212.839
212.931
212.989
213
212.969
212.916
212.881
212.903
212.986
213.031
212.953
212.901
212.965
213.073
213.253
213.418
213.438
213.525
213.736
213.949
214.155
214.321
214.443
214.537
214.626
214.722
214.823
214.919
215.004
215.076
215.136
215.186
215.229
215.265
215.294
215.318
215.337
215.351
215.36
215.364
215.362
215.355
215.342
215.323
215.298
215.269
215.233
215.188
215.117
214.999
214.842
214.829
215.512
217.548
218.806
219.624
220.144
220.56
221.189
222.389
223.741
221.437
203.689
205.436
207.01
208.156
209.142
210.011
210.828
211.641
212.324
212.205
209.725
203.989
203.781
204.318
205.166
206.077
206.955
207.756
208.459
209.059
209.557
209.958
210.269
210.5
210.664
210.773
210.847
210.906
210.964
211.022
211.064
211.069
211.027
210.956
210.891
210.882
210.939
210.969
210.879
210.813
210.865
210.965
211.144
211.326
211.38
211.516
211.79
212.069
212.331
212.542
212.702
212.835
212.963
213.091
213.211
213.307
213.372
213.401
213.401
213.38
213.345
213.301
213.251
213.197
213.141
213.083
213.023
212.962
212.9
212.835
212.768
212.699
212.629
212.559
212.488
212.41
212.31
212.162
211.988
212
212.842
215.266
216.806
217.836
218.506
219.019
219.702
220.906
222.205
219.82
202.134
204.834
206.382
207.515
208.491
209.345
210.113
210.817
211.427
211.826
211.876
211.704
211.982
212.334
212.707
213.076
213.428
213.758
214.064
214.345
214.602
214.836
215.047
215.237
215.404
215.553
215.69
215.832
215.992
216.17
216.347
216.489
216.569
216.594
216.605
216.667
216.805
216.913
216.863
216.817
216.887
216.978
217.129
217.259
217.209
217.239
217.419
217.581
217.697
217.745
217.749
217.753
217.784
217.844
217.916
217.982
218.037
218.08
218.115
218.142
218.164
218.181
218.194
218.204
218.21
218.213
218.214
218.213
218.21
218.205
218.198
218.19
218.182
218.174
218.165
218.154
218.134
218.101
218.065
218.076
218.211
218.478
218.649
218.739
218.769
218.847
219.226
220.208
221.329
218.822
201.187
204.239
205.762
206.883
207.849
208.687
209.423
210.074
210.652
211.169
211.644
212.077
212.442
212.784
213.103
213.4
213.677
213.936
214.179
214.406
214.62
214.822
215.013
215.191
215.355
215.505
215.644
215.786
215.947
216.136
216.338
216.519
216.643
216.7
216.726
216.787
216.925
217.041
217
216.957
217.026
217.107
217.245
217.369
217.314
217.34
217.513
217.648
217.717
217.715
217.685
217.674
217.703
217.764
217.836
217.903
217.961
218.013
218.06
218.103
218.144
218.18
218.213
218.242
218.268
218.291
218.311
218.329
218.343
218.356
218.366
218.374
218.381
218.386
218.39
218.393
218.393
218.392
218.392
218.394
218.395
218.392
218.382
218.344
218.287
218.303
218.633
219.564
220.645
218.205
201.008
203.649
205.146
206.252
207.205
208.031
208.752
209.388
209.952
210.461
210.923
211.341
211.715
212.06
212.377
212.672
212.945
213.2
213.438
213.661
213.871
214.07
214.258
214.436
214.602
214.755
214.894
215.029
215.177
215.353
215.554
215.751
215.902
215.986
216.023
216.077
216.199
216.308
216.265
216.217
216.276
216.343
216.468
216.6
216.562
216.602
216.78
216.902
216.951
216.941
216.923
216.942
217.005
217.094
217.185
217.269
217.345
217.415
217.481
217.544
217.602
217.656
217.706
217.752
217.794
217.832
217.867
217.898
217.926
217.951
217.974
217.994
218.012
218.027
218.041
218.053
218.064
218.074
218.086
218.1
218.113
218.124
218.122
218.093
218.045
218.066
218.387
219.293
220.375
218.149
201.819
203.064
204.533
205.623
206.561
207.375
208.086
208.713
209.271
209.771
210.221
210.629
211.001
211.343
211.658
211.949
212.219
212.471
212.707
212.928
213.135
213.331
213.518
213.695
213.865
214.023
214.168
214.304
214.442
214.602
214.79
214.988
215.156
215.263
215.314
215.365
215.472
215.57
215.527
215.482
215.52
215.556
215.647
215.756
215.722
215.757
215.916
216.007
216.027
216.006
215.999
216.036
216.112
216.202
216.288
216.368
216.442
216.512
216.579
216.642
216.698
216.75
216.795
216.835
216.871
216.902
216.928
216.95
216.969
216.984
216.997
217.008
217.018
217.027
217.035
217.043
217.052
217.062
217.075
217.093
217.115
217.136
217.147
217.132
217.1
217.135
217.463
218.37
219.469
217.344
201.352
202.482
203.925
204.998
205.921
206.722
207.422
208.041
208.591
209.083
209.528
209.93
210.298
210.635
210.946
211.234
211.501
211.75
211.983
212.202
212.408
212.601
212.785
212.962
213.134
213.3
213.457
213.604
213.745
213.896
214.069
214.258
214.432
214.552
214.614
214.664
214.76
214.841
214.765
214.647
214.637
214.607
214.645
214.744
214.667
214.657
214.762
214.796
214.77
214.725
214.707
214.728
214.77
214.812
214.848
214.877
214.905
214.932
214.954
214.971
214.983
214.99
214.995
214.999
215.002
215.005
215.009
215.015
215.022
215.031
215.043
215.058
215.076
215.097
215.121
215.148
215.178
215.212
215.251
215.295
215.345
215.396
215.435
215.449
215.446
215.511
215.867
216.797
217.91
215.787
199.856
201.907
203.323
204.381
205.289
206.077
206.767
207.375
207.917
208.403
208.841
209.238
209.601
209.934
210.241
210.525
210.79
211.037
211.268
211.485
211.689
211.881
212.063
212.237
212.408
212.58
212.752
212.918
213.076
213.232
213.4
213.581
213.752
213.876
213.937
213.977
214.059
214.152
214.155
214.177
213.984
213.71
213.411
213.088
212.867
212.713
212.686
212.601
212.476
212.353
212.266
212.212
212.169
212.131
212.102
212.09
212.096
212.115
212.142
212.175
212.212
212.254
212.301
212.351
212.406
212.463
212.524
212.586
212.651
212.718
212.786
212.856
212.927
212.999
213.072
213.147
213.222
213.299
213.38
213.464
213.552
213.638
213.71
213.755
213.781
213.873
214.257
215.207
216.315
214.166
198.302
201.348
202.737
203.78
204.674
205.45
206.129
206.728
207.262
207.74
208.172
208.564
208.922
209.251
209.554
209.835
210.097
210.342
210.572
210.788
210.991
211.182
211.362
211.533
211.702
211.874
212.055
212.24
212.423
212.6
212.777
212.957
213.128
213.257
213.327
213.379
213.47
213.468
212.964
211.79
211.057
210.212
209.746
209.83
209.324
209.038
208.943
208.843
208.75
208.692
208.681
208.703
208.745
208.809
208.901
209.021
209.16
209.308
209.456
209.602
209.746
209.886
210.024
210.159
210.292
210.422
210.549
210.673
210.795
210.914
211.031
211.146
211.259
211.37
211.479
211.586
211.691
211.797
211.904
212.014
212.126
212.234
212.327
212.391
212.435
212.547
212.947
213.905
214.999
212.839
197.115
200.819
202.184
203.211
204.092
204.856
205.525
206.116
206.642
207.114
207.54
207.927
208.28
208.605
208.905
209.184
209.443
209.686
209.915
210.13
210.333
210.525
210.705
210.874
211.039
211.206
211.385
211.578
211.78
211.982
212.18
212.374
212.558
212.702
212.776
212.805
212.884
213.049
213.218
213.31
210.908
208.892
207.038
204.899
204.771
204.776
205.016
205.248
205.478
205.717
205.961
206.198
206.428
206.662
206.907
207.159
207.409
207.646
207.868
208.076
208.272
208.458
208.634
208.802
208.963
209.118
209.267
209.413
209.554
209.691
209.825
209.955
210.082
210.207
210.328
210.448
210.565
210.682
210.799
210.92
211.042
211.159
211.26
211.331
211.383
211.503
211.913
212.872
213.954
211.795
196.224
200.343
201.686
202.7
203.569
204.322
204.982
205.565
206.084
206.549
206.97
207.352
207.702
208.023
208.32
208.596
208.854
209.096
209.324
209.539
209.743
209.936
210.119
210.29
210.452
210.612
210.781
210.966
211.169
211.383
211.597
211.806
212.009
212.196
212.361
212.537
212.707
212.343
209.854
204.238
201.304
199.802
199.789
201.22
201.581
202.134
202.826
203.423
203.956
204.429
204.842
205.197
205.513
205.812
206.102
206.38
206.638
206.872
207.084
207.281
207.467
207.646
207.817
207.983
208.144
208.3
208.452
208.599
208.742
208.881
209.016
209.147
209.275
209.401
209.523
209.643
209.762
209.879
209.998
210.12
210.242
210.361
210.462
210.534
210.587
210.709
211.12
212.074
213.141
210.989
195.552
199.945
201.269
202.273
203.132
203.877
204.529
205.106
205.619
206.079
206.495
206.873
207.219
207.537
207.832
208.106
208.362
208.603
208.831
209.046
209.252
209.448
209.634
209.809
209.974
210.131
210.289
210.459
210.648
210.854
211.065
211.272
211.481
211.723
212.06
212.542
212.874
211.353
203.64
187.548
186.171
186.022
190.342
200.6
200.547
201.206
201.944
202.591
203.191
203.73
204.2
204.607
204.974
205.313
205.622
205.903
206.155
206.384
206.595
206.791
206.978
207.156
207.328
207.493
207.653
207.807
207.957
208.101
208.24
208.375
208.505
208.633
208.757
208.879
208.998
209.116
209.231
209.346
209.462
209.581
209.701
209.817
209.916
209.986
210.038
210.161
210.572
211.518
212.571
210.422
195.085
199.648
200.958
201.954
202.805
203.545
204.193
204.766
205.276
205.733
206.147
206.522
206.866
207.182
207.475
207.747
208.002
208.241
208.468
208.683
208.89
209.087
209.277
209.458
209.628
209.788
209.944
210.104
210.278
210.469
210.666
210.859
211.061
211.345
211.844
212.625
213.117
210.602
198.527
173.981
174.077
175.107
183.148
200.771
200.237
200.861
201.514
202.09
202.654
203.177
203.648
204.078
204.476
204.846
205.188
205.5
205.783
206.042
206.282
206.505
206.713
206.908
207.091
207.264
207.427
207.582
207.73
207.87
208.005
208.136
208.263
208.386
208.508
208.627
208.744
208.858
208.972
209.085
209.199
209.316
209.434
209.548
209.646
209.715
209.769
209.894
210.307
211.251
212.297
210.147
194.857
199.458
200.76
201.751
202.599
203.336
203.982
204.554
205.064
205.523
205.938
206.315
206.661
206.979
207.272
207.545
207.799
208.038
208.264
208.479
208.684
208.883
209.074
209.257
209.431
209.595
209.754
209.916
210.087
210.274
210.464
210.646
210.839
211.135
211.716
212.635
213.176
210.237
196.382
168.463
169.2
170.798
180.545
201.395
200.594
201.1
201.591
202.009
202.451
202.885
203.3
203.704
204.101
204.489
204.862
205.215
205.544
205.852
206.141
206.413
206.654
206.874
207.076
207.262
207.434
207.594
207.744
207.886
208.023
208.155
208.284
208.41
208.534
208.655
208.775
208.892
209.007
209.122
209.237
209.355
209.475
209.59
209.689
209.762
209.821
209.952
210.372
211.324
212.378
210.232
194.931
199.37
200.667
201.655
202.501
203.237
203.883
204.455
204.967
205.428
205.847
206.229
206.58
206.904
207.203
207.482
207.741
207.985
208.214
208.431
208.64
208.84
209.033
209.219
209.396
209.562
209.722
209.882
210.054
210.241
210.432
210.62
210.844
211.232
211.772
212.632
213.065
210.087
196.139
167.724
168.703
170.921
182.576
206.892
204.944
204.521
204.175
203.903
203.831
203.884
204.027
204.241
204.512
204.823
205.153
205.487
205.813
206.121
206.389
206.585
206.851
207.079
207.288
207.481
207.66
207.828
207.987
208.139
208.286
208.429
208.57
208.709
208.845
208.98
209.111
209.241
209.369
209.496
209.624
209.755
209.886
210.013
210.125
210.21
210.282
210.427
210.862
211.834
212.91
210.765
195.388
199.357
200.652
201.64
202.485
203.219
203.864
204.435
204.946
205.408
205.828
206.212
206.567
206.895
207.201
207.487
207.755
208.008
208.247
208.475
208.693
208.904
209.108
209.305
209.493
209.67
209.84
210.009
210.168
210.335
210.495
210.634
210.794
211.064
211.413
212.039
212.309
209.498
195.898
168.082
169.072
171.714
184.664
211.275
209.481
208.881
208.27
207.638
207.182
206.826
206.56
206.391
206.319
206.33
206.405
206.527
206.682
206.853
207.016
207.134
207.346
207.537
207.725
207.91
208.092
208.272
208.449
208.624
208.797
208.968
209.136
209.3
209.459
209.615
209.767
209.916
210.063
210.21
210.357
210.506
210.658
210.805
210.939
211.047
211.143
211.314
211.778
212.789
213.92
211.821
196.359
199.386
200.683
201.671
202.515
203.249
203.892
204.461
204.969
205.427
205.844
206.225
206.577
206.904
207.209
207.497
207.769
208.028
208.275
208.513
208.743
208.968
209.19
209.409
209.62
209.815
209.976
210.091
210.227
210.342
210.438
210.496
210.444
210.39
210.325
210.655
211.127
208.916
195.153
166.68
167.62
170.535
184.394
212.512
210.621
209.607
209.134
208.7
208.441
208.22
208.017
207.84
207.697
207.596
207.54
207.529
207.564
207.634
207.713
207.764
207.928
208.088
208.262
208.445
208.637
208.835
209.037
209.242
209.45
209.66
209.871
210.081
210.289
210.497
210.701
210.905
211.107
211.308
211.511
211.722
211.943
212.168
212.383
212.575
212.755
213.009
213.558
214.667
215.923
213.951
198.433
199.425
200.724
201.713
202.559
203.293
203.936
204.504
205.012
205.468
205.881
206.259
206.606
206.929
207.23
207.514
207.783
208.04
208.287
208.527
208.761
208.993
209.223
209.45
209.676
209.911
210.182
210.491
210.532
210.48
210.271
209.851
209.463
208.939
208.374
208.527
209.599
208.28
196.059
170.872
171.494
174.387
187.848
214.776
213.492
211.765
211.05
210.099
209.357
208.813
208.448
208.21
208.057
207.961
207.916
207.919
207.97
208.062
208.172
208.264
208.475
208.688
208.918
209.162
209.416
209.685
209.972
210.274
210.589
210.911
211.238
211.565
211.888
212.205
212.511
212.803
213.076
213.332
213.568
213.777
213.956
214.104
214.216
214.286
214.329
214.442
214.858
215.857
217.018
214.87
198.812
199.453
200.753
201.743
202.59
203.325
203.969
204.539
205.048
205.505
205.919
206.297
206.645
206.967
207.268
207.551
207.819
208.075
208.322
208.561
208.795
209.03
209.272
209.526
209.778
209.938
209.775
209.075
208.825
208.403
208.124
208.186
207.748
207.715
207.544
204.557
189.569
212.465
212.012
210.564
209.604
208.866
208.414
208.171
208.082
208.116
208.233
208.413
208.648
208.922
209.208
209.468
209.845
210.211
210.579
210.936
211.276
211.58
211.838
212.056
212.243
212.404
212.543
212.664
212.768
212.859
212.938
213.006
213.064
213.114
213.158
213.199
213.237
213.271
213.291
213.287
213.272
213.34
213.722
214.691
215.805
213.56
197.393
199.461
200.761
201.751
202.598
203.334
203.979
204.549
205.059
205.517
205.933
206.312
206.662
206.986
207.289
207.574
207.845
208.105
208.356
208.601
208.843
209.081
209.316
209.544
209.789
210.156
210.895
212.023
210.623
209.176
207.441
205.189
205.334
206.051
206.741
204.102
188.739
211.869
212.421
211.197
210.327
209.674
209.259
209.039
208.991
209.098
209.313
209.582
209.89
210.157
210.362
210.48
210.683
210.844
210.987
211.114
211.224
211.316
211.393
211.458
211.514
211.563
211.606
211.644
211.679
211.711
211.741
211.769
211.798
211.827
211.859
211.896
211.938
211.98
212.013
212.023
212.024
212.108
212.503
213.468
214.55
212.282
196.275
199.452
200.751
201.741
202.587
203.322
203.967
204.537
205.046
205.504
205.92
206.3
206.649
206.974
207.277
207.563
207.835
208.096
208.35
208.597
208.842
209.094
209.373
209.7
210.013
209.906
208.29
204.233
202.023
200.835
200.947
202.479
203.286
204.869
206.443
204.572
189.377
211.686
212.483
211.408
210.603
209.98
209.549
209.284
209.174
209.19
209.291
209.447
209.632
209.776
209.86
209.865
209.957
210.017
210.069
210.117
210.163
210.207
210.25
210.293
210.337
210.382
210.426
210.469
210.511
210.553
210.595
210.638
210.683
210.729
210.779
210.834
210.895
210.955
211.005
211.032
211.049
211.148
211.551
212.51
213.565
211.3
195.482
199.434
200.733
201.722
202.568
203.302
203.946
204.516
205.024
205.482
205.897
206.277
206.626
206.95
207.254
207.541
207.814
208.075
208.325
208.564
208.801
209.069
209.45
210.007
210.427
209.09
202.097
187.126
186.096
186.207
190.965
202.064
202.566
204.492
206.417
204.894
189.733
211.644
212.439
211.329
210.405
209.67
209.14
208.795
208.612
208.553
208.584
208.678
208.788
208.882
208.938
208.926
209.003
209.051
209.095
209.138
209.181
209.225
209.271
209.318
209.367
209.417
209.468
209.52
209.573
209.627
209.682
209.739
209.797
209.857
209.921
209.991
210.065
210.137
210.198
210.235
210.263
210.371
210.775
211.719
212.75
210.501
194.869
199.416
200.714
201.703
202.549
203.283
203.926
204.496
205.004
205.461
205.876
206.255
206.604
206.928
207.231
207.519
207.793
208.053
208.296
208.519
208.738
209.019
209.503
210.285
210.796
208.319
196.635
172.598
172.78
174.077
182.886
202.073
202.165
204.181
206.129
204.647
189.571
211.801
212.64
211.486
210.572
209.756
209.129
208.697
208.446
208.327
208.301
208.326
208.374
208.428
208.461
208.437
208.502
208.54
208.574
208.605
208.638
208.672
208.708
208.747
208.789
208.833
208.879
208.928
208.98
209.034
209.091
209.15
209.211
209.275
209.344
209.417
209.495
209.571
209.635
209.676
209.708
209.819
210.218
211.143
212.15
209.913
194.439
199.404
200.702
201.691
202.536
203.271
203.914
204.483
204.991
205.448
205.862
206.241
206.589
206.913
207.216
207.504
207.778
208.036
208.27
208.478
208.68
208.964
209.506
210.408
210.964
207.94
194.139
166.219
166.937
168.823
179.552
202.358
202.179
204.043
205.715
203.981
188.999
212.365
213.443
212.223
211.294
210.346
209.595