/*--------------------------------*- C++ -*----------------------------------*\
| =========                 |                                                 |
| \\      /  F ield         | OpenFOAM: The Open Source CFD Toolbox           |
|  \\    /   O peration     | Version:  v2012                                 |
|   \\  /    A nd           | Website:  www.openfoam.com                      |
|    \\/     M anipulation  |                                                 |
\*---------------------------------------------------------------------------*/
FoamFile
{
    version     2.0;
    format      ascii;
    class       volScalarField;
    location    "650/air";
    object      ILambda_45_0;
}
// * * * * * * * * * * * * * * * * * * * * * * * * * * * * * * * * * * * * * //

dimensions      [1 0 -3 0 0 0 0];


internalField   nonuniform List<scalar> 
287104
(
167.039
167.059
167.071
167.085
167.098
167.111
167.124
167.136
167.148
167.161
167.173
167.185
167.196
167.208
167.22
167.231
167.243
167.254
167.266
167.277
167.288
167.3
167.311
167.322
167.333
167.345
167.356
167.367
167.378
167.39
167.401
167.412
167.423
167.435
167.446
167.457
167.469
167.48
167.491
167.503
167.514
167.526
167.537
167.548
167.56
167.572
167.583
167.595
167.606
167.618
167.63
167.642
167.654
167.666
167.679
167.692
167.705
167.718
167.732
167.747
167.762
167.778
167.795
167.814
167.834
167.856
167.88
167.907
167.937
167.97
168.008
168.052
168.102
168.159
168.227
168.306
168.4
168.511
168.64
168.79
168.966
169.18
169.46
169.861
170.482
171.474
173.042
175.422
178.818
183.301
167.034
167.054
167.066
167.079
167.092
167.105
167.118
167.13
167.142
167.154
167.166
167.178
167.19
167.202
167.213
167.225
167.236
167.248
167.259
167.27
167.282
167.293
167.304
167.316
167.327
167.338
167.349
167.36
167.372
167.383
167.394
167.405
167.416
167.428
167.439
167.45
167.462
167.473
167.484
167.496
167.507
167.519
167.53
167.542
167.553
167.565
167.576
167.588
167.6
167.612
167.623
167.636
167.648
167.66
167.673
167.685
167.699
167.712
167.726
167.741
167.756
167.772
167.789
167.808
167.827
167.849
167.873
167.9
167.929
167.962
168
168.043
168.092
168.149
168.216
168.294
168.387
168.497
168.625
168.774
168.948
169.159
169.435
169.828
170.434
171.4
172.926
175.241
178.547
182.91
167.031
167.05
167.063
167.076
167.089
167.101
167.114
167.126
167.138
167.15
167.162
167.174
167.185
167.197
167.208
167.22
167.231
167.242
167.254
167.265
167.276
167.287
167.299
167.31
167.321
167.332
167.343
167.354
167.365
167.377
167.388
167.399
167.41
167.421
167.432
167.443
167.455
167.466
167.477
167.488
167.5
167.511
167.522
167.534
167.545
167.557
167.568
167.58
167.591
167.603
167.615
167.627
167.639
167.651
167.663
167.676
167.689
167.702
167.716
167.73
167.745
167.761
167.777
167.795
167.814
167.835
167.858
167.884
167.912
167.944
167.98
168.021
168.069
168.124
168.189
168.266
168.357
168.464
168.59
168.737
168.91
169.12
169.393
169.78
170.374
171.317
172.803
175.056
178.276
182.534
167.027
167.046
167.058
167.072
167.084
167.096
167.109
167.121
167.133
167.144
167.156
167.168
167.179
167.191
167.202
167.213
167.224
167.236
167.247
167.258
167.269
167.28
167.291
167.302
167.314
167.325
167.336
167.347
167.358
167.369
167.38
167.391
167.402
167.413
167.424
167.435
167.446
167.458
167.469
167.48
167.491
167.502
167.513
167.525
167.536
167.547
167.559
167.57
167.582
167.593
167.605
167.617
167.629
167.641
167.653
167.665
167.678
167.691
167.705
167.719
167.733
167.748
167.764
167.781
167.8
167.819
167.841
167.865
167.891
167.921
167.954
167.993
168.037
168.089
168.15
168.223
168.309
168.412
168.533
168.674
168.843
169.051
169.325
169.718
170.32
171.271
172.757
174.993
178.166
182.342
167.023
167.042
167.054
167.067
167.08
167.092
167.104
167.116
167.127
167.139
167.15
167.162
167.173
167.184
167.195
167.207
167.218
167.229
167.24
167.251
167.262
167.273
167.284
167.295
167.306
167.317
167.327
167.338
167.349
167.36
167.371
167.382
167.393
167.404
167.415
167.426
167.437
167.448
167.459
167.47
167.481
167.492
167.503
167.514
167.525
167.536
167.547
167.558
167.57
167.581
167.592
167.604
167.616
167.628
167.64
167.652
167.664
167.677
167.69
167.704
167.718
167.733
167.748
167.764
167.782
167.8
167.82
167.841
167.865
167.891
167.92
167.954
167.992
168.038
168.092
168.157
168.235
168.328
168.437
168.566
168.719
168.908
169.163
169.536
170.122
171.06
172.535
174.754
177.892
181.999
167.02
167.038
167.05
167.063
167.075
167.087
167.099
167.11
167.122
167.133
167.145
167.156
167.167
167.178
167.189
167.2
167.211
167.221
167.232
167.243
167.254
167.265
167.275
167.286
167.297
167.308
167.319
167.329
167.34
167.351
167.362
167.373
167.383
167.394
167.405
167.416
167.426
167.437
167.448
167.459
167.469
167.48
167.491
167.502
167.512
167.523
167.534
167.545
167.556
167.567
167.578
167.589
167.6
167.612
167.623
167.635
167.648
167.66
167.673
167.687
167.701
167.716
167.731
167.747
167.764
167.782
167.801
167.82
167.842
167.864
167.889
167.915
167.946
167.981
168.023
168.074
168.138
168.215
168.307
168.415
168.541
168.694
168.897
169.202
169.7
170.537
171.907
174.032
177.092
181.137
167.016
167.035
167.046
167.059
167.071
167.082
167.094
167.105
167.117
167.128
167.139
167.15
167.161
167.172
167.182
167.193
167.204
167.214
167.225
167.236
167.246
167.257
167.267
167.278
167.288
167.299
167.31
167.32
167.331
167.341
167.352
167.362
167.373
167.384
167.394
167.405
167.415
167.426
167.436
167.446
167.457
167.467
167.477
167.487
167.498
167.508
167.518
167.528
167.539
167.549
167.559
167.57
167.581
167.592
167.603
167.614
167.626
167.638
167.651
167.665
167.68
167.695
167.712
167.73
167.75
167.77
167.792
167.816
167.84
167.865
167.891
167.917
167.943
167.97
168
168.033
168.074
168.125
168.188
168.264
168.355
168.464
168.604
168.811
169.16
169.784
170.881
172.699
175.481
179.351
167.013
167.031
167.042
167.055
167.066
167.078
167.09
167.101
167.112
167.123
167.134
167.145
167.155
167.166
167.176
167.187
167.197
167.207
167.218
167.228
167.238
167.249
167.259
167.269
167.28
167.29
167.301
167.311
167.321
167.332
167.342
167.353
167.363
167.373
167.384
167.394
167.404
167.414
167.424
167.434
167.444
167.454
167.464
167.474
167.483
167.493
167.503
167.512
167.522
167.531
167.541
167.551
167.561
167.571
167.581
167.592
167.604
167.616
167.629
167.643
167.659
167.677
167.696
167.719
167.745
167.774
167.807
167.845
167.887
167.933
167.981
168.031
168.081
168.129
168.172
168.21
168.243
168.271
168.297
168.323
168.355
168.398
168.463
168.575
168.787
169.196
169.956
171.285
173.426
176.565
167.01
167.028
167.039
167.051
167.062
167.074
167.085
167.096
167.107
167.118
167.129
167.14
167.15
167.161
167.171
167.182
167.192
167.203
167.213
167.224
167.234
167.244
167.255
167.266
167.276
167.287
167.298
167.308
167.319
167.33
167.341
167.351
167.362
167.373
167.384
167.394
167.405
167.416
167.426
167.437
167.447
167.457
167.467
167.478
167.488
167.497
167.507
167.517
167.527
167.537
167.547
167.557
167.567
167.578
167.589
167.6
167.612
167.626
167.64
167.656
167.674
167.695
167.719
167.748
167.782
167.824
167.875
167.936
168.009
168.096
168.197
168.311
168.437
168.569
168.703
168.829
168.938
169.022
169.072
169.083
169.057
169.002
168.937
168.901
168.952
169.183
169.723
170.742
172.425
174.916
167.007
167.024
167.035
167.047
167.059
167.07
167.081
167.093
167.104
167.116
167.127
167.139
167.151
167.163
167.175
167.187
167.199
167.211
167.223
167.235
167.248
167.26
167.272
167.285
167.297
167.309
167.322
167.335
167.347
167.36
167.373
167.386
167.4
167.413
167.426
167.44
167.453
167.467
167.48
167.494
167.508
167.521
167.534
167.548
167.561
167.575
167.588
167.601
167.615
167.628
167.642
167.655
167.669
167.683
167.698
167.713
167.729
167.746
167.764
167.784
167.805
167.83
167.859
167.892
167.932
167.981
168.042
168.119
168.215
168.336
168.486
168.67
168.89
169.146
169.434
169.744
170.059
170.358
170.613
170.796
170.881
170.854
170.723
170.525
170.343
170.303
170.577
171.36
172.839
175.119
167.004
167.021
167.032
167.044
167.055
167.067
167.078
167.09
167.103
167.117
167.134
167.151
167.167
167.184
167.201
167.218
167.234
167.25
167.267
167.282
167.298
167.313
167.329
167.344
167.359
167.374
167.389
167.403
167.418
167.433
167.448
167.464
167.479
167.495
167.51
167.526
167.542
167.558
167.575
167.591
167.608
167.625
167.642
167.659
167.676
167.694
167.712
167.729
167.747
167.766
167.784
167.803
167.823
167.842
167.863
167.884
167.905
167.928
167.952
167.978
168.005
168.035
168.067
168.104
168.146
168.195
168.253
168.326
168.416
168.532
168.68
168.87
169.111
169.413
169.782
170.221
170.724
171.274
171.846
172.397
172.879
173.24
173.439
173.464
173.355
173.227
173.28
173.781
175.019
177.201
167.001
167.018
167.029
167.041
167.052
167.063
167.074
167.086
167.099
167.113
167.129
167.146
167.163
167.179
167.196
167.212
167.229
167.245
167.261
167.277
167.292
167.307
167.322
167.337
167.352
167.366
167.381
167.395
167.409
167.424
167.438
167.453
167.467
167.482
167.497
167.512
167.527
167.543
167.558
167.574
167.59
167.607
167.623
167.64
167.657
167.675
167.693
167.711
167.73
167.749
167.769
167.79
167.811
167.833
167.856
167.88
167.905
167.931
167.958
167.987
168.018
168.051
168.087
168.125
168.167
168.213
168.265
168.324
168.393
168.475
168.576
168.704
168.867
169.077
169.347
169.691
170.122
170.648
171.27
171.979
172.753
173.555
174.342
175.069
175.711
176.287
176.88
177.652
178.83
180.633
166.999
167.016
167.026
167.038
167.049
167.06
167.071
167.083
167.095
167.11
167.126
167.142
167.158
167.175
167.191
167.208
167.224
167.239
167.255
167.27
167.285
167.3
167.314
167.328
167.342
167.356
167.37
167.383
167.396
167.409
167.423
167.436
167.449
167.463
167.476
167.49
167.503
167.517
167.531
167.545
167.559
167.573
167.587
167.601
167.615
167.629
167.644
167.658
167.673
167.688
167.703
167.718
167.734
167.749
167.766
167.782
167.8
167.818
167.837
167.858
167.88
167.903
167.928
167.956
167.987
168.021
168.059
168.101
168.148
168.202
168.264
168.336
168.421
168.523
168.651
168.811
169.016
169.28
169.616
170.043
170.574
171.225
172.007
172.933
174.02
175.292
176.788
178.562
180.665
183.124
166.996
167.013
167.024
167.035
167.046
167.057
167.068
167.08
167.092
167.106
167.122
167.138
167.154
167.171
167.187
167.203
167.219
167.234
167.25
167.265
167.279
167.294
167.308
167.322
167.335
167.349
167.362
167.375
167.388
167.401
167.414
167.427
167.439
167.452
167.465
167.479
167.492
167.505
167.518
167.532
167.545
167.559
167.573
167.586
167.6
167.614
167.628
167.641
167.655
167.669
167.683
167.698
167.712
167.726
167.741
167.756
167.771
167.787
167.804
167.822
167.84
167.86
167.882
167.905
167.932
167.961
167.995
168.034
168.079
168.132
168.194
168.266
168.352
168.452
168.57
168.708
168.868
169.055
169.272
169.525
169.824
170.179
170.607
171.135
171.807
172.685
173.856
175.425
177.488
180.09
166.994
167.011
167.021
167.033
167.043
167.054
167.065
167.077
167.089
167.103
167.118
167.134
167.15
167.167
167.182
167.198
167.214
167.229
167.244
167.259
167.274
167.288
167.302
167.316
167.329
167.342
167.355
167.368
167.381
167.393
167.406
167.419
167.431
167.444
167.457
167.47
167.483
167.496
167.509
167.523
167.536
167.55
167.564
167.577
167.591
167.605
167.619
167.633
167.648
167.662
167.677
167.692
167.707
167.722
167.738
167.754
167.771
167.788
167.806
167.825
167.845
167.867
167.891
167.916
167.945
167.978
168.015
168.058
168.11
168.171
168.247
168.339
168.455
168.598
168.776
168.994
169.259
169.574
169.942
170.364
170.839
171.366
171.945
172.584
173.303
174.146
175.175
176.477
178.139
180.214
166.992
167.009
167.019
167.03
167.041
167.052
167.063
167.074
167.086
167.1
167.115
167.131
167.147
167.162
167.178
167.194
167.209
167.225
167.239
167.254
167.269
167.283
167.296
167.31
167.323
167.336
167.349
167.362
167.374
167.387
167.399
167.412
167.424
167.437
167.449
167.462
167.475
167.488
167.501
167.515
167.528
167.542
167.555
167.569
167.583
167.598
167.612
167.626
167.641
167.656
167.671
167.687
167.703
167.719
167.735
167.753
167.77
167.788
167.808
167.828
167.849
167.872
167.896
167.923
167.952
167.984
168.021
168.063
168.112
168.17
168.241
168.33
168.443
168.587
168.773
169.011
169.312
169.686
170.14
170.679
171.301
172.003
172.78
173.637
174.59
175.678
176.967
178.538
180.465
182.778
166.991
167.007
167.017
167.028
167.039
167.049
167.06
167.071
167.083
167.096
167.112
167.127
167.143
167.158
167.174
167.189
167.205
167.22
167.235
167.249
167.263
167.277
167.291
167.304
167.317
167.33
167.342
167.355
167.367
167.379
167.391
167.404
167.416
167.428
167.44
167.452
167.465
167.477
167.49
167.503
167.516
167.529
167.542
167.556
167.569
167.583
167.597
167.612
167.626
167.641
167.656
167.671
167.687
167.703
167.72
167.736
167.754
167.772
167.79
167.81
167.83
167.851
167.873
167.897
167.923
167.951
167.981
168.015
168.053
168.097
168.148
168.211
168.288
168.386
168.513
168.679
168.895
169.175
169.529
169.966
170.491
171.104
171.803
172.587
173.471
174.488
175.702
177.207
179.096
181.422
166.989
167.005
167.015
167.026
167.036
167.047
167.057
167.068
167.08
167.093
167.108
167.124
167.139
167.155
167.17
167.185
167.2
167.215
167.23
167.244
167.258
167.271
167.284
167.297
167.31
167.322
167.334
167.346
167.357
167.368
167.38
167.391
167.401
167.412
167.423
167.434
167.445
167.456
167.467
167.479
167.49
167.502
167.514
167.527
167.539
167.552
167.565
167.578
167.591
167.605
167.619
167.632
167.647
167.661
167.676
167.69
167.706
167.721
167.737
167.753
167.769
167.786
167.803
167.821
167.84
167.86
167.881
167.904
167.929
167.956
167.987
168.022
168.063
168.112
168.173
168.25
168.35
168.479
168.645
168.858
169.126
169.461
169.874
170.385
171.027
171.855
172.953
174.428
176.396
178.929
166.988
167.003
167.013
167.024
167.034
167.044
167.055
167.066
167.077
167.09
167.105
167.12
167.135
167.15
167.165
167.18
167.195
167.209
167.223
167.236
167.249
167.262
167.274
167.285
167.296
167.307
167.318
167.328
167.337
167.347
167.356
167.365
167.374
167.383
167.392
167.401
167.41
167.419
167.429
167.439
167.449
167.459
167.47
167.481
167.492
167.503
167.515
167.527
167.539
167.551
167.563
167.575
167.587
167.6
167.612
167.624
167.637
167.649
167.662
167.674
167.687
167.7
167.712
167.726
167.739
167.753
167.768
167.784
167.8
167.819
167.839
167.861
167.887
167.917
167.953
167.996
168.047
168.109
168.184
168.275
168.386
168.528
168.717
168.985
169.385
169.998
170.934
172.32
174.274
176.848
166.986
167.002
167.012
167.022
167.032
167.042
167.052
167.063
167.074
167.086
167.1
167.114
167.128
167.142
167.155
167.168
167.181
167.194
167.205
167.217
167.227
167.237
167.247
167.256
167.265
167.274
167.282
167.291
167.299
167.307
167.315
167.322
167.33
167.338
167.346
167.354
167.362
167.371
167.38
167.389
167.398
167.408
167.418
167.428
167.439
167.449
167.46
167.471
167.483
167.494
167.505
167.516
167.528
167.539
167.55
167.561
167.572
167.583
167.593
167.604
167.616
167.627
167.638
167.65
167.662
167.675
167.689
167.703
167.718
167.735
167.753
167.773
167.795
167.82
167.849
167.884
167.924
167.971
168.025
168.085
168.151
168.229
168.327
168.472
168.716
169.148
169.896
171.115
172.959
175.504
166.985
167
167.01
167.02
167.03
167.04
167.05
167.06
167.069
167.079
167.088
167.097
167.106
167.115
167.124
167.133
167.142
167.151
167.16
167.169
167.178
167.187
167.196
167.205
167.214
167.223
167.231
167.24
167.249
167.257
167.266
167.274
167.283
167.291
167.3
167.309
167.317
167.326
167.335
167.344
167.353
167.362
167.371
167.38
167.39
167.399
167.409
167.419
167.429
167.439
167.45
167.46
167.471
167.482
167.493
167.505
167.517
167.529
167.541
167.554
167.567
167.581
167.595
167.61
167.625
167.642
167.659
167.677
167.696
167.716
167.738
167.762
167.788
167.817
167.85
167.887
167.93
167.98
168.036
168.098
168.165
168.239
168.325
168.447
168.648
169.008
169.65
170.731
172.418
174.82
166.984
166.999
167.008
167.019
167.029
167.039
167.049
167.059
167.068
167.078
167.087
167.096
167.105
167.114
167.123
167.132
167.141
167.149
167.158
167.167
167.176
167.184
167.193
167.202
167.211
167.22
167.229
167.238
167.248
167.257
167.265
167.274
167.283
167.292
167.301
167.31
167.319
167.329
167.338
167.347
167.357
167.366
167.376
167.386
167.396
167.407
167.417
167.428
167.439
167.451
167.462
167.474
167.487
167.499
167.513
167.526
167.54
167.555
167.57
167.586
167.602
167.619
167.637
167.656
167.676
167.696
167.718
167.742
167.766
167.793
167.821
167.851
167.885
167.921
167.962
168.008
168.061
168.12
168.187
168.26
168.338
168.424
168.527
168.669
168.899
169.299
169.99
171.122
172.845
175.246
166.983
166.998
167.007
167.017
167.027
167.037
167.047
167.057
167.068
167.078
167.088
167.097
167.107
167.117
167.126
167.134
167.143
167.151
167.16
167.168
167.176
167.184
167.193
167.201
167.21
167.219
167.229
167.238
167.248
167.258
167.268
167.278
167.288
167.298
167.307
167.317
167.327
167.336
167.346
167.357
167.367
167.378
167.388
167.399
167.411
167.422
167.434
167.447
167.46
167.473
167.487
167.501
167.516
167.531
167.547
167.563
167.58
167.598
167.616
167.636
167.656
167.677
167.699
167.722
167.746
167.772
167.799
167.828
167.859
167.892
167.928
167.966
168.008
168.054
168.105
168.163
168.228
168.301
168.384
168.475
168.574
168.684
168.816
168.998
169.286
169.775
170.606
171.955
173.993
176.815
166.981
166.996
167.006
167.016
167.026
167.035
167.045
167.055
167.065
167.075
167.086
167.097
167.107
167.118
167.128
167.138
167.148
167.157
167.166
167.174
167.182
167.189
167.197
167.204
167.211
167.219
167.227
167.236
167.246
167.255
167.266
167.277
167.289
167.3
167.312
167.323
167.334
167.345
167.355
167.366
167.377
167.389
167.4
167.412
167.424
167.437
167.45
167.463
167.477
167.491
167.506
167.521
167.537
167.554
167.571
167.589
167.607
167.627
167.647
167.668
167.69
167.713
167.737
167.763
167.79
167.818
167.849
167.881
167.916
167.953
167.993
168.036
168.084
168.136
168.194
168.259
168.332
168.415
168.509
168.614
168.73
168.859
169.012
169.212
169.51
169.995
170.799
172.094
174.052
176.78
166.981
166.996
167.005
167.016
167.025
167.034
167.043
167.051
167.06
167.068
167.077
167.086
167.096
167.106
167.117
167.128
167.14
167.152
167.163
167.175
167.185
167.195
167.204
167.213
167.22
167.227
167.233
167.239
167.246
167.252
167.26
167.269
167.281
167.294
167.308
167.323
167.338
167.352
167.365
167.376
167.387
167.399
167.41
167.422
167.434
167.447
167.46
167.473
167.487
167.501
167.516
167.532
167.548
167.564
167.582
167.6
167.618
167.638
167.658
167.68
167.702
167.725
167.75
167.776
167.804
167.833
167.864
167.897
167.933
167.972
168.013
168.059
168.108
168.163
168.223
168.291
168.367
168.454
168.551
168.66
168.781
168.915
169.069
169.262
169.532
169.95
170.628
171.713
173.364
175.693
166.981
166.997
167.007
167.017
167.026
167.035
167.043
167.05
167.055
167.06
167.063
167.066
167.07
167.074
167.08
167.088
167.098
167.111
167.125
167.141
167.159
167.177
167.196
167.213
167.23
167.245
167.258
167.268
167.276
167.281
167.285
167.287
167.291
167.297
167.306
167.319
167.336
167.353
167.368
167.381
167.391
167.401
167.411
167.421
167.432
167.444
167.456
167.468
167.482
167.496
167.51
167.526
167.542
167.559
167.576
167.595
167.614
167.634
167.655
167.677
167.7
167.724
167.749
167.775
167.803
167.833
167.864
167.897
167.933
167.971
168.013
168.058
168.107
168.162
168.221
168.288
168.364
168.448
168.544
168.65
168.767
168.897
169.043
169.221
169.461
169.821
170.39
171.292
172.663
174.604
166.984
166.998
167.006
167.014
167.021
167.027
167.033
167.037
167.039
167.04
167.039
167.037
167.033
167.029
167.026
167.025
167.027
167.033
167.043
167.059
167.079
167.105
167.134
167.167
167.203
167.24
167.278
167.315
167.35
167.381
167.404
167.418
167.422
167.415
167.402
167.386
167.373
167.366
167.366
167.372
167.38
167.388
167.397
167.406
167.417
167.429
167.442
167.456
167.47
167.486
167.502
167.52
167.538
167.557
167.577
167.597
167.619
167.641
167.664
167.687
167.711
167.736
167.762
167.788
167.816
167.845
167.875
167.907
167.94
167.977
168.016
168.059
168.105
168.157
168.214
168.277
168.349
168.429
168.519
168.619
168.729
168.851
168.987
169.15
169.367
169.686
170.187
170.976
172.172
173.864
166.989
166.998
166.999
166.997
166.992
166.984
166.974
166.964
166.953
166.943
166.934
166.927
166.922
166.919
166.917
166.918
166.92
166.926
166.935
166.948
166.966
166.991
167.021
167.06
167.106
167.162
167.228
167.304
167.388
167.477
167.565
167.641
167.695
167.715
167.696
167.638
167.554
167.463
167.391
167.353
167.349
167.364
167.378
167.389
167.403
167.418
167.434
167.451
167.469
167.488
167.509
167.529
167.551
167.574
167.597
167.621
167.646
167.671
167.697
167.723
167.749
167.775
167.802
167.829
167.856
167.883
167.911
167.94
167.971
168.003
168.037
168.075
168.116
168.162
168.214
168.272
168.337
168.411
168.495
168.587
168.689
168.8
168.925
169.074
169.271
169.561
170.014
170.727
171.811
173.343
166.988
166.996
166.99
166.976
166.952
166.917
166.872
166.821
166.767
166.713
166.666
166.627
166.601
166.589
166.59
166.605
166.631
166.665
166.705
166.748
166.792
166.836
166.88
166.927
166.977
167.035
167.105
167.19
167.293
167.413
167.545
167.677
167.792
167.87
167.891
167.843
167.73
167.576
167.424
167.326
167.299
167.33
167.367
167.378
167.396
167.416
167.437
167.458
167.481
167.505
167.529
167.555
167.582
167.609
167.638
167.667
167.696
167.727
167.757
167.788
167.818
167.848
167.878
167.907
167.935
167.962
167.989
168.016
168.042
168.068
168.096
168.127
168.16
168.197
168.24
168.29
168.347
168.413
168.488
168.573
168.665
168.767
168.88
169.015
169.194
169.458
169.874
170.533
171.536
172.96
166.97
166.99
166.998
166.998
166.984
166.951
166.896
166.819
166.722
166.609
166.487
166.367
166.257
166.167
166.104
166.073
166.076
166.11
166.172
166.255
166.352
166.456
166.562
166.666
166.765
166.86
166.954
167.051
167.154
167.265
167.38
167.49
167.582
167.64
167.652
167.614
167.535
167.439
167.358
167.315
167.308
167.33
167.36
167.379
167.401
167.425
167.449
167.476
167.503
167.532
167.562
167.593
167.626
167.66
167.695
167.731
167.768
167.805
167.843
167.882
167.92
167.957
167.994
168.029
168.063
168.094
168.123
168.15
168.175
168.198
168.22
168.242
168.265
168.291
168.321
168.358
168.403
168.458
168.522
168.596
168.679
168.771
168.873
168.995
169.158
169.401
169.788
170.405
171.35
172.696
166.927
166.976
167.029
167.096
167.17
167.243
167.303
167.338
167.338
167.295
167.205
167.07
166.899
166.704
166.499
166.303
166.129
165.99
165.897
165.852
165.855
165.903
165.989
166.104
166.242
166.394
166.555
166.721
166.89
167.059
167.223
167.372
167.494
167.575
167.604
167.581
167.517
167.439
167.376
167.346
167.338
167.352
167.376
167.399
167.423
167.45
167.478
167.508
167.54
167.573
167.608
167.645
167.683
167.723
167.765
167.809
167.854
167.9
167.948
167.996
168.044
168.093
168.14
168.187
168.231
168.273
168.312
168.347
168.378
168.404
168.427
168.446
168.463
168.479
168.497
168.519
168.547
168.585
168.633
168.693
168.763
168.842
168.932
169.042
169.19
169.416
169.781
170.37
171.278
172.576
166.885
166.947
167.045
167.195
167.404
167.668
167.977
168.314
168.654
168.968
169.226
169.401
169.473
169.432
169.279
169.024
168.688
168.296
167.876
167.459
167.068
166.725
166.444
166.235
166.101
166.041
166.05
166.12
166.243
166.407
166.599
166.802
166.999
167.169
167.296
167.369
167.396
167.396
167.394
167.402
167.409
167.419
167.432
167.445
167.469
167.498
167.526
167.558
167.591
167.627
167.665
167.705
167.748
167.793
167.841
167.891
167.943
167.998
168.054
168.112
168.171
168.231
168.292
168.352
168.412
168.47
168.525
168.577
168.624
168.667
168.703
168.734
168.759
168.779
168.796
168.813
168.831
168.855
168.887
168.929
168.981
169.044
169.118
169.212
169.344
169.553
169.899
170.47
171.359
172.637
166.89
166.92
167.003
167.155
167.402
167.758
168.232
168.823
169.514
170.273
171.057
171.817
172.498
173.05
173.435
173.624
173.61
173.398
173.008
172.473
171.828
171.114
170.369
169.626
168.915
168.261
167.683
167.196
166.809
166.528
166.354
166.284
166.304
166.399
166.542
166.702
166.847
166.963
167.078
167.213
167.345
167.455
167.522
167.537
167.544
167.571
167.598
167.627
167.659
167.694
167.732
167.773
167.817
167.864
167.914
167.967
168.023
168.082
168.144
168.209
168.276
168.345
168.416
168.489
168.563
168.637
168.711
168.784
168.854
168.922
168.985
169.044
169.097
169.144
169.186
169.224
169.259
169.295
169.332
169.375
169.424
169.481
169.549
169.635
169.757
169.953
170.282
170.833
171.703
172.969
166.946
166.928
166.938
166.986
167.098
167.302
167.625
168.089
168.705
169.472
170.372
171.373
172.426
173.477
174.468
175.346
176.068
176.603
176.936
177.064
176.998
176.751
176.344
175.797
175.13
174.362
173.512
172.602
171.657
170.705
169.779
168.915
168.153
167.532
167.091
166.862
166.836
166.907
166.809
166.642
166.652
166.81
167.15
167.549
167.679
167.643
167.685
167.707
167.736
167.768
167.803
167.841
167.882
167.927
167.976
168.028
168.084
168.143
168.205
168.271
168.341
168.413
168.489
168.567
168.649
168.732
168.818
168.906
168.995
169.085
169.175
169.264
169.352
169.439
169.524
169.608
169.691
169.775
169.86
169.947
170.039
170.138
170.247
170.377
170.546
170.79
171.164
171.741
172.597
173.789
166.985
166.956
166.918
166.87
166.823
166.793
166.799
166.867
167.021
167.283
167.668
168.183
168.823
169.572
170.407
171.296
172.209
173.115
173.99
174.815
175.576
176.262
176.864
177.371
177.771
178.047
178.182
178.157
177.955
177.559
176.959
176.147
175.122
173.883
172.445
170.885
169.53
169.66
169.983
169.033
167.999
166.778
165.778
166.684
167.869
167.719
167.757
167.779
167.803
167.83
167.861
167.894
167.931
167.971
168.015
168.063
168.114
168.168
168.227
168.288
168.354
168.422
168.495
168.57
168.649
168.732
168.817
168.906
168.998
169.093
169.191
169.292
169.397
169.506
169.618
169.735
169.858
169.988
170.125
170.27
170.425
170.593
170.778
170.996
171.27
171.643
172.178
172.951
174.033
175.452
166.94
166.93
166.907
166.865
166.801
166.714
166.606
166.483
166.356
166.237
166.144
166.091
166.094
166.165
166.311
166.535
166.836
167.211
167.655
168.164
168.735
169.364
170.05
170.789
171.579
172.415
173.29
174.195
175.124
176.067
177.018
177.973
178.935
179.905
180.855
181.605
181.348
176.735
173.508
174.891
175.756
176.787
176.677
171.192
167.06
167.967
167.784
167.839
167.846
167.867
167.889
167.915
167.944
167.977
168.013
168.052
168.095
168.141
168.19
168.243
168.298
168.357
168.418
168.483
168.551
168.621
168.695
168.771
168.849
168.931
169.016
169.103
169.194
169.289
169.388
169.493
169.604
169.724
169.852
169.99
170.139
170.3
170.479
170.687
170.949
171.303
171.812
172.558
173.638
175.123
166.842
166.827
166.823
166.818
166.812
166.802
166.785
166.758
166.718
166.665
166.601
166.527
166.449
166.371
166.298
166.234
166.183
166.147
166.126
166.119
166.126
166.146
166.18
166.229
166.293
166.372
166.468
166.581
166.716
166.879
167.076
167.316
167.607
167.956
168.376
168.87
167.813
167.778
167.79
167.795
167.807
167.822
167.84
167.86
167.882
167.907
167.935
167.965
167.998
168.033
168.071
168.111
168.153
168.197
168.243
168.291
168.341
168.393
168.447
168.503
168.561
168.62
168.682
168.745
168.811
168.879
168.949
169.023
169.101
169.184
169.271
169.363
169.459
169.56
169.668
169.795
169.963
170.217
170.625
171.282
172.293
173.741
166.785
166.735
166.714
166.695
166.687
166.691
166.708
166.738
166.778
166.828
166.886
166.949
167.018
167.091
167.17
167.255
167.345
167.439
167.536
167.631
167.723
167.809
167.889
167.964
168.039
168.118
168.202
168.289
168.368
168.43
168.477
168.523
168.588
168.684
168.819
168.993
167.672
167.66
167.663
167.668
167.677
167.687
167.699
167.712
167.727
167.744
167.762
167.783
167.807
167.832
167.861
167.892
167.925
167.961
167.998
168.039
168.081
168.125
168.17
168.218
168.267
168.317
168.369
168.421
168.475
168.531
168.588
168.648
168.711
168.778
168.85
168.926
169.006
169.09
169.181
169.289
169.435
169.66
170.032
170.642
171.596
172.976
166.817
166.748
166.703
166.653
166.607
166.568
166.54
166.523
166.518
166.524
166.542
166.569
166.605
166.652
166.71
166.781
166.866
166.963
167.069
167.177
167.279
167.367
167.438
167.494
167.546
167.612
167.709
167.846
168.009
168.171
168.305
168.413
168.535
168.683
168.864
169.072
167.56
167.539
167.538
167.537
167.541
167.547
167.555
167.565
167.577
167.592
167.608
167.626
167.647
167.669
167.694
167.721
167.749
167.78
167.813
167.847
167.883
167.921
167.96
168.001
168.043
168.087
168.132
168.178
168.225
168.274
168.325
168.379
168.436
168.497
168.563
168.634
168.71
168.789
168.876
168.978
169.116
169.33
169.684
170.268
171.184
172.513
166.904
166.852
166.808
166.752
166.693
166.633
166.578
166.531
166.495
166.474
166.466
166.472
166.491
166.523
166.568
166.625
166.695
166.776
166.863
166.948
167.022
167.078
167.116
167.144
167.183
167.258
167.385
167.558
167.747
167.93
168.101
168.266
168.446
168.647
168.869
169.098
167.482
167.457
167.454
167.451
167.452
167.455
167.461
167.469
167.479
167.491
167.505
167.521
167.539
167.558
167.579
167.602
167.627
167.653
167.681
167.71
167.741
167.774
167.808
167.843
167.88
167.919
167.959
168
168.044
168.089
168.137
168.187
168.242
168.302
168.366
168.436
168.511
168.591
168.678
168.78
168.917
169.127
169.472
170.037
170.921
172.199
166.973
166.958
166.933
166.897
166.85
166.794
166.733
166.673
166.617
166.571
166.537
166.519
166.516
166.53
166.56
166.605
166.664
166.736
166.814
166.891
166.957
167.001
167.021
167.025
167.033
167.074
167.169
167.314
167.477
167.648
167.831
168.032
168.254
168.495
168.744
168.983
167.432
167.404
167.4
167.395
167.395
167.396
167.401
167.408
167.417
167.428
167.44
167.455
167.47
167.488
167.507
167.527
167.549
167.572
167.596
167.622
167.65
167.679
167.709
167.741
167.774
167.809
167.846
167.885
167.925
167.968
168.014
168.064
168.118
168.177
168.242
168.312
168.387
168.468
168.556
168.659
168.798
169.009
169.351
169.908
170.774
172.022
166.986
166.998
166.998
166.991
166.975
166.95
166.917
166.875
166.83
166.785
166.743
166.709
166.686
166.675
166.679
166.698
166.731
166.779
166.838
166.904
166.97
167.026
167.064
167.083
167.092
167.109
167.154
167.239
167.351
167.49
167.662
167.864
168.09
168.33
168.569
168.794
167.406
167.374
167.368
167.363