/*--------------------------------*- C++ -*----------------------------------*\
| =========                 |                                                 |
| \\      /  F ield         | OpenFOAM: The Open Source CFD Toolbox           |
|  \\    /   O peration     | Version:  v2012                                 |
|   \\  /    A nd           | Website:  www.openfoam.com                      |
|    \\/     M anipulation  |                                                 |
\*---------------------------------------------------------------------------*/
FoamFile
{
    version     2.0;
    format      ascii;
    class       volScalarField;
    location    "650/air";
    object      ILambda_67_0;
}
// * * * * * * * * * * * * * * * * * * * * * * * * * * * * * * * * * * * * * //

dimensions      [1 0 -3 0 0 0 0];


internalField   nonuniform List<scalar> 
287104
(
166.737
166.749
166.757
166.765
166.773
166.781
166.789
166.798
166.806
166.814
166.822
166.829
166.837
166.845
166.853
166.861
166.869
166.876
166.884
166.892
166.9
166.907
166.915
166.922
166.93
166.937
166.945
166.953
166.96
166.967
166.975
166.982
166.99
166.997
167.005
167.012
167.019
167.027
167.034
167.042
167.049
167.056
167.064
167.071
167.079
167.086
167.093
167.101
167.108
167.116
167.123
167.13
167.138
167.145
167.153
167.16
167.167
167.175
167.182
167.189
167.197
167.204
167.211
167.219
167.226
167.234
167.241
167.248
167.256
167.263
167.27
167.277
167.285
167.292
167.299
167.306
167.314
167.321
167.329
167.336
167.342
167.346
167.348
167.352
167.36
167.374
167.367
167.243
167.199
171.76
166.737
166.749
166.756
166.765
166.773
166.781
166.789
166.797
166.805
166.813
166.821
166.829
166.836
166.844
166.852
166.86
166.867
166.875
166.883
166.89
166.898
166.906
166.913
166.921
166.928
166.936
166.943
166.95
166.958
166.965
166.972
166.98
166.987
166.994
167.002
167.009
167.016
167.024
167.031
167.038
167.046
167.053
167.06
167.068
167.075
167.082
167.089
167.097
167.104
167.111
167.119
167.126
167.133
167.141
167.148
167.155
167.162
167.17
167.177
167.184
167.192
167.199
167.206
167.213
167.221
167.228
167.235
167.242
167.25
167.257
167.264
167.271
167.278
167.286
167.293
167.3
167.307
167.315
167.322
167.329
167.335
167.339
167.341
167.344
167.352
167.364
167.357
167.234
167.19
171.646
166.737
166.749
166.756
166.764
166.772
166.781
166.789
166.796
166.804
166.812
166.82
166.828
166.836
166.843
166.851
166.859
166.867
166.874
166.882
166.889
166.897
166.904
166.912
166.919
166.927
166.934
166.942
166.949
166.956
166.964
166.971
166.978
166.985
166.993
167
167.007
167.014
167.022
167.029
167.036
167.043
167.05
167.058
167.065
167.072
167.079
167.087
167.094
167.101
167.108
167.116
167.123
167.13
167.137
167.145
167.152
167.159
167.166
167.173
167.181
167.188
167.195
167.202
167.209
167.217
167.224
167.231
167.238
167.245
167.252
167.26
167.267
167.274
167.281
167.288
167.295
167.302
167.31
167.317
167.324
167.329
167.333
167.336
167.338
167.345
167.357
167.352
167.23
167.175
171.539
166.737
166.748
166.756
166.764
166.772
166.78
166.788
166.796
166.804
166.812
166.819
166.827
166.835
166.843
166.85
166.858
166.866
166.873
166.881
166.888
166.896
166.903
166.911
166.918
166.925
166.933
166.94
166.947
166.955
166.962
166.969
166.976
166.983
166.991
166.998
167.005
167.012
167.019
167.026
167.034
167.041
167.048
167.055
167.062
167.07
167.077
167.084
167.091
167.098
167.105
167.113
167.12
167.127
167.134
167.141
167.148
167.155
167.163
167.17
167.177
167.184
167.191
167.198
167.205
167.212
167.22
167.227
167.234
167.241
167.248
167.255
167.262
167.269
167.276
167.283
167.29
167.297
167.304
167.311
167.318
167.324
167.327
167.33
167.332
167.338
167.349
167.349
167.232
167.149
171.436
166.737
166.748
166.756
166.764
166.772
166.78
166.788
166.796
166.803
166.811
166.819
166.827
166.834
166.842
166.85
166.857
166.865
166.872
166.88
166.887
166.895
166.902
166.909
166.917
166.924
166.931
166.939
166.946
166.953
166.96
166.967
166.975
166.982
166.989
166.996
167.003
167.01
167.017
167.024
167.031
167.038
167.046
167.053
167.06
167.067
167.074
167.081
167.088
167.095
167.102
167.109
167.116
167.123
167.13
167.138
167.145
167.152
167.159
167.166
167.173
167.18
167.187
167.194
167.201
167.208
167.215
167.222
167.228
167.235
167.242
167.249
167.256
167.263
167.27
167.277
167.283
167.29
167.297
167.304
167.311
167.316
167.32
167.322
167.324
167.328
167.336
167.342
167.251
167.146
171.219
166.737
166.748
166.755
166.764
166.772
166.779
166.787
166.795
166.803
166.811
166.818
166.826
166.834
166.841
166.849
166.856
166.864
166.871
166.879
166.886
166.894
166.901
166.908
166.916
166.923
166.93
166.937
166.944
166.952
166.959
166.966
166.973
166.98
166.987
166.994
167.001
167.008
167.015
167.022
167.029
167.036
167.043
167.05
167.057
167.064
167.071
167.078
167.085
167.092
167.099
167.106
167.113
167.12
167.127
167.133
167.14
167.147
167.154
167.161
167.168
167.175
167.181
167.188
167.195
167.202
167.209
167.215
167.222
167.229
167.235
167.242
167.249
167.255
167.262
167.268
167.275
167.282
167.288
167.295
167.301
167.306
167.31
167.312
167.314
167.315
167.316
167.325
167.294
167.225
170.84
166.737
166.748
166.755
166.763
166.771
166.779
166.787
166.795
166.802
166.81
166.818
166.825
166.833
166.841
166.848
166.856
166.863
166.871
166.878
166.885
166.893
166.9
166.907
166.914
166.922
166.929
166.936
166.943
166.95
166.957
166.964
166.971
166.978
166.985
166.992
166.999
167.006
167.013
167.02
167.027
167.033
167.04
167.047
167.054
167.061
167.068
167.075
167.081
167.088
167.095
167.102
167.109
167.115
167.122
167.129
167.136
167.142
167.149
167.156
167.162
167.169
167.175
167.182
167.189
167.195
167.202
167.208
167.214
167.221
167.227
167.234
167.24
167.246
167.253
167.259
167.265
167.272
167.279
167.285
167.291
167.296
167.299
167.301
167.304
167.304
167.293
167.291
167.345
167.449
170.381
166.737
166.748
166.755
166.763
166.771
166.779
166.787
166.794
166.802
166.81
166.817
166.825
166.832
166.84
166.848
166.855
166.862
166.87
166.877
166.884
166.892
166.899
166.906
166.913
166.92
166.928
166.935
166.942
166.949
166.956
166.963
166.97
166.977
166.984
166.991
166.998
167.004
167.011
167.018
167.025
167.032
167.039
167.046
167.053
167.059
167.066
167.073
167.08
167.086
167.093
167.1
167.107
167.113
167.12
167.127
167.133
167.14
167.146
167.153
167.159
167.166
167.172
167.179
167.185
167.191
167.198
167.204
167.211
167.217
167.223
167.23
167.236
167.243
167.249
167.255
167.262
167.269
167.275
167.282
167.289
167.294
167.297
167.3
167.304
167.305
167.282
167.248
167.372
167.821
170.126
166.737
166.748
166.755
166.763
166.771
166.779
166.786
166.794
166.802
166.809
166.817
166.825
166.832
166.84
166.847
166.855
166.862
166.87
166.877
166.885
166.892
166.899
166.907
166.914
166.921
166.929
166.936
166.943
166.95
166.958
166.965
166.972
166.979
166.986
166.994
167.001
167.008
167.015
167.022
167.029
167.037
167.044
167.051
167.058
167.065
167.072
167.079
167.086
167.093
167.1
167.107
167.114
167.121
167.128
167.135
167.142
167.149
167.156
167.162
167.169
167.176
167.183
167.19
167.197
167.203
167.21
167.217
167.224
167.231
167.238
167.245
167.252
167.259
167.266
167.273
167.28
167.288
167.296
167.303
167.31
167.316
167.32
167.323
167.329
167.333
167.304
167.221
167.339
168.185
170.52
166.736
166.748
166.755
166.763
166.771
166.778
166.786
166.794
166.801
166.809
166.817
166.825
166.833
166.841
166.849
166.858
166.866
166.874
166.882
166.89
166.898
166.906
166.913
166.921
166.929
166.937
166.945
166.953
166.96
166.968
166.976
166.984
166.991
166.999
167.007
167.015
167.023
167.031
167.039
167.047
167.055
167.063
167.07
167.078
167.086
167.094
167.102
167.11
167.118
167.126
167.134
167.142
167.149
167.157
167.165
167.173
167.181
167.189
167.196
167.204
167.212
167.219
167.227
167.235
167.243
167.25
167.258
167.266
167.274
167.281
167.289
167.297
167.305
167.313
167.321
167.329
167.337
167.345
167.353
167.36
167.365
167.369
167.371
167.376
167.383
167.357
167.234
167.241
168.337
171.523
166.736
166.748
166.755
166.763
166.77
166.778
166.786
166.793
166.801
166.809
166.818
166.827
166.837
166.846
166.856
166.865
166.874
166.883
166.892
166.901
166.91
166.919
166.927
166.936
166.944
166.953
166.961
166.969
166.977
166.985
166.994
167.002
167.01
167.018
167.026
167.034
167.043
167.051
167.059
167.068
167.076
167.084
167.093
167.101
167.11
167.119
167.127
167.136
167.144
167.153
167.162
167.17
167.179
167.188
167.197
167.205
167.214
167.223
167.232
167.241
167.249
167.258
167.267
167.276
167.285
167.294
167.303
167.312
167.32
167.329
167.338
167.347
167.356
167.364
167.373
167.381
167.39
167.398
167.406
167.413
167.417
167.419
167.419
167.421
167.427
167.413
167.287
167.133
168.132
172.726
166.736
166.748
166.755
166.762
166.77
166.778
166.785
166.793
166.801
166.809
166.818
166.827
166.836
166.845
166.855
166.864
166.873
166.882
166.891
166.9
166.909
166.917
166.926
166.934
166.943
166.951
166.959
166.967
166.975
166.983
166.991
166.999
167.007
167.015
167.023
167.031
167.039
167.047
167.055
167.063
167.071
167.08
167.088
167.096
167.104
167.113
167.121
167.13
167.138
167.147
167.155
167.164
167.173
167.182
167.191
167.2
167.209
167.218
167.227
167.236
167.246
167.255
167.264
167.274
167.283
167.293
167.302
167.312
167.322
167.331
167.341
167.35
167.36
167.369
167.378
167.387
167.396
167.405
167.414
167.421
167.426
167.428
167.428
167.429
167.434
167.428
167.334
167.098
167.703
173.394
166.736
166.747
166.754
166.762
166.77
166.778
166.785
166.793
166.8
166.808
166.817
166.826
166.836
166.845
166.854
166.863
166.872
166.881
166.89
166.899
166.908
166.916
166.925
166.933
166.941
166.949
166.957
166.965
166.973
166.981
166.989
166.996
167.004
167.012
167.02
167.027
167.035
167.043
167.051
167.059
167.066
167.074
167.082
167.09
167.098
167.106
167.113
167.121
167.129
167.137
167.145
167.153
167.161
167.169
167.177
167.185
167.193
167.201
167.208
167.216
167.224
167.232
167.24
167.248
167.256
167.264
167.273
167.281
167.289
167.297
167.305
167.314
167.322
167.33
167.339
167.347
167.356
167.365
167.374
167.381
167.387
167.39
167.391
167.393
167.398
167.392
167.324
167.139
167.484
173.008
166.736
166.747
166.754
166.762
166.77
166.777
166.785
166.792
166.8
166.808
166.817
166.826
166.835
166.844
166.853
166.862
166.872
166.88
166.889
166.898
166.907
166.915
166.924
166.932
166.94
166.948
166.956
166.964
166.972
166.979
166.987
166.995
167.003
167.01
167.018
167.026
167.033
167.041
167.049
167.057
167.064
167.072
167.08
167.088
167.096
167.103
167.111
167.119
167.127
167.135
167.143
167.151
167.158
167.166
167.174
167.182
167.19
167.197
167.205
167.213
167.221
167.228
167.236
167.244
167.251
167.259
167.267
167.274
167.282
167.289
167.297
167.304
167.312
167.319
167.327
167.334
167.342
167.35
167.357
167.363
167.367
167.369
167.369
167.37
167.374
167.367
167.286
167.145
167.683
172.324
166.736
166.747
166.754
166.762
166.77
166.777
166.785
166.792
166.8
166.807
166.816
166.825
166.834
166.844
166.853
166.862
166.871
166.88
166.888
166.897
166.906
166.914
166.923
166.931
166.939
166.947
166.955
166.963
166.97
166.978
166.986
166.993
167.001
167.009
167.017
167.024
167.032
167.04
167.047
167.055
167.063
167.071
167.078
167.086
167.094
167.102
167.11
167.118
167.126
167.134
167.142
167.15
167.158
167.166
167.174
167.182
167.19
167.198
167.206
167.214
167.222
167.23
167.238
167.246
167.255
167.263
167.271
167.28
167.288
167.296
167.305
167.313
167.322
167.331
167.339
167.348
167.357
167.366
167.375
167.383
167.389
167.392
167.392
167.393
167.4
167.399
167.307
167.085
167.699
173.059
166.736
166.747
166.754
166.762
166.769
166.777
166.784
166.792
166.799
166.807
166.816
166.825
166.834
166.843
166.852
166.861
166.87
166.879
166.888
166.896
166.905
166.913
166.921
166.93
166.938
166.946
166.953
166.961
166.969
166.977
166.984
166.992
167
167.007
167.015
167.023
167.03
167.037
167.045
167.053
167.061
167.069
167.077
167.084
167.092
167.1
167.108
167.116
167.124
167.132
167.14
167.148
167.156
167.164
167.172
167.18
167.188
167.196
167.205
167.213
167.221
167.23
167.238
167.247
167.255
167.264
167.272
167.281
167.29
167.299
167.308
167.317
167.326
167.335
167.344
167.353
167.363
167.372
167.382
167.39
167.396
167.4
167.4
167.399
167.405
167.411
167.342
167.076
167.433
173.338
166.736
166.747
166.754
166.762
166.769
166.777
166.784
166.791
166.799
166.807
166.815
166.824
166.833
166.842
166.851
166.86
166.869
166.878
166.887
166.895
166.904
166.912
166.92
166.928
166.936
166.944
166.952
166.96
166.967
166.975
166.983
166.99
166.998
167.005
167.012
167.02
167.026
167.033
167.04
167.048
167.056
167.065
167.073
167.08
167.088
167.096
167.103
167.111
167.119
167.127
167.135
167.143
167.151
167.159
167.167
167.175
167.183
167.191
167.199
167.207
167.215
167.223
167.231
167.24
167.248
167.256
167.264
167.272
167.281
167.289
167.297
167.305
167.313
167.321
167.329
167.337
167.345
167.353
167.36
167.367
167.371
167.371
167.368
167.363
167.362
167.369
167.34
167.141
167.238
172.084
166.736
166.747
166.754
166.761
166.769
166.776
166.784
166.791
166.799
166.806
166.815
166.824
166.833
166.842
166.85
166.859
166.868
166.877
166.885
166.894
166.902
166.911
166.919
166.927
166.935
166.942
166.95
166.958
166.965
166.972
166.98
166.987
166.994
167
167.005
167.011
167.018
167.025
167.032
167.039
167.047
167.056
167.064
167.073
167.08
167.087
167.095
167.102
167.11
167.117
167.125
167.133
167.14
167.148
167.155
167.163
167.17
167.178
167.186
167.193
167.201
167.208
167.215
167.223
167.23
167.237
167.244
167.251
167.258
167.265
167.272
167.278
167.285
167.291
167.297
167.303
167.309
167.314
167.32
167.324
167.326
167.325
167.319
167.311
167.305
167.31
167.315
167.22
167.181
170.663
166.736
166.747
166.754
166.761
166.769
166.776
166.783
166.791
166.798
166.806
166.814
166.823
166.832
166.841
166.849
166.858
166.867
166.875
166.884
166.892
166.9
166.908
166.916
166.924
166.931
166.938
166.945
166.953
166.959
166.966
166.973
166.98
166.986
166.99
166.993
166.997
167.006
167.016
167.023
167.029
167.034
167.04
167.05
167.061
167.069
167.075
167.083
167.09
167.097
167.104
167.112
167.119
167.126
167.133
167.14
167.147
167.155
167.161
167.168
167.175
167.182
167.189
167.195
167.202
167.208
167.214
167.22
167.226
167.232
167.238
167.244
167.249
167.255
167.26
167.265
167.27
167.275
167.281
167.285
167.289
167.291
167.289
167.284
167.275
167.268
167.273
167.295
167.275
167.241
169.82
166.736
166.747
166.753
166.761
166.768
166.776
166.783
166.79
166.798
166.805
166.813
166.822
166.83
166.838
166.847
166.855
166.863
166.871
166.879
166.886
166.894
166.901
166.908
166.915
166.922
166.929
166.936
166.942
166.949
166.955
166.962
166.968
166.974
166.979
166.984
166.989
166.999
167.011
167.02
167.025
167.026
167.029
167.036
167.048
167.055
167.062
167.069
167.076
167.083
167.09
167.097
167.104
167.111
167.118
167.125
167.132
167.138
167.145
167.151
167.158
167.164
167.17
167.176
167.182
167.188
167.194
167.2
167.205
167.211
167.217
167.222
167.228
167.233
167.238
167.244
167.249
167.254
167.26
167.265
167.27
167.273
167.273
167.268
167.26
167.253
167.258
167.287
167.314
167.342
169.461
166.736
166.746
166.753
166.761
166.768
166.775
166.783
166.79
166.797
166.804
166.812
166.819
166.826
166.833
166.84
166.847
166.854
166.861
166.868
166.875
166.882
166.889
166.895
166.902
166.909
166.916
166.922
166.929
166.936
166.942
166.948
166.953
166.962
166.977
166.998
167.014
167.019
167.021
167.028
167.036
167.037
167.039
167.037
167.034
167.042
167.05
167.056
167.063
167.07
167.077
167.084
167.091
167.097
167.104
167.111
167.118
167.124
167.131
167.137
167.144
167.15
167.156
167.163
167.169
167.175
167.181
167.188
167.194
167.2
167.206
167.212
167.218
167.224
167.229
167.235
167.241
167.247
167.253
167.259
167.265
167.27
167.271
167.268
167.26
167.254
167.26
167.292
167.34
167.444
169.457
166.736
166.746
166.753
166.76
166.768
166.775
166.782
166.79
166.797
166.804
166.811
166.818
166.825
166.832
166.839
166.846
166.853
166.86
166.867
166.874
166.881
166.888
166.895
166.902
166.908
166.915
166.922
166.928
166.935
166.941
166.946
166.95
166.961
166.992
167.043
167.083
167.081
167.055
167.048
167.063
167.072
167.084
167.073
167.034
167.039
167.052
167.057
167.065
167.072
167.079
167.086
167.093
167.1
167.107
167.114
167.121
167.128
167.135
167.142
167.149
167.155
167.162
167.169
167.175
167.182
167.189
167.195
167.202
167.208
167.214
167.221
167.227
167.233
167.239
167.246
167.252
167.258
167.264
167.271
167.277
167.283
167.285
167.282
167.274
167.269
167.278
167.312
167.36
167.507
169.765
166.735
166.746
166.753
166.76
166.767
166.775
166.782
166.789
166.796
166.804
166.811
166.818
166.825
166.832
166.839
166.846
166.853
166.86
166.867
166.874
166.88
166.887
166.894
166.901
166.908
166.914
166.921
166.928
166.934
166.94
166.946
166.95
166.957
166.986
167.045
167.105
167.115
167.08
167.058
167.075
167.089
167.108
167.104
167.041
167.035
167.054
167.059
167.067
167.075
167.082
167.09
167.097
167.105
167.112
167.12
167.127
167.134
167.142
167.149
167.156
167.163
167.17
167.177
167.184
167.191
167.198
167.205
167.212
167.219
167.226
167.233
167.239
167.246
167.253
167.259
167.266
167.272
167.279
167.286
167.293
167.299
167.302
167.299
167.291
167.287
167.302
167.343
167.384
167.525
170.186
166.735
166.746
166.753
166.76
166.767
166.775
166.782
166.789
166.796
166.803
166.81
166.817
166.824
166.831
166.838
166.845
166.852
166.859
166.866
166.873
166.88
166.887
166.893
166.9
166.907
166.914
166.92
166.927
166.933
166.94
166.95
166.961
166.955
166.919
166.877
166.886
166.959
167.04
167.068
167.064
167.05
167.012
167.028
167.058
167.042
167.051
167.06
167.068
167.075
167.083
167.091
167.099
167.106
167.114
167.121
167.129
167.136
167.144
167.151
167.158
167.166
167.173
167.18
167.187
167.194
167.201
167.208
167.215
167.222
167.229
167.236
167.242
167.249
167.256
167.263
167.269
167.276
167.283
167.29
167.297
167.304
167.307
167.303
167.294
167.29
167.313
167.369
167.422
167.579
170.217
166.735
166.746
166.752
166.76
166.767
166.774
166.781
166.789
166.796
166.803
166.81
166.817
166.824
166.831
166.838
166.845
166.852
166.859
166.866
166.872
166.879
166.886
166.893
166.9
166.906
166.913
166.92
166.926
166.931
166.939
166.958
166.987
166.966
166.79
166.47
166.267
166.44
166.859
167.113
167.063
166.979
166.738
166.702
167.069
167.074
167.038
167.06
167.066
167.074
167.082
167.089
167.097
167.104
167.112
167.119
167.127
167.134
167.141
167.148
167.155
167.162
167.169
167.176
167.183
167.19
167.197
167.204
167.211
167.218
167.225
167.232
167.239
167.245
167.252
167.259
167.266
167.272
167.279
167.287
167.294
167.301
167.304
167.301
167.289
167.285
167.316
167.393
167.475
167.658
170.012
166.735
166.746
166.752
166.76
166.767
166.774
166.781
166.788
166.795
166.803
166.81
166.817
166.824
166.831
166.838
166.844
166.851
166.858
166.865
166.872
166.879
166.886
166.892
166.899
166.905
166.912
166.918
166.924
166.93
166.937
166.962
167.01
166.998
166.71
166.066
165.512
165.695
166.539
167.194
167.099
166.953
166.417
166.149
167.025
167.129
167.017
167.057
167.06
167.068
167.076
167.083
167.091
167.098
167.106
167.113
167.12
167.127
167.135
167.142
167.149
167.156
167.163
167.171
167.178
167.185
167.192
167.199
167.206
167.213
167.22
167.227
167.234
167.241
167.248
167.255
167.262
167.269
167.277
167.284
167.291
167.298
167.302
167.299
167.285
167.278
167.316
167.421
167.542
167.743
169.8
166.735
166.746
166.752
166.76
166.767
166.774
166.781
166.788
166.795
166.802
166.809
166.816
166.823
166.83
166.837
166.844
166.851
166.858
166.865
166.872
166.878
166.885
166.892
166.898
166.904
166.909
166.915
166.922
166.93
166.936
166.946
166.983
167.028
166.896
166.353
165.667
165.609
166.364
167.148
167.059
166.941
166.375
165.871
166.878
167.158
167.01
167.049
167.053
167.062
167.07
167.077
167.085
167.093
167.1
167.108
167.116
167.123
167.131
167.138
167.146
167.153
167.161
167.168
167.176
167.183
167.19
167.198
167.205
167.212
167.22
167.227
167.234
167.241
167.248
167.256
167.263
167.27
167.277
167.285
167.292
167.299
167.304
167.301
167.285
167.273
167.314
167.449
167.621
167.836
169.652
166.735
166.746
166.752
166.76
166.767
166.774
166.781
166.788
166.795
166.802
166.809
166.816
166.823
166.83
166.837
166.844
166.851
166.858
166.864
166.871
166.878
166.885
166.892
166.897
166.902
166.907
166.912
166.921
166.934
166.939
166.905
166.858
166.986
167.494
168.122
168.241
167.779
167.15
166.796
166.803
166.816
166.956
166.876
166.679
167.052
167.05
167.038
167.053
167.06
167.069
167.077
167.085
167.093
167.1
167.108
167.116
167.124
167.132
167.139
167.147
167.155
167.162
167.17
167.177
167.185
167.193
167.2
167.208
167.215
167.223
167.23
167.237
167.245
167.252
167.259
167.266
167.274
167.281
167.289
167.296
167.303
167.309
167.306
167.289
167.27
167.309
167.471
167.707
167.951
169.559
166.735
166.746
166.752
166.759
166.767
166.774
166.781
166.788
166.795
166.802
166.809
166.816
166.823
166.83
166.837
166.843
166.85
166.857
166.864
166.871
166.878
166.885
166.891
166.898
166.904
166.91
166.916
166.926
166.943
166.948
166.855
166.643
166.788
168.333
171.43
173.916
173.448
170.248
166.976
167.203
167.364
168.801
170.031
166.664
166.698
167.162
167.029
167.061
167.066
167.075
167.082
167.09
167.098
167.105
167.113
167.121
167.129
167.136
167.144
167.152
167.16
167.167
167.175
167.183
167.191
167.198
167.206
167.214
167.221
167.229
167.236
167.244
167.251
167.259
167.266
167.273
167.281
167.288
167.296
167.303
167.311
167.316
167.315
167.297
167.272
167.301
167.48
167.789
168.094
169.526
166.735
166.746
166.752
166.759
166.766
166.773
166.781
166.788
166.795
166.802
166.809
166.816
166.823
166.829
166.836
166.843
166.85
166.857
166.864
166.871
166.877
166.884
166.891
166.9
166.911
166.923
166.933
166.941
166.957
166.963
166.83
166.435
166.437
168.901
175.037
181.241
181.877
176.728
170.704
171.296
171.654
173.713
175.115
167.214
166.085
167.326
167.028
167.079
167.081
167.088
167.094
167.101
167.108
167.115
167.123
167.13
167.138
167.145
167.153
167.161
167.169
167.176
167.184
167.192
167.2
167.208
167.215
167.223
167.231
167.239
167.246
167.254
167.261
167.269
167.276
167.284
167.291
167.299
167.306
167.314
167.321
167.327
167.327
167.31
167.279
167.293
167.473
167.853
168.262
169.571
166.735
166.746
166.752
166.759
166.766
166.773
166.78
166.787
166.794
166.801
166.808
166.815
166.822
166.829
166.836
166.843
166.85
166.857
166.864
166.871
166.877
166.883
166.89
166.903
166.922
166.944
166.959
166.965
166.971
166.976
166.855
166.369
166.079
168.706
176.995
187.067
189.978
185.421
180.525
181.525
182.344
183.242
180.82
168.66
165.368
167.48
167.045
167.106
167.104
167.108
167.113
167.118
167.124
167.131
167.137
167.144
167.151
167.159
167.166
167.174
167.181
167.189
167.197
167.205
167.213
167.221
167.228
167.236
167.244
167.251
167.259
167.267
167.274
167.282
167.289
167.297
167.304
167.312
167.319
167.327
167.334
167.34
167.341
167.327
167.293
167.288
167.449
167.881
168.437
169.721
166.735
166.745
166.752
166.759
166.766
166.773
166.78
166.787
166.794
166.801
166.808
166.815
166.822
166.829
166.836
166.843
166.85
166.857
166.864
166.871
166.877
166.882
166.89
166.905
166.932
166.961
166.978
166.982
166.976
166.979
166.916
166.497
165.919
167.747
176.177
188.974
194.624
191.861
191.557
192.779
194.36
193.985
186.09
171.149
164.787
167.561
167.085
167.138
167.133
167.135
167.137
167.141
167.145
167.15
167.156
167.162
167.169
167.176
167.183
167.19
167.198
167.205
167.213
167.221
167.228
167.236
167.244
167.251
167.259
167.266
167.274
167.281
167.289
167.296
167.304
167.311
167.319
167.327
167.334
167.341
167.348
167.354
167.357
167.346
167.312
167.29
167.412
167.854
168.58
170.001
166.735
166.745
166.752
166.759
166.766
166.773
166.78
166.787
166.794
166.801
166.808
166.815
166.822
166.829
166.836
166.843
166.85
166.857
166.864
166.871
166.877
166.883
166.89
166.904
166.93
166.958
166.97
166.971
166.965
166.968
166.972
166.736
166.057
166.587
173.198
187.129
195.688
192.13
192.783
193.972
196.112
197.822
190.965
174.784
164.504
167.549
167.139
167.172
167.166
167.165
167.165
167.166
167.169
167.172
167.177
167.182
167.188
167.195
167.201
167.208
167.215
167.222
167.23
167.237
167.244
167.252
167.259
167.266
167.274
167.281
167.289
167.296
167.303
167.311
167.318
167.326
167.333
167.341
167.348
167.355
167.362
167.368
167.371
167.364
167.334
167.301
167.373
167.765
168.628
170.418
166.735
166.745
166.752
166.759
166.766
166.773
166.78
166.787
166.794
166.801
166.808
166.815
166.822
166.829
166.836
166.843
166.85
166.857
166.864
166.871
166.878
166.885
166.891
166.898
166.912
166.931
166.935
166.932
166.942
166.957
166.993
166.935
166.397
165.887
169.718
183.273
195.859
189.056
184.198
185.182
187.057
193.28
195.648
179.951
164.561
167.47
167.191
167.202
167.196
167.192
167.19
167.19
167.191
167.194
167.197
167.201
167.207
167.212
167.218
167.224
167.231
167.237
167.244
167.251
167.257
167.264
167.271
167.278
167.285
167.292
167.299
167.307
167.314
167.321
167.328
167.335
167.343
167.35
167.357
167.364
167.37
167.376
167.379
167.375
167.351
167.316
167.345
167.634
168.506
170.884
166.735
166.745
166.752
166.759
166.766
166.773
166.78
166.787
166.794
166.801
166.808
166.815
166.822
166.829
166.836
166.843
166.85
166.857
166.864
166.871
166.879
166.888
166.894
166.889
166.882
166.903
166.921
166.913
166.948
166.972
166.987
167.016
166.735
165.887
167.106
178.493
197.501
189.512
176.813
177.404
178.283
186.3
199.94
187.598
165.013
167.364
167.222
167.219
167.213
167.209
167.206
167.206
167.206
167.208
167.211
167.214
167.219
167.223
167.228
167.234
167.239
167.245
167.251
167.257
167.263
167.269
167.276
167.282
167.288
167.295
167.301
167.308
167.314
167.321
167.327
167.334
167.341
167.348
167.354
167.36
167.366
167.37
167.374
167.371
167.352
167.321
167.327
167.508
168.216
171.085
166.735
166.746
166.752
166.759
166.766
166.773
166.78
166.787
166.794
166.801
166.808
166.815
166.822
166.829
166.836
166.843
166.85
166.857
166.864
166.871
166.879
166.89
166.897
166.881
166.855
166.901
166.993
166.983
167.033
167.042
166.974
167.009
166.918
166.315
165.987
172.841
201.212
196.132
170.08
169.89
169.673
175.012
204.11
199.174
166.023
167.267
167.228
167.219
167.213
167.209
167.208
167.207
167.208
167.21
167.212
167.215
167.218
167.222
167.226
167.23
167.235
167.24
167.245
167.251
167.256
167.261
167.266
167.271
167.277
167.282
167.287
167.293
167.298
167.304
167.309
167.315
167.32
167.326
167.331
167.336
167.339
167.342
167.344
167.341
167.326
167.299
167.298
167.425
167.948
170.515
166.735
166.746
166.752
166.759
166.766
166.773
166.78
166.787
166.794
166.801
166.808
166.815
166.822
166.829
166.836
166.843
166.85
166.857
166.864
166.871
166.879
166.89
166.9
166.88
166.842
166.926
167.135
167.122
167.168
167.144
166.965
166.984
166.943
166.674
166.427
166.98
167.48
167.199
167.201
167.192
167.187
167.185
167.185
167.186
167.188
167.191
167.193
167.196
167.198
167.2
167.203
167.207
167.212
167.217
167.221
167.225
167.229
167.233
167.237
167.241
167.245
167.249
167.253
167.257
167.262
167.266
167.27
167.275
167.28
167.285
167.29
167.294
167.297
167.3
167.302
167.3
167.289
167.267
167.265
167.368
167.77
169.804
166.735
166.746
166.752
166.759
166.766
166.773
166.78
166.787
166.794
166.801
166.808
166.815
166.822
166.829
166.836
166.843
166.85
166.857
166.864
166.871
166.878
166.889
166.9
166.886
166.85
166.94
167.204
167.152
167.168
167.148
166.959
166.969
166.93
166.65
166.611
167.891
167.158
167.179
167.161
167.153
167.149
167.148
167.148
167.149
167.151
167.153
167.156
167.158
167.159
167.16
167.162
167.166
167.172
167.178
167.182
167.186
167.19
167.195
167.2
167.205
167.209
167.215
167.22
167.225
167.23
167.235
167.24
167.246
167.251
167.257
167.263
167.268
167.272
167.275
167.277
167.277
167.269
167.252
167.247
167.323
167.648
169.433
166.735
166.745
166.752
166.759
166.766
166.773
166.78
166.787
166.794
166.801
166.808
166.815
166.822
166.829
166.836
166.843
166.85
166.857
166.864
166.871
166.878
166.887
166.897
166.896
166.874
166.923
167.084
166.954
166.908
166.953
166.955
166.947
166.944
166.747
166.626
167.7
167.183
167.144
167.132
167.123
167.118
167.116
167.115
167.116
167.117
167.12
167.123
167.126
167.128
167.131
167.135
167.139
167.144
167.151
167.156
167.161
167.167
167.172
167.177
167.183
167.188
167.194
167.2
167.205
167.211
167.217
167.222
167.228
167.234
167.24
167.246
167.251
167.256
167.259
167.261
167.262
167.256
167.242
167.238
167.295
167.566
169.195
166.735
166.745
166.752
166.759
166.766
166.773
166.78
166.787
166.794
166.801
166.808
166.815
166.822
166.829
166.836
166.843
166.85
166.857
166.864
166.871
166.878
166.885
166.893
166.9
166.9
166.918
166.953
166.789
166.702
166.775
166.942
166.928
166.935
166.837
166.789
167.714
167.147
167.122
167.109
167.1
167.096
167.093
167.093
167.094
167.096
167.099
167.102
167.107
167.114
167.121
167.128
167.132
167.132
167.135
167.14
167.146
167.152
167.158
167.163
167.169
167.175
167.181
167.187
167.193
167.199
167.205
167.211
167.217
167.223
167.229
167.236
167.241
167.246
167.249
167.252
167.253
167.248
167.237
167.233
167.281
167.519
169.047
166.735
166.745
166.752
166.759
166.766
166.773
166.78
166.787
166.794
166.801
166.808
166.815
166.822
166.829
166.836
166.843
166.85
166.857
166.864
166.871
166.878
166.884
166.891
166.898
166.909
166.94
166.974
166.887
166.829
166.844
166.919
166.922
166.928
166.887
166.888
167.67
167.128
167.103
167.091
167.084
167.08
167.078
167.078
167.08
167.082
167.085
167.089
167.098
167.112
167.126
167.136
167.139
167.132
167.126
167.13
167.139
167.144
167.15
167.156
167.162
167.168
167.174
167.181
167.187
167.193
167.199
167.205
167.211
167.218
167.224
167.23
167.236
167.241
167.244
167.248
167.249
167.245
167.234
167.23
167.275
167.498
168.969
166.735
166.745
166.752
166.759
166.766
166.773
166.78
166.787
166.794
166.801
166.808
166.815
166.822
166.829
166.836
166.842
166.849
166.856
166.863
166.87
166.877
166.884
166.891
166.897
166.906
166.924
166.949
166.946
166.94
166.926
166.916
166.926
166.928
166.907
166.926
167.609
167.109
167.09
167.079
167.072
167.069
167.068
167.069