/*--------------------------------*- C++ -*----------------------------------*\
| =========                 |                                                 |
| \\      /  F ield         | OpenFOAM: The Open Source CFD Toolbox           |
|  \\    /   O peration     | Version:  v2012                                 |
|   \\  /    A nd           | Website:  www.openfoam.com                      |
|    \\/     M anipulation  |                                                 |
\*---------------------------------------------------------------------------*/
FoamFile
{
    version     2.0;
    format      ascii;
    class       volScalarField;
    location    "650/air";
    object      k;
}
// * * * * * * * * * * * * * * * * * * * * * * * * * * * * * * * * * * * * * //

dimensions      [0 2 -2 0 0 0 0];


internalField   nonuniform List<scalar> 
287104
(
0.0834013
0.0717041
0.0633096
0.0569922
0.0520821
0.0481713
0.0449948
0.0423722
0.0401767
0.0383168
0.0367249
0.03535
0.0341529
0.0331033
0.0321771
0.031355
0.0306215
0.0299638
0.0293715
0.0288359
0.0283497
0.0279068
0.0275019
0.0271307
0.0267894
0.0264747
0.0261837
0.0259141
0.0256635
0.0254301
0.0252122
0.0250083
0.0248171
0.0246374
0.024468
0.0243079
0.0241564
0.0240125
0.0238756
0.0237448
0.0236197
0.0234997
0.0233842
0.0232728
0.0231651
0.0230607
0.0229593
0.0228606
0.0227644
0.0226704
0.0225786
0.0224886
0.0224005
0.0223142
0.0222295
0.0221464
0.0220649
0.0219849
0.0219064
0.0218294
0.021754
0.02168
0.0216074
0.0215364
0.0214667
0.0213985
0.0213317
0.0212662
0.021202
0.021139
0.0210772
0.0210164
0.0209566
0.0208977
0.0208395
0.0207818
0.0207245
0.0206673
0.02061
0.0205523
0.0204937
0.0204337
0.0203717
0.0203066
0.020237
0.0201602
0.0200732
0.0199644
0.019837
0.0195414
0.0833979
0.0716976
0.0633006
0.0569813
0.0520697
0.0481578
0.0449804
0.042357
0.040161
0.0383006
0.0367084
0.0353333
0.0341362
0.0330867
0.0321606
0.0313388
0.0306055
0.0299482
0.0293562
0.028821
0.0283352
0.0278926
0.0274882
0.0271175
0.0267766
0.0264624
0.026172
0.0259029
0.025653
0.0254203
0.0252032
0.0250002
0.02481
0.0246313
0.024463
0.0243042
0.024154
0.0240115
0.023876
0.0237468
0.0236232
0.0235047
0.0233908
0.023281
0.0231748
0.0230719
0.0229719
0.0228745
0.0227796
0.0226868
0.022596
0.022507
0.0224197
0.0223341
0.02225
0.0221674
0.0220863
0.0220066
0.0219283
0.0218514
0.021776
0.0217019
0.0216292
0.0215579
0.021488
0.0214195
0.0213523
0.0212864
0.0212217
0.0211583
0.0210959
0.0210346
0.0209743
0.0209148
0.0208559
0.0207976
0.0207396
0.0206817
0.0206236
0.0205649
0.0205054
0.0204444
0.0203813
0.0203151
0.0202444
0.0201667
0.0200789
0.0199697
0.0198423
0.0195503
0.0833965
0.0716948
0.0632968
0.0569766
0.0520642
0.0481516
0.0449735
0.0423495
0.0401529
0.0382922
0.0366997
0.0353244
0.0341273
0.0330778
0.0321518
0.0313301
0.0305971
0.0299399
0.0293482
0.0288132
0.0283277
0.0278854
0.0274813
0.0271109
0.0267704
0.0264565
0.0261665
0.0258979
0.0256486
0.0254165
0.0252002
0.0249979
0.0248086
0.0246308
0.0244636
0.0243059
0.0241569
0.0240156
0.0238814
0.0237536
0.0236315
0.0235144
0.023402
0.0232937
0.023189
0.0230876
0.0229891
0.0228932
0.0227997
0.0227084
0.022619
0.0225314
0.0224455
0.0223612
0.0222784
0.0221971
0.0221173
0.0220389
0.0219619
0.0218863
0.0218122
0.0217394
0.0216681
0.0215982
0.0215296
0.0214625
0.0213967
0.0213322
0.021269
0.021207
0.0211462
0.0210864
0.0210276
0.0209696
0.0209123
0.0208555
0.020799
0.0207425
0.0206858
0.0206285
0.0205702
0.0205104
0.0204484
0.0203832
0.0203135
0.0202369
0.0201504
0.020043
0.0199179
0.0196327
0.0833952
0.0716918
0.0632923
0.0569707
0.052057
0.0481431
0.0449639
0.0423389
0.0401414
0.0382799
0.0366867
0.0353111
0.0341138
0.0330642
0.0321383
0.0313167
0.0305838
0.0299268
0.0293352
0.0288003
0.0283148
0.0278726
0.0274686
0.0270983
0.0267579
0.0264442
0.0261545
0.0258862
0.0256372
0.0254056
0.0251898
0.0249883
0.0247997
0.0246229
0.0244567
0.0243001
0.0241523
0.0240124
0.0238796
0.0237532
0.0236326
0.0235171
0.0234061
0.0232993
0.0231961
0.0230961
0.022999
0.0229044
0.0228121
0.0227218
0.0226334
0.0225468
0.0224617
0.0223781
0.0222959
0.0222152
0.0221358
0.0220577
0.021981
0.0219056
0.0218316
0.021759
0.0216877
0.0216177
0.0215491
0.0214818
0.0214159
0.0213512
0.0212877
0.0212253
0.0211641
0.0211038
0.0210444
0.0209857
0.0209276
0.0208698
0.0208122
0.0207544
0.0206962
0.0206371
0.0205767
0.0205144
0.0204497
0.0203816
0.0203088
0.020229
0.0201394
0.0200292
0.0199016
0.0196158
0.0833939
0.0716892
0.0632884
0.0569657
0.0520509
0.0481359
0.0449556
0.0423295
0.040131
0.0382686
0.0366749
0.0352988
0.0341013
0.0330518
0.032126
0.0313045
0.0305718
0.029915
0.0293236
0.0287889
0.0283036
0.0278616
0.0274577
0.0270875
0.0267473
0.0264339
0.0261445
0.0258765
0.025628
0.0253971
0.025182
0.0249813
0.0247936
0.0246179
0.0244529
0.0242977
0.0241514
0.0240131
0.023882
0.0237574
0.0236385
0.0235249
0.0234159
0.0233109
0.0232095
0.0231114
0.023016
0.0229231
0.0228324
0.0227437
0.0226568
0.0225715
0.0224878
0.0224054
0.0223245
0.0222449
0.0221666
0.0220896
0.0220139
0.0219395
0.0218665
0.0217948
0.0217245
0.0216555
0.0215878
0.0215214
0.0214564
0.0213926
0.02133
0.0212685
0.0212082
0.0211487
0.0210902
0.0210323
0.0209749
0.0209179
0.0208609
0.0208037
0.0207459
0.0206871
0.0206268
0.0205645
0.0204996
0.0204314
0.0203587
0.0202794
0.0201909
0.0200832
0.019959
0.0196814
0.0833927
0.0716865
0.0632843
0.0569602
0.052044
0.0481276
0.0449459
0.0423184
0.0401186
0.0382552
0.0366608
0.0352846
0.0340873
0.033038
0.0321126
0.0312915
0.030559
0.0299024
0.0293111
0.0287764
0.0282911
0.027849
0.0274451
0.0270749
0.0267348
0.0264215
0.0261323
0.0258648
0.0256168
0.0253865
0.0251723
0.0249727
0.0247864
0.0246122
0.024449
0.0242958
0.0241516
0.0240156
0.023887
0.0237651
0.0236491
0.0235384
0.0234323
0.0233304
0.0232321
0.023137
0.0230447
0.0229548
0.0228672
0.0227814
0.0226975
0.0226151
0.0225343
0.0224548
0.0223767
0.0223
0.0222246
0.0221506
0.0220779
0.0220066
0.0219368
0.0218683
0.0218014
0.0217359
0.021672
0.0216095
0.0215485
0.0214889
0.0214307
0.0213739
0.0213184
0.0212641
0.0212108
0.0211585
0.021107
0.0210561
0.0210056
0.0209552
0.0209045
0.020853
0.0208003
0.0207459
0.0206895
0.0206306
0.0205682
0.0205008
0.0204264
0.0203362
0.0202329
0.0199916
0.0833915
0.0716839
0.0632803
0.0569548
0.0520371
0.0481191
0.0449355
0.042306
0.0401041
0.0382386
0.0366427
0.0352657
0.0340681
0.0330191
0.0320941
0.0312734
0.0305414
0.0298851
0.0292941
0.0287596
0.0282745
0.0278325
0.0274287
0.0270588
0.0267189
0.0264061
0.0261174
0.0258507
0.0256038
0.0253748
0.0251623
0.0249646
0.0247807
0.0246091
0.0244489
0.0242991
0.0241586
0.0240267
0.0239024
0.023785
0.0236738
0.0235681
0.0234671
0.02337
0.0232763
0.0231858
0.0230981
0.0230129
0.02293
0.022849
0.0227697
0.0226921
0.022616
0.0225413
0.022468
0.0223961
0.0223255
0.0222564
0.0221887
0.0221224
0.0220578
0.0219946
0.0219332
0.0218733
0.0218152
0.0217588
0.0217041
0.0216512
0.0216
0.0215506
0.0215028
0.0214567
0.0214121
0.0213691
0.0213274
0.0212869
0.0212474
0.0212085
0.02117
0.0211312
0.0210915
0.0210506
0.0210084
0.0209646
0.0209189
0.0208705
0.0208186
0.0207587
0.0207011
0.0205289
0.0833903
0.0716812
0.0632762
0.0569491
0.0520297
0.0481098
0.0449242
0.0422925
0.0400882
0.0382207
0.0366241
0.0352477
0.0340513
0.0330035
0.0320793
0.0312592
0.0305272
0.0298706
0.0292788
0.0287432
0.0282567
0.0278134
0.0274083
0.0270371
0.0266962
0.0263827
0.0260937
0.0258272
0.025581
0.0253533
0.0251427
0.0249475
0.0247662
0.0245976
0.0244407
0.0242945
0.024158
0.0240303
0.0239104
0.0237975
0.0236906
0.0235891
0.0234922
0.0233992
0.0233096
0.023223
0.0231388
0.0230569
0.0229768
0.0228985
0.0228217
0.0227463
0.0226724
0.0226
0.022529
0.0224594
0.0223913
0.0223248
0.0222598
0.0221964
0.0221347
0.0220746
0.0220163
0.0219596
0.0219046
0.0218513
0.0217997
0.0217498
0.0217015
0.0216547
0.0216094
0.0215656
0.021523
0.0214817
0.0214415
0.0214022
0.0213635
0.0213251
0.0212866
0.0212471
0.0212058
0.0211626
0.0211178
0.0210714
0.0210232
0.0209729
0.0209208
0.0208652
0.0208213
0.0207329
0.0833891
0.0716786
0.0632719
0.0569431
0.0520216
0.0480992
0.0449101
0.0422739
0.0400633
0.0381882
0.0365958
0.0352361
0.0340616
0.0330341
0.0321248
0.0313121
0.0305803
0.0299173
0.0293142
0.0287638
0.0282605
0.0277996
0.0273771
0.0269898
0.0266345
0.0263085
0.0260094
0.0257348
0.0254827
0.025251
0.025038
0.0248419
0.0246613
0.0244948
0.024341
0.0241988
0.0240667
0.0239438
0.0238284
0.0237194
0.0236158
0.0235167
0.0234214
0.0233291
0.0232395
0.0231521
0.0230667
0.0229833
0.0229017
0.022822
0.0227439
0.0226675
0.0225926
0.0225192
0.0224473
0.0223769
0.0223081
0.0222409
0.0221754
0.0221116
0.0220495
0.0219891
0.0219306
0.0218738
0.0218188
0.0217655
0.0217141
0.0216644
0.0216165
0.0215703
0.0215259
0.0214831
0.021442
0.0214026
0.0213646
0.021328
0.0212927
0.0212582
0.0212243
0.0211891
0.0211511
0.0211113
0.021071
0.0210304
0.0209892
0.0209466
0.0209027
0.0208558
0.0208184
0.0207534
0.0833879
0.0716759
0.0632677
0.0569372
0.0520136
0.0480886
0.0448963
0.042256
0.0400395
0.0381606
0.0376092
0.0373417
0.03693
0.0362999
0.0354927
0.034577
0.0336145
0.0326511
0.0317181
0.0308354
0.0300141
0.0292597
0.0285735
0.0279542
0.0273987
0.0269029
0.0264614
0.026068
0.0257163
0.0253992
0.0251097
0.02484
0.0246023
0.0244047
0.0242376
0.0240934
0.0239663
0.0238515
0.0237459
0.0236471
0.0235531
0.0234625
0.0233741
0.0232873
0.0232042
0.0231262
0.0230536
0.0229857
0.0229221
0.022862
0.0228049
0.0227503
0.0226978
0.0226471
0.0225981
0.0225507
0.022505
0.022461
0.0224185
0.0223777
0.0223384
0.0223007
0.0222645
0.0222298
0.0221967
0.0221651
0.0221349
0.0221063
0.0220792
0.0220536
0.0220295
0.022007
0.021986
0.0219667
0.0219491
0.021933
0.0219185
0.0219051
0.0218925
0.0218776
0.0217673
0.0216367
0.021511
0.0213972
0.0212962
0.0212057
0.0211237
0.021045
0.020979
0.0208844
0.0833868
0.0716733
0.0632634
0.0569308
0.0520046
0.0480757
0.0448768
0.0422247
0.0399766
0.038213
0.118881
0.142486
0.142315
0.133951
0.12372
0.113924
0.105279
0.0979133
0.0917496
0.0866541
0.0824886
0.0791261
0.0764537
0.0743706
0.0727858
0.0716159
0.0707838
0.0702187
0.0698559
0.0696383
0.0695174
0.0694528
0.0694242
0.0694305
0.0694677
0.0695239
0.0695876
0.0696504
0.0697077
0.0697581
0.0698027
0.0698452
0.0698841
0.0699187
0.0699481
0.0699755
0.0700085
0.0700549
0.070122
0.0702166
0.070343
0.0705039
0.0707017
0.0709382
0.0712142
0.0715295
0.0718838
0.0722784
0.0727146
0.0731928
0.0737133
0.0742758
0.0748799
0.0755249
0.0762097
0.0769331
0.0776936
0.0784896
0.079319
0.08018
0.0810701
0.0819865
0.0829264
0.0838872
0.0848676
0.0858681
0.0868984
0.0879784
0.0892369
0.0904002
0.057876
0.0420386
0.033499
0.0285594
0.0255651
0.0236913
0.0224926
0.0217058
0.0211888
0.020769
0.0833856
0.0716707
0.0632593
0.0569251
0.0519968
0.0480655
0.0448634
0.0422074
0.0399539
0.0381849
0.118873
0.142531
0.142298
0.133792
0.123386
0.113402
0.104572
0.09703
0.0907035
0.0854612
0.0811666
0.0776944
0.0749333
0.0727839
0.0711562
0.0699669
0.0691381
0.0685969
0.0682759
0.068114
0.0680575
0.0680605
0.0680855
0.0681038
0.0680943
0.0680423
0.0679378
0.067774
0.0675475
0.0672574
0.0669043
0.0664904
0.0660259
0.0655188
0.064974
0.0643984
0.0637989
0.0631828
0.0625557
0.0619217
0.0612852
0.0606505
0.0600219
0.0594035
0.0587994
0.0582137
0.0576509
0.0571158
0.0566128
0.056147
0.0557247
0.0553518
0.0550343
0.0547785
0.0545909
0.0544781
0.0544464
0.0545014
0.0546479
0.0548894
0.0552286
0.0556666
0.0562036
0.056839
0.0575723
0.0584031
0.0593365
0.060375
0.0616175
0.0628018
0.0437888
0.0337908
0.0280536
0.0245597
0.0223505
0.020922
0.0199856
0.0193512
0.0189081
0.0184529
0.0833845
0.0716682
0.0632554
0.0569194
0.0519891
0.0480553
0.0448498
0.0421894
0.0399295
0.0381524
0.118645
0.142295
0.142116
0.133665
0.123299
0.113337
0.104513
0.0969684
0.0906342
0.0853842
0.0810862
0.0776184
0.0748729
0.0727529
0.07117
0.0700422
0.0692912
0.0688434
0.0686295
0.0685862
0.0686574
0.0687952
0.0689603
0.0691217
0.0692567
0.0693498
0.0693907
0.0693729
0.0692935
0.069152
0.0689495
0.0686887
0.0683732
0.0680078
0.067598
0.0671499
0.0666701
0.0661649
0.0656402
0.0651016
0.0645538
0.064001
0.0634461
0.0628916
0.0623385
0.061787
0.0612365
0.0606864
0.0601357
0.0595837
0.0590292
0.0584714
0.0579102
0.0573455
0.0567769
0.0562042
0.0556275
0.0550475
0.0544651
0.0538824
0.0533016
0.0527259
0.0521589
0.0516055
0.0510718
0.0505655
0.0500998
0.0496848
0.0494005
0.049038
0.0345627
0.0272159
0.0231137
0.0206377
0.0190418
0.0179514
0.0171645
0.0165464
0.016031
0.0153889
0.0833834
0.0716658
0.0632516
0.0569143
0.0519825
0.048047
0.0448396
0.0421771
0.0399149
0.0381357
0.118565
0.142213
0.142044
0.133601
0.123235
0.113268
0.104437
0.0968829
0.0905403
0.0852834
0.0809806
0.0775111
0.0747671
0.0726526
0.0710797
0.0699664
0.0692348
0.0688112
0.068626
0.0686156
0.0687235
0.0689013
0.0691092
0.0693164
0.0695
0.0696437
0.0697367
0.0697714
0.0697436
0.0696519
0.0694964
0.0692792
0.0690038
0.0686751
0.0682998
0.0678867
0.0674447
0.0669829
0.0665101
0.0660342
0.0655621
0.0650996
0.0646683
0.0642706
0.063903
0.0635613
0.0632423
0.062944
0.0626648
0.0624053
0.0621671
0.0619515
0.0617588
0.0615885
0.0614407
0.0613154
0.0612124
0.061131
0.0610702
0.0610288
0.0610057
0.0609991
0.0610077
0.0610302
0.0610666
0.0611185
0.0611953
0.0613135
0.0615824
0.0620347
0.043941
0.0351003
0.030267
0.0273659
0.0254697
0.0241216
0.0230755
0.022172
0.021302
0.0204433
0.0833824
0.0716634
0.0632481
0.0569095
0.0519765
0.0480395
0.0448306
0.0421662
0.0399021
0.0381207
0.118468
0.14209
0.14192
0.133483
0.123125
0.113163
0.104334
0.0967808
0.090437
0.0851782
0.0808737
0.0774034
0.0746603
0.0725487
0.0709812
0.0698757
0.0691547
0.068744
0.0685741
0.0685811
0.0687082
0.0689069
0.0691376
0.0693691
0.0695783
0.0697487
0.0698683
0.0699282
0.0699227
0.0698484
0.0697034
0.0694883
0.0692055
0.0688597
0.0684587
0.0680124
0.0675314
0.0670261
0.0665067
0.0659819
0.0654593
0.0649451
0.0644438
0.0639592
0.0634936
0.0630484
0.0626241
0.0622209
0.0618386
0.0614875
0.061167
0.0608728
0.0606009
0.0603479
0.0601119
0.0598916
0.0596869
0.0594993
0.0593305
0.0591814
0.0590528
0.0589456
0.0588618
0.0588037
0.058775
0.0587806
0.0588332
0.0589524
0.0592448
0.0597588
0.0427056
0.0344042
0.0298949
0.027215
0.0254859
0.0242746
0.0233474
0.0225521
0.0217637
0.0207559
0.0833813
0.0716612
0.0632448
0.0569052
0.0519712
0.0480333
0.0448234
0.042158
0.0398929
0.0381103
0.1184
0.141994
0.141811
0.133366
0.123002
0.113037
0.104206
0.0966501
0.0903051
0.0850461
0.0807423
0.0772739
0.0745339
0.0724268
0.0708649
0.0697663
0.0690531
0.068651
0.0684902
0.0685066
0.0686434
0.0688523
0.0690938
0.0693373
0.0695598
0.0697446
0.0698792
0.0699534
0.0699589
0.0698898
0.0697411
0.0695106
0.0691996
0.0688124
0.0683578
0.0678479
0.0672958
0.0667144
0.0661157
0.06551
0.0649057
0.0643093
0.0637254
0.0631569
0.0626057
0.0620723
0.0615564
0.0610572
0.0605735
0.0601037
0.0596462
0.0591994
0.0587614
0.0583301
0.0579036
0.0574799
0.0570571
0.0566333
0.0562068
0.055776
0.0553393
0.0548952
0.0544427
0.0539811
0.0535106
0.0530322
0.0525512
0.052069
0.0516478
0.0510884
0.0363033
0.0289584
0.0249391
0.0225352
0.0209606
0.0198246
0.0189229
0.0181263
0.0173864
0.0164305
0.0833803
0.0716591
0.0632417
0.0569014
0.0519667
0.0480282
0.044818
0.0421524
0.0398873
0.0381046
0.118364
0.141931
0.141722
0.133255
0.122873
0.112894
0.104052
0.0964891
0.0901406
0.0848812
0.08058
0.0771167
0.074384
0.0722855
0.0707333
0.0696444
0.06894
0.0685453
0.0683899
0.0684097
0.0685481
0.0687576
0.0690001
0.0692463
0.0694746
0.0696693
0.0698178
0.0699082
0.0699294
0.0698705
0.0697215
0.0694758
0.0691319
0.0686938
0.0681726
0.0675839
0.0669445
0.0662712
0.0655789
0.06488
0.0641843
0.0634987
0.062828
0.0621748
0.0615402
0.0609239
0.0603247
0.0597412
0.0591714
0.0586133
0.0580648
0.0575239
0.0569886
0.0564573
0.0559284
0.0554007
0.0548734
0.054346
0.0538186
0.053292
0.0527674
0.0522471
0.0517342
0.0512331
0.0507499
0.0502925
0.0498739
0.0495039
0.0492591
0.0489336
0.0346713
0.0275292
0.0236139
0.0213036
0.0198491
0.0188746
0.0181794
0.0176336
0.0171768
0.0165808
0.0833793
0.071657
0.0632388
0.0568978
0.0519627
0.048024
0.0448137
0.0421482
0.0398832
0.0381002
0.118302
0.141814
0.141566
0.133079
0.122689
0.11271
0.103874
0.0963208
0.089984
0.0847384
0.0804538
0.0770103
0.0743012
0.0722301
0.070708
0.0696508
0.0689781
0.0686137
0.0684867
0.0685333
0.0686987
0.0689381
0.0692165
0.069508
0.0697937
0.0700593
0.0702908
0.0704722
0.0705845
0.0706065
0.0705166
0.0702994
0.0699497
0.0694734
0.0688881
0.0682189
0.0674928
0.0667353
0.0659685
0.0652097
0.0644716
0.0637622
0.0630865
0.0624463
0.0618414
0.0612698
0.0607293
0.0602178
0.0597335
0.0592749
0.0588403
0.0584285
0.0580387
0.0576706
0.0573244
0.0570008
0.0567012
0.0564275
0.0561821
0.0559681
0.055789
0.0556488
0.0555521
0.0555045
0.0555128
0.0555854
0.0557365
0.055989
0.0564459
0.056931
0.0402961
0.0319659
0.0273838
0.0246685
0.0229579
0.0218207
0.0210252
0.0204278
0.0199477
0.0194023
0.0833784
0.071655
0.0632362
0.0568948
0.0519597
0.0480216
0.0448126
0.0421497
0.039889
0.0381119
0.1184
0.141868
0.141542
0.132985
0.122547
0.112549
0.103724
0.0962146
0.0899576
0.0848299
0.0807019
0.0774521
0.0749686
0.0731472
0.0718892
0.0711006
0.0706925
0.0705835
0.0707011
0.0709835
0.0713802
0.0718521
0.0723701
0.0729125
0.0734626
0.074004
0.0745166
0.0749716
0.0753311
0.0755495
0.0755805
0.0753915
0.0749722
0.0743373
0.073524
0.072583
0.0715681
0.0705295
0.06951
0.0685424
0.0676496
0.0668459
0.0661377
0.0655259
0.0650068
0.0645743
0.0642241
0.0639513
0.0637487
0.0636083
0.0635218
0.0634823
0.0634839
0.0635227
0.0635958
0.0637018
0.0638404
0.0640117
0.0642164
0.0644559
0.0647314
0.0650447
0.0653981
0.065794
0.0662371
0.0667349
0.0673035
0.068025
0.069058
0.0704065
0.0489999
0.0382263
0.0321794
0.0285011
0.0261253
0.0245176
0.023386
0.0225529
0.021905
0.021291
0.0833774
0.0716531
0.0632336
0.0568919
0.0519568
0.0480191
0.0448112
0.0421499
0.0398923
0.0381171
0.118228
0.141577
0.141296
0.132868
0.122685
0.113098
0.104856
0.0980931
0.0927249
0.0885935
0.0855256
0.083352
0.0819153
0.0810727
0.080698
0.0806824
0.080935
0.0813823
0.0819672
0.082647
0.0833914
0.0841798
0.0849992
0.0858411
0.0866984
0.0875611
0.0884105
0.0892123
0.089913
0.0904373
0.0906974
0.0906184
0.0901572
0.0893126
0.0881258
0.0866677
0.0850239
0.0832835
0.0815314
0.0798427
0.0782799
0.0768911
0.0757102
0.0747565
0.0740361
0.0735457
0.0733128
0.0733199
0.0735169
0.0738506
0.0742764
0.0747612
0.0752822
0.0758247
0.0763802
0.0769441
0.0775144
0.0780908
0.0786736
0.0792637
0.0798622
0.0804703
0.0810897
0.0817223
0.082372
0.083046
0.0837627
0.0845563
0.0855802
0.0867327
0.0568736
0.0422374
0.0342565
0.0295604
0.0266426
0.0247554
0.023496
0.0226305
0.0220234
0.0215399
0.0833765
0.0716513
0.0632312
0.0568895
0.051955
0.0480192
0.044816
0.0421645
0.0399369
0.038045
0.0367426
0.0356279
0.0345075
0.0334828
0.0325377
0.0316663
0.0308654
0.0301321
0.0294628
0.0288541
0.0283018
0.0278019
0.0273506
0.0269437
0.0265778
0.0262491
0.0259544
0.0256909
0.0254558
0.0252469
0.0250623
0.0249004
0.0247603
0.0246413
0.0245433
0.0244668
0.0244121
0.0243787
0.0243654
0.0243686
0.0243818
0.0243974
0.0244074
0.024405
0.0243856
0.0243459
0.0242852
0.0242051
0.0241083
0.0239979
0.0238776
0.023751
0.0236216
0.0234923
0.023366
0.0232446
0.02313
0.0230235
0.0229255
0.0228363
0.0227556
0.0226829
0.0226173
0.0225582
0.0225047
0.0224562
0.0224118
0.0223711
0.0223335
0.0222985
0.0222659
0.0222353
0.0222065
0.0221794
0.0221539
0.0221298
0.022107
0.0220853
0.0220647
0.0220425
0.0219345
0.021808
0.0216861
0.0215754
0.0214769
0.0213895
0.0213115
0.02124
0.0211828
0.0210979
0.0833756
0.0716494
0.0632287
0.0568865
0.051952
0.0480166
0.0448143
0.0421645
0.0399397
0.0380497
0.0364322
0.0350375
0.0338237
0.0327582
0.0318159
0.0309769
0.0302257
0.0295495
0.0289384
0.0283839
0.0278795
0.0274194
0.026999
0.0266145
0.0262626
0.0259406
0.0256463
0.0253776
0.0251331
0.0249115
0.0247119
0.0245336
0.0243764
0.0242408
0.0241275
0.0240381
0.0239745
0.0239377
0.0239274
0.0239398
0.0239665
0.0239968
0.02402
0.0240276
0.0240147
0.0239796
0.0239229
0.0238465
0.0237531
0.023646
0.0235287
0.0234043
0.0232759
0.0231459
0.0230163
0.0228889
0.0227652
0.0226461
0.0225327
0.0224255
0.0223248
0.0222309
0.0221438
0.0220633
0.0219892
0.0219213
0.0218591
0.0218024
0.0217507
0.0217036
0.0216608
0.021622
0.0215867
0.0215547
0.0215257
0.0214994
0.0214756
0.0214538
0.0214335
0.0214133
0.0213913
0.0213682
0.0213453
0.0213229
0.0213008
0.0212786
0.0212561
0.0212313
0.0212138
0.0211537
0.0833747
0.0716475
0.0632261
0.0568836
0.0519491
0.0480141
0.044813
0.0421654
0.0399446
0.0380597
0.0364448
0.035049
0.0338321
0.0327626
0.031816
0.0309726
0.0302168
0.029536
0.02892
0.0283604
0.0278504
0.0273843
0.0269574
0.026566
0.0262067
0.0258769
0.0255744
0.0252974
0.0250443
0.0248141
0.0246059
0.0244194
0.0242546
0.0241124
0.0239946
0.0239042
0.0238449
0.0238206
0.0238339
0.0238807
0.0239487
0.024022
0.0240843
0.0241234
0.0241331
0.0241116
0.0240603
0.0239822
0.0238815
0.0237626
0.0236308
0.0234904
0.0233447
0.0231958
0.0230472
0.0229017
0.0227614
0.0226278
0.0225022
0.0223852
0.0222773
0.0221787
0.0220893
0.0220091
0.0219378
0.0218748
0.0218199
0.0217725
0.0217322
0.0216983
0.0216705
0.0216481
0.0216306
0.0216176
0.0216084
0.0216026
0.0215995
0.0215984
0.0215986
0.0215989
0.0215982
0.021596
0.0215922
0.0215866
0.0215785
0.0215668
0.0215499
0.0215221
0.021485
0.021359
0.0833737
0.0716456
0.0632233
0.0568801
0.0519451
0.0480097
0.0448083
0.0421604
0.0399391
0.0380533
0.0364358
0.0350361
0.0338146
0.0327404
0.031789
0.030941
0.0301807
0.0294954
0.0288748
0.0283106
0.0277958
0.0273247
0.0268928
0.0264962
0.0261316
0.0257965
0.0254887
0.0252063
0.0249477
0.024712
0.0244982
0.0243061
0.0241358
0.0239887
0.0238673
0.0237763
0.0237224
0.0237145
0.0237622
0.0238637
0.0240023
0.0241524
0.0242864
0.024385
0.0244395
0.0244485
0.024415
0.0243442
0.0242427
0.0241173
0.023978
0.0238291
0.0236753
0.0235208
0.0233688
0.0232224
0.0230839
0.0229551
0.0228375
0.0227322
0.0226398
0.0225605
0.0224944
0.0224412
0.0224002
0.0223706
0.0223514
0.0223414
0.0223394
0.0223439
0.0223536
0.0223671
0.0223828
0.0223996
0.0224162
0.0224313
0.022444
0.0224533
0.0224582
0.0224579
0.0224512
0.0224374
0.0224161
0.0223867
0.0223488
0.0223011
0.0222424
0.0221664
0.0220748
0.0218826
0.0833728
0.0716436
0.0632204
0.0568765
0.0519407
0.0480047
0.0448028
0.0421544
0.0399326
0.0380459
0.0364269
0.0350247
0.0337997
0.0327214
0.0317653
0.0309121
0.0301462
0.0294551
0.0288284
0.0282579
0.0277366
0.027259
0.0268205
0.0264173
0.0260462
0.0257047
0.0253906
0.025102
0.0248374
0.0245954
0.0243752
0.0241762
0.0239986
0.0238436
0.0237142
0.0236172
0.0235629
0.0235695
0.0236702
0.0238838
0.0241949
0.0245522
0.0248918
0.0251735
0.0253806
0.0255114
0.0255727
0.0255756
0.0255325
0.0254555
0.0253648
0.0252731
0.0251868
0.0251107
0.0250481
0.0250012
0.0249705
0.0249558
0.0249556
0.0249679
0.0249898
0.0250184
0.0250507
0.0250836
0.0251145
0.025141
0.0251611
0.0251734
0.0251766
0.0251702
0.0251537
0.025127
0.0250903
0.0250439
0.0249881
0.0249234
0.0248505
0.0247697
0.0246815
0.0245862
0.0244839
0.0243748
0.024259
0.0241364
0.0240069
0.0238693
0.0237225
0.0235597
0.0233825
0.0231092
0.0833719
0.0716416
0.0632174
0.0568725
0.0519358
0.0479987
0.0447956
0.0421458
0.0399224
0.0380335
0.0364117
0.0350058
0.0337767
0.0326936
0.0317324
0.0308737
0.0301021
0.0294049
0.0287719
0.0281948
0.0276667
0.0271821
0.0267365
0.0263261
0.0259479
0.0255994
0.0252784
0.024983
0.0247116
0.0244626
0.024235
0.0240277
0.0238405
0.0236743
0.0235316
0.0234211
0.0233566
0.0233757
0.0236223
0.0242417
0.0252276
0.0263848
0.0274957
0.0284658
0.029263
0.0298933
0.0303795
0.0307489
0.0310272
0.031236
0.0313843
0.0315186
0.0316331
0.0317198
0.0317726
0.031788
0.0317649
0.0317044
0.0316089
0.0314821
0.031328
0.0311505
0.0309537
0.030741
0.0305158
0.0302807
0.0300382
0.0297902
0.0295385
0.0292845
0.0290294
0.0287742
0.0285198
0.0282666
0.0280153
0.0277663
0.0275197
0.0272758
0.0270344
0.0267956
0.026559
0.0263242
0.0260909
0.0258584
0.0256259
0.0253916
0.0251537
0.0249046
0.0246445
0.0242965
0.083371
0.0716396
0.0632144
0.0568684
0.0519306
0.0479923
0.0447878
0.0421365
0.0399112
0.0380201
0.0363955
0.0349863
0.0337531
0.0326654
0.0316991
0.0308347
0.0300568
0.0293528
0.0287125
0.0281276
0.0275914
0.0270984
0.0266441
0.026225
0.0258381
0.0254811
0.0251518
0.0248484
0.024569
0.0243119
0.0240755
0.0238584
0.023659
0.0234769
0.0233125
0.0231749
0.0230782
0.0231049
0.024047
0.0266497
0.030635
0.0348807
0.0385526
0.0414368
0.0435139
0.0448866
0.0456845
0.0460329
0.0460407
0.0457983
0.0453772
0.0448018
0.0441158
0.0433517
0.0425396
0.0417048
0.0408671
0.0400408
0.0392358
0.0384583
0.0377116
0.0369972
0.0363151
0.0356643
0.0350436
0.0344513
0.0338856
0.0333448
0.0328273
0.0323317
0.0318564
0.0314002
0.0309619
0.0305414
0.0301378
0.0297492
0.029374
0.0290108
0.0286586
0.0283163
0.0279826
0.0276566
0.0273369
0.0270222
0.0267118
0.0264057
0.026101
0.025789
0.0254678
0.0250657
0.0833702
0.0716377
0.0632114
0.0568643
0.0519252
0.0479855
0.0447794
0.0421262
0.0398986
0.0380048
0.036377
0.034964
0.0337264
0.0326337
0.0316617
0.0307911
0.0300063
0.0292949
0.0286465
0.0280529
0.0275075
0.0270048
0.0265406
0.0261114
0.0257146
0.0253478
0.025009
0.0246965
0.0244084
0.0241426
0.0238973
0.0236704
0.0234594
0.0232623
0.0230751
0.0229056
0.0227585
0.0228772
0.0276469
0.0387768
0.0520945
0.0626773
0.0690219
0.0717961
0.0719679
0.0705076
0.0681523
0.0653992
0.0625529
0.0597811
0.0571545
0.0546986
0.0524352
0.0503749
0.0485117
0.0468303
0.0453118
0.0439365
0.0426856
0.0415427
0.0404938
0.0395279
0.0386384
0.0378142
0.037043
0.0363168
0.0356299
0.0349782
0.0343582
0.0337676
0.0332039
0.0326652
0.0321498
0.0316562
0.0311827
0.030728
0.0302908
0.0298696
0.0294633
0.0290704
0.0286897
0.0283198
0.027959
0.0276055
0.027257
0.0269096
0.0265587
0.0261923
0.0258198
0.0253795
0.0833694
0.0716359
0.0632086
0.0568603
0.05192
0.0479788
0.044771
0.0421158
0.0398858
0.0379892
0.0363581
0.0349412
0.0336991
0.0326012
0.0316233
0.030746
0.0299538
0.029234
0.0285764
0.0279729
0.0274167
0.0269026
0.0264265
0.0259852
0.0255763
0.0251979
0.0248481
0.0245252
0.0242271
0.0239519
0.0236974
0.0234614
0.0232402
0.0230299
0.0228189
0.0226073
0.0223548
0.0229171
0.0428694
0.0736006
0.0976872
0.108825
0.10924
0.103604
0.095526
0.0871192
0.0793859
0.0726779
0.0670254
0.0623231
0.0584266
0.0551902
0.0524863
0.0502039
0.048253
0.0465662
0.0450981
0.0438143
0.0426587
0.0415991
0.0406161
0.0396975
0.0388346
0.0380208
0.0372512
0.0365216
0.0358286
0.0351694
0.0345415
0.0339426
0.0333707
0.0328239
0.0323006
0.0317992
0.0313181
0.0308559
0.0304113
0.0299829
0.0295694
0.0291694
0.0287817
0.0284048
0.028037
0.0276764
0.0273205
0.0269653
0.0266059
0.0262292
0.0258141
0.0253394
0.0833688
0.0716344
0.0632061
0.0568567
0.0519151
0.0479724
0.0447628
0.0421054
0.0398729
0.0379734
0.0363387
0.0349177
0.0336708
0.0325674
0.0315831
0.0306985
0.029898
0.029169
0.0285011
0.027886
0.0273174
0.0267899
0.0262998
0.0258441
0.0254211
0.025029
0.0246665
0.024332
0.0240234
0.0237388
0.0234766
0.023236
0.0230156
0.022815
0.0226239
0.0224426
0.0222137
0.0228372
0.0447263
0.0782695
0.104342
0.115196
0.11506
0.108677
0.0996113
0.0901338
0.0813841
0.0737889
0.0674076
0.0621402
0.0578273
0.0543086
0.0514389
0.0491229
0.0472116
0.0455874
0.0441738
0.0429187
0.0417859
0.0407502
0.0397938
0.0389036
0.0380703
0.0372867
0.0365472
0.0358473
0.0351834
0.0345524
0.0339515
0.0333786
0.0328314
0.0323082
0.0318072
0.0313268
0.0308655
0.030422
0.0299949
0.0295829
0.0291847
0.0287991
0.0284246
0.0280599
0.0277032
0.0273526
0.0270054
0.0266577
0.0263044
0.0259323
0.0255186
0.0250068
0.0833683
0.0716332
0.0632041
0.0568537
0.0519107
0.0479666
0.0447552
0.0420956
0.0398606
0.037958
0.0363198
0.0348945
0.0336427
0.0325334
0.0315424
0.03065
0.0298405
0.0291012
0.0284215
0.0277933
0.02721
0.0266666
0.0261596
0.0256866
0.0252462
0.0248378
0.0244605
0.0241129
0.0237926
0.0234978
0.0232279
0.0229855
0.0227755
0.0226093
0.0224882
0.0224282
0.0223339
0.0229623
0.0440349
0.0773485
0.103774
0.115018
0.115109
0.108945
0.100082
0.0907953
0.0822008
0.0747043
0.0683543
0.063039
0.0586077
0.0549411
0.051935
0.0494172
0.0472728
0.0454214
0.0438039
0.0423754
0.0411017
0.0399557
0.0389163
0.0379669
0.0370939
0.0362867
0.0355363
0.0348356
0.0341785
0.0335599
0.0329755
0.0324215
0.0318948
0.0313927
0.0309127
0.0304528
0.0300112
0.0295863
0.0291767
0.028781
0.028398
0.0280265
0.0276652
0.0273128
0.0269678
0.0266281
0.0262912
0.025953
0.0256086
0.0252444
0.0248381
0.0243295
0.083368
0.0716324
0.0632025
0.0568512
0.0519071
0.0479615
0.0447483
0.0420866
0.039849
0.0379434
0.0363015
0.0348719
0.0336149
0.0324997
0.0315015
0.0306008
0.0297815
0.0290307
0.0283379
0.0276947
0.0270943
0.0265321
0.0260048
0.0255107
0.0250495
0.0246215
0.0242273
0.0238655
0.0235331
0.0232276
0.0229504
0.0227111
0.0225282
0.0224442
0.0224997
0.02277
0.0230151
0.0236665
0.041837
0.0720907
0.0971292
0.10885
0.109888
0.104693
0.0969962
0.088986
0.0815927
0.0750941
0.0694686
0.0645993
0.0603624
0.05671
0.0535372
0.0507472
0.0482793
0.0460907
0.0441475
0.0424205
0.0408835
0.0395123
0.0382853
0.0371829
0.0361879
0.0352851
0.0344615
0.0337058
0.0330083
0.0323609
0.0317568
0.0311901
0.0306561
0.0301506
0.0296703
0.0292122
0.028774
0.0283537
0.0279494
0.0275595
0.0271826
0.0268172
0.026462
0.0261153
0.0257755
0.0254406
0.0251079
0.0247733
0.0244317
0.0240689
0.023663
0.0231515
0.0833678
0.0716319
0.0632015
0.0568493
0.0519041
0.0479571
0.0447423
0.0420785
0.0398384
0.0379298
0.0362843
0.0348503
0.0335882
0.0324668
0.0314612
0.0305517
0.029722
0.0289587
0.0282513
0.0275908
0.0269706
0.0263859
0.0258338
0.0253136
0.0248264
0.0243747
0.0239613
0.0235852
0.0232419
0.0229287
0.0226504
0.0224309
0.0223198
0.0224353
0.0229404
0.024061
0.0249862
0.0255154
0.0265117
0.0303212
0.0373342
0.0448332
0.0512179
0.0563162
0.0598657
0.0618881
0.0625944
0.0622422
0.0610797
0.0593309
0.0571944
0.0548658
0.0524781
0.0501171
0.0478461
0.0457069
0.0437235
0.041906
0.0402538
0.0387599
0.0374126
0.0361983
0.0351026
0.0341111
0.0332103
0.0323879
0.0316325
0.0309345
0.0302856
0.0296784
0.0291072
0.0285667
0.028053