/*--------------------------------*- C++ -*----------------------------------*\
| =========                 |                                                 |
| \\      /  F ield         | OpenFOAM: The Open Source CFD Toolbox           |
|  \\    /   O peration     | Version:  v2012                                 |
|   \\  /    A nd           | Website:  www.openfoam.com                      |
|    \\/     M anipulation  |                                                 |
\*---------------------------------------------------------------------------*/
FoamFile
{
    version     2.0;
    format      ascii;
    class       volScalarField;
    location    "650/air";
    object      nut;
}
// * * * * * * * * * * * * * * * * * * * * * * * * * * * * * * * * * * * * * //

dimensions      [0 2 -1 0 0 0 0];


internalField   nonuniform List<scalar> 
287104
(
0.00648531
0.00601335
0.0056504
0.00536108
0.00512494
0.00492877
0.00476349
0.00462258
0.00450123
0.00439581
0.00430353
0.0042222
0.0041501
0.00408583
0.00402827
0.00397647
0.00392969
0.00388726
0.00384864
0.00381339
0.00378111
0.00375145
0.00372414
0.00369893
0.00367559
0.00365393
0.0036338
0.00361504
0.00359751
0.00358112
0.00356575
0.0035513
0.0035377
0.00352486
0.00351272
0.00350122
0.00349029
0.00347988
0.00346994
0.00346043
0.0034513
0.00344252
0.00343405
0.00342587
0.00341793
0.00341022
0.00340271
0.00339539
0.00338824
0.00338124
0.00337439
0.00336766
0.00336106
0.00335457
0.0033482
0.00334194
0.00333578
0.00332973
0.00332379
0.00331794
0.0033122
0.00330657
0.00330103
0.0032956
0.00329027
0.00328504
0.00327991
0.00327487
0.00326992
0.00326506
0.00326029
0.00325559
0.00325096
0.00324638
0.00324186
0.00323737
0.00323291
0.00322845
0.00322397
0.00321945
0.00321487
0.00321016
0.00320529
0.00320017
0.00319468
0.00318862
0.00318173
0.0031731
0.00316297
0.00313932
0.00648518
0.00601308
0.00565
0.00536057
0.00512433
0.00492808
0.00476273
0.00462176
0.00450035
0.00439489
0.00430256
0.00422121
0.00414908
0.0040848
0.00402723
0.00397544
0.00392866
0.00388624
0.00384764
0.0038124
0.00378014
0.0037505
0.00372321
0.00369802
0.00367471
0.00365308
0.00363298
0.00361426
0.00359678
0.00358043
0.00356511
0.00355073
0.00353719
0.00352443
0.00351237
0.00350095
0.00349012
0.00347981
0.00346997
0.00346057
0.00345156
0.00344289
0.00343454
0.00342647
0.00341864
0.00341104
0.00340365
0.00339643
0.00338937
0.00338246
0.00337569
0.00336903
0.0033625
0.00335607
0.00334975
0.00334353
0.0033374
0.00333138
0.00332545
0.00331961
0.00331388
0.00330824
0.00330269
0.00329725
0.0032919
0.00328665
0.00328149
0.00327642
0.00327144
0.00326655
0.00326174
0.003257
0.00325232
0.00324771
0.00324314
0.0032386
0.00323409
0.00322957
0.00322503
0.00322045
0.00321579
0.003211
0.00320605
0.00320084
0.00319527
0.00318914
0.00318219
0.00317353
0.00316339
0.00314004
0.00648513
0.00601296
0.00564983
0.00536034
0.00512406
0.00492776
0.00476236
0.00462135
0.0044999
0.0043944
0.00430205
0.00422067
0.00414854
0.00408425
0.00402668
0.00397489
0.00392812
0.00388571
0.00384712
0.00381189
0.00377964
0.00375002
0.00372274
0.00369757
0.00367428
0.00365268
0.0036326
0.00361391
0.00359647
0.00358017
0.00356489
0.00355056
0.00353709
0.00352439
0.00351241
0.00350107
0.00349032
0.0034801
0.00347037
0.00346107
0.00345216
0.0034436
0.00343536
0.0034274
0.00341969
0.00341221
0.00340492
0.00339781
0.00339087
0.00338407
0.0033774
0.00337086
0.00336443
0.0033581
0.00335188
0.00334576
0.00333974
0.00333382
0.00332799
0.00332226
0.00331663
0.0033111
0.00330566
0.00330032
0.00329509
0.00328994
0.0032849
0.00327995
0.00327509
0.00327031
0.00326562
0.003261
0.00325645
0.00325196
0.00324752
0.00324311
0.00323871
0.00323431
0.00322989
0.00322542
0.00322086
0.00321618
0.00321131
0.0032062
0.00320072
0.00319468
0.00318785
0.00317935
0.00316941
0.00314664
0.00648507
0.00601284
0.00564963
0.00536007
0.0051237
0.00492733
0.00476186
0.00462077
0.00449926
0.00439369
0.00430129
0.00421988
0.00414772
0.00408342
0.00402584
0.00397404
0.00392726
0.00388485
0.00384626
0.00381103
0.00377878
0.00374916
0.00372188
0.00369671
0.00367342
0.00365183
0.00363177
0.00361309
0.00359567
0.0035794
0.00356416
0.00354988
0.00353646
0.00352383
0.00351191
0.00350066
0.00348999
0.00347987
0.00347023
0.00346104
0.00345224
0.00344379
0.00343566
0.00342781
0.00342021
0.00341284
0.00340565
0.00339864
0.00339179
0.00338507
0.00337848
0.00337201
0.00336564
0.00335937
0.0033532
0.00334712
0.00334114
0.00333524
0.00332944
0.00332373
0.00331811
0.00331258
0.00330715
0.00330182
0.00329658
0.00329143
0.00328637
0.0032814
0.00327652
0.00327172
0.003267
0.00326235
0.00325775
0.00325321
0.00324871
0.00324422
0.00323974
0.00323524
0.0032307
0.00322609
0.00322137
0.00321649
0.00321142
0.00320607
0.00320034
0.00319405
0.00318698
0.00317825
0.00316811
0.00314529
0.00648503
0.00601273
0.00564946
0.00535983
0.0051234
0.00492696
0.00476142
0.00462026
0.00449868
0.00439305
0.0043006
0.00421915
0.00414696
0.00408265
0.00402506
0.00397327
0.0039265
0.00388409
0.0038455
0.00381028
0.00377803
0.00374841
0.00372114
0.00369598
0.0036727
0.00365112
0.00363107
0.00361242
0.00359503
0.00357879
0.00356361
0.00354938
0.00353602
0.00352347
0.00351164
0.00350048
0.00348993
0.00347992
0.00347041
0.00346134
0.00345268
0.00344437
0.00343638
0.00342867
0.0034212
0.00341396
0.00340691
0.00340003
0.0033933
0.0033867
0.00338023
0.00337386
0.00336759
0.00336143
0.00335535
0.00334936
0.00334346
0.00333765
0.00333193
0.0033263
0.00332076
0.00331531
0.00330996
0.0033047
0.00329953
0.00329446
0.00328948
0.00328458
0.00327978
0.00327505
0.0032704
0.00326582
0.0032613
0.00325682
0.00325238
0.00324796
0.00324353
0.00323908
0.00323458
0.00323
0.00322529
0.00322042
0.00321534
0.00320999
0.00320428
0.00319804
0.00319106
0.00318254
0.00317269
0.00315056
0.00648498
0.00601261
0.00564927
0.00535957
0.00512306
0.00492654
0.0047609
0.00461965
0.00449798
0.00439228
0.00429977
0.0042183
0.00414611
0.0040818
0.00402423
0.00397244
0.00392568
0.00388327
0.00384468
0.00380946
0.00377719
0.00374757
0.00372029
0.00369512
0.00367184
0.00365026
0.00363023
0.0036116
0.00359424
0.00357805
0.00356292
0.00354877
0.00353551
0.00352306
0.00351136
0.00350034
0.00348994
0.0034801
0.00347078
0.00346191
0.00345345
0.00344535
0.00343758
0.0034301
0.00342287
0.00341585
0.00340903
0.00340238
0.00339588
0.00338951
0.00338326
0.00337712
0.00337107
0.00336513
0.00335927
0.00335351
0.00334784
0.00334226
0.00333677
0.00333138
0.00332609
0.0033209
0.00331581
0.00331083
0.00330596
0.00330119
0.00329653
0.00329197
0.00328751
0.00328316
0.00327889
0.00327471
0.00327061
0.00326658
0.00326261
0.00325867
0.00325477
0.00325086
0.00324693
0.00324293
0.00323883
0.0032346
0.00323021
0.00322561
0.00322073
0.00321546
0.00320962
0.00320253
0.00319439
0.0031753
0.00648493
0.0060125
0.00564909
0.00535932
0.00512272
0.0049261
0.00476035
0.00461898
0.00449717
0.00439132
0.00429871
0.00421717
0.00414495
0.00408063
0.00402306
0.0039713
0.00392454
0.00388215
0.00384357
0.00380835
0.00377609
0.00374646
0.00371918
0.00369402
0.00367075
0.00364919
0.00362919
0.00361061
0.00359333
0.00357723
0.00356221
0.0035482
0.0035351
0.00352284
0.00351136
0.00350058
0.00349045
0.00348091
0.00347189
0.00346336
0.00345525
0.00344752
0.00344013
0.00343301
0.00342612
0.00341946
0.00341298
0.00340669
0.00340054
0.00339453
0.00338864
0.00338286
0.00337718
0.0033716
0.00336611
0.00336072
0.00335543
0.00335023
0.00334513
0.00334013
0.00333525
0.00333047
0.00332582
0.00332128
0.00331686
0.00331257
0.00330841
0.00330438
0.00330047
0.00329669
0.00329304
0.00328951
0.00328609
0.00328279
0.00327959
0.00327647
0.00327343
0.00327044
0.00326747
0.00326448
0.00326142
0.00325826
0.003255
0.0032516
0.00324806
0.0032443
0.00324028
0.00323561
0.00323113
0.00321767
0.00648488
0.00601239
0.00564891
0.00535905
0.00512236
0.00492563
0.00475975
0.00461823
0.00449627
0.0043903
0.00429762
0.00421609
0.00414392
0.00407966
0.00402214
0.00397039
0.00392363
0.0038812
0.00384256
0.00380726
0.0037749
0.00374517
0.0037178
0.00369253
0.00366918
0.00364757
0.00362755
0.00360897
0.00359173
0.00357571
0.00356082
0.00354698
0.00353407
0.00352202
0.00351077
0.00350025
0.0034904
0.00348117
0.00347247
0.00346426
0.00345648
0.00344906
0.00344197
0.00343515
0.00342857
0.00342219
0.00341599
0.00340993
0.00340401
0.0033982
0.0033925
0.00338689
0.00338139
0.00337599
0.00337068
0.00336547
0.00336037
0.00335537
0.00335049
0.00334571
0.00334106
0.00333652
0.00333211
0.00332782
0.00332365
0.00331961
0.00331569
0.00331189
0.00330821
0.00330464
0.00330119
0.00329784
0.00329459
0.00329143
0.00328835
0.00328533
0.00328236
0.00327941
0.00327645
0.00327341
0.00327023
0.00326691
0.00326345
0.00325986
0.00325613
0.00325224
0.0032482
0.00324389
0.00324047
0.0032336
0.00648484
0.00601228
0.00564872
0.00535877
0.00512196
0.00492508
0.00475901
0.00461722
0.00449488
0.00438843
0.00429596
0.0042154
0.00414455
0.00408156
0.00402499
0.00397375
0.00392704
0.00388424
0.00384489
0.00380862
0.00377515
0.00374424
0.00371568
0.0036893
0.00366494
0.00364244
0.00362168
0.00360251
0.00358482
0.00356849
0.0035534
0.00353946
0.00352657
0.00351464
0.0035036
0.00349335
0.0034838
0.00347489
0.00346651
0.00345858
0.00345102
0.00344377
0.00343678
0.00343
0.00342341
0.00341696
0.00341066
0.00340449
0.00339844
0.00339252
0.00338671
0.00338102
0.00337543
0.00336994
0.00336456
0.00335928
0.00335411
0.00334906
0.00334412
0.00333931
0.00333462
0.00333005
0.00332561
0.00332131
0.00331713
0.00331308
0.00330916
0.00330538
0.00330172
0.00329819
0.00329479
0.00329152
0.00328837
0.00328535
0.00328243
0.00327962
0.00327691
0.00327426
0.00327164
0.00326893
0.003266
0.00326294
0.00325982
0.00325668
0.00325349
0.0032502
0.00324679
0.00324315
0.00324024
0.00323518
0.00648479
0.00601217
0.00564853
0.00535849
0.00512157
0.00492454
0.00475828
0.00461624
0.00449354
0.00438685
0.00435503
0.00433952
0.00431553
0.00427856
0.00423072
0.00417579
0.00411726
0.00405783
0.00399944
0.00394339
0.00389052
0.00384131
0.003796
0.00375464
0.00371715
0.00368336
0.00365301
0.00362576
0.00360122
0.00357895
0.00355849
0.00353934
0.00352235
0.00350818
0.00349615
0.00348574
0.00347652
0.00346819
0.00346051
0.0034533
0.00344643
0.00343979
0.00343331
0.00342693
0.00342081
0.00341505
0.00340968
0.00340466
0.00339995
0.00339549
0.00339125
0.00338718
0.00338327
0.00337949
0.00337583
0.0033723
0.00336888
0.00336558
0.0033624
0.00335933
0.00335638
0.00335355
0.00335083
0.00334822
0.00334573
0.00334334
0.00334107
0.00333891
0.00333686
0.00333493
0.00333311
0.0033314
0.00332982
0.00332836
0.00332702
0.00332581
0.00332471
0.00332369
0.00332274
0.00332161
0.00331323
0.00330328
0.00329367
0.00328496
0.0032772
0.00327024
0.0032639
0.00325783
0.00325271
0.00324537
0.00648475
0.00601206
0.00564834
0.00535819
0.00512112
0.00492388
0.00475724
0.00461454
0.00449001
0.00438986
0.00774283
0.00847679
0.00847169
0.00821897
0.00789887
0.0075797
0.00728645
0.00702693
0.00680216
0.00661058
0.00644973
0.00631691
0.00620932
0.00612414
0.00605854
0.00600966
0.00597464
0.00595074
0.00593535
0.0059261
0.00592095
0.00591821
0.00591699
0.00591725
0.00591883
0.00592122
0.00592394
0.00592661
0.00592904
0.00593118
0.00593308
0.00593488
0.00593653
0.005938
0.00593925
0.00594041
0.00594181
0.00594377
0.00594662
0.00595063
0.00595598
0.00596278
0.00597114
0.00598111
0.00599274
0.00600598
0.00602084
0.00603734
0.00605552
0.0060754
0.00609696
0.00612017
0.00614501
0.00617141
0.00619932
0.00622867
0.00625938
0.00629136
0.00632451
0.00635874
0.00639394
0.00642998
0.00646673
0.00650408
0.00654198
0.00658044
0.0066198
0.00666082
0.0067083
0.00675189
0.00540246
0.00460436
0.00411019
0.00379509
0.00359064
0.00345656
0.00336798
0.00330855
0.00326892
0.00323638
0.0064847
0.00601195
0.00564816
0.00535792
0.00512074
0.00492335
0.00475653
0.00461359
0.00448874
0.00438824
0.0077426
0.00847811
0.00847117
0.0082141
0.0078882
0.00756234
0.00726194
0.00699516
0.00676327
0.00656492
0.00639784
0.0062595
0.00614727
0.00605846
0.00599034
0.00594007
0.00590478
0.00588163
0.00586785
0.00586089
0.00585845
0.00585858
0.00585966
0.00586045
0.00586004
0.00585781
0.00585331
0.00584625
0.00583647
0.00582393
0.00580862
0.00579063
0.00577037
0.00574816
0.00572422
0.00569881
0.00567222
0.00564477
0.00561669
0.00558816
0.00555936
0.00553049
0.00550176
0.00547335
0.00544544
0.00541825
0.005392
0.00536691
0.00534322
0.00532119
0.00530113
0.00528335
0.00526817
0.0052559
0.00524688
0.00524144
0.0052399
0.00524253
0.00524954
0.00526111
0.00527732
0.00529818
0.00532366
0.00535365
0.00538805
0.00542677
0.00546995
0.0055176
0.00557408
0.00562739
0.00469897
0.00412783
0.00376113
0.00351914
0.00335715
0.0032481
0.00317459
0.00312381
0.00308784
0.00305045
0.00648466
0.00601184
0.00564798
0.00535765
0.00512036
0.00492283
0.00475581
0.0046126
0.00448737
0.00438637
0.00773514
0.0084711
0.00846575
0.00821021
0.00788541
0.00756015
0.0072599
0.00699294
0.00676069
0.00656196
0.00639467
0.00625644
0.00614479
0.00605717
0.00599092
0.00594326
0.00591131
0.00589218
0.00588302
0.00588116
0.00588422
0.00589012
0.00589718
0.00590408
0.00590985
0.00591382
0.00591556
0.00591481
0.00591142
0.00590538
0.00589673
0.00588557
0.00587204
0.00585633
0.00583866
0.00581928
0.00579845
0.00577644
0.0057535
0.00572985
0.00570569
0.00568121
0.00565654
0.00563176
0.00560695
0.00558209
0.00555718
0.00553216
0.00550701
0.00548168
0.00545612
0.00543029
0.00540417
0.00537776
0.00535104
0.005324
0.00529663
0.00526895
0.00524102
0.00521293
0.00518478
0.00515672
0.00512894
0.00510168
0.00507525
0.00505005
0.00502676
0.00500591
0.00499158
0.00497324
0.00417522
0.00370501
0.0034144
0.00322635
0.00309911
0.00300907
0.00294238
0.0028889
0.00284353
0.00278597
0.00648462
0.00601174
0.00564781
0.00535741
0.00512004
0.00492241
0.00475527
0.00461193
0.00448655
0.00438541
0.00773256
0.00846865
0.00846363
0.00820822
0.00788336
0.00755785
0.00725724
0.00698986
0.00675718
0.00655808
0.00639051
0.00625211
0.00614045
0.006053
0.00598712
0.00594004
0.00590891
0.0058908
0.00588287
0.00588243
0.00588705
0.00589466
0.00590355
0.00591239
0.00592022
0.00592634
0.00593029
0.00593177
0.00593059
0.00592669
0.00592007
0.00591081
0.00589905
0.00588499
0.00586889
0.00585111
0.00583203
0.00581204
0.00579149
0.00577074
0.00575007
0.00572976
0.00571075
0.00569316
0.00567685
0.00566166
0.00564743
0.0056341
0.00562159
0.00560994
0.00559922
0.0055895
0.0055808
0.0055731
0.00556641
0.00556073
0.00555606
0.00555237
0.00554961
0.00554774
0.00554669
0.00554641
0.00554681
0.00554785
0.00554952
0.00555189
0.0055554
0.00556079
0.005573
0.00559346
0.00470759
0.00420746
0.00390706
0.00371512
0.00358413
0.00348801
0.00341157
0.00334415
0.00327785
0.00321108
0.00648458
0.00601165
0.00564766
0.00535719
0.00511974
0.00492203
0.00475479
0.00461134
0.00448583
0.00438455
0.00772938
0.00846498
0.00845993
0.00820461
0.00787983
0.00755435
0.00725368
0.00698617
0.00675332
0.00655404
0.00638629
0.00624777
0.00613606
0.00604867
0.00598296
0.00593619
0.00590549
0.00588793
0.00588065
0.00588095
0.00588639
0.0058949
0.00590476
0.00591464
0.00592355
0.0059308
0.00593588
0.00593843
0.0059382
0.00593504
0.00592888
0.00591972
0.00590767
0.00589289
0.00587571
0.00585653
0.00583578
0.00581391
0.00579134
0.00576845
0.00574556
0.00572295
0.00570082
0.00567935
0.00565864
0.00563877
0.00561976
0.00560164
0.0055844
0.00556852
0.00555399
0.00554061
0.00552822
0.00551666
0.00550586
0.00549576
0.00548636
0.00547772
0.00546994
0.00546305
0.0054571
0.00545214
0.00544824
0.00544554
0.00544419
0.00544443
0.00544684
0.00545232
0.00546579
0.00548941
0.00464052
0.00416515
0.0038826
0.00370447
0.00358483
0.00349857
0.00343106
0.00337205
0.00331253
0.00323495
0.00648454
0.00601155
0.00564751
0.00535699
0.00511948
0.00492171
0.00475441
0.00461089
0.00448531
0.00438395
0.00772717
0.00846214
0.00845667
0.00820101
0.00787592
0.00755014
0.0072492
0.00698145
0.0067484
0.00654895
0.0063811
0.00624254
0.00613087
0.00604358
0.00597806
0.00593154
0.00590115
0.00588394
0.00587705
0.00587775
0.00588362
0.00589256
0.00590289
0.00591328
0.00592276
0.00593062
0.00593635
0.0059395
0.00593973
0.0059368
0.00593048
0.00592067
0.00590741
0.00589086
0.00587138
0.00584944
0.00582559
0.00580037
0.00577429
0.00574778
0.00572121
0.00569487
0.00566896
0.00564362
0.00561893
0.00559495
0.00557165
0.00554901
0.00552698
0.00550551
0.00548451
0.00546393
0.00544367
0.00542365
0.00540379
0.00538398
0.00536413
0.00534417
0.00532401
0.00530356
0.00528276
0.00526152
0.00523978
0.00521752
0.00519473
0.00517145
0.00514794
0.00512427
0.0051035
0.00507578
0.00427871
0.0038214
0.00354626
0.00337099
0.00325106
0.00316171
0.00308896
0.00302324
0.0029609
0.00287837
0.0064845
0.00601146
0.00564737
0.0053568
0.00511926
0.00492145
0.00475413
0.00461058
0.00448499
0.00438363
0.007726
0.00846024
0.00845402
0.00819761
0.00787178
0.00754535
0.00724384
0.00697563
0.00674225
0.0065426
0.00637468
0.00623618
0.00612469
0.00603769
0.00597251
0.00592636
0.00589631
0.00587941
0.00587274
0.00587359
0.00587953
0.00588851
0.00589888
0.0059094
0.00591913
0.00592742
0.00593374
0.00593758
0.00593848
0.00593598
0.00592965
0.00591919
0.00590452
0.00588579
0.00586342
0.00583805
0.00581037
0.00578108
0.00575081
0.00572008
0.00568934
0.00565887
0.00562891
0.00559958
0.00557093
0.00554296
0.00551564
0.0054889
0.00546266
0.00543684
0.00541134
0.00538608
0.00536096
0.00533591
0.00531086
0.00528574
0.00526053
0.00523519
0.00520974
0.00518419
0.00515863
0.00513315
0.00510791
0.00508314
0.00505915
0.00503633
0.00501537
0.00499678
0.00498446
0.00496803
0.00418186
0.00372635
0.00345123
0.00327808
0.00316422
0.0030856
0.00302826
0.00298248
0.00294363
0.00289215
0.00648446
0.00601138
0.00564724
0.00535664
0.00511906
0.00492123
0.0047539
0.00461035
0.00448476
0.00438337
0.00772397
0.00845675
0.00844938
0.00819218
0.00786588
0.00753921
0.00723765
0.00696955
0.00673639
0.0065371
0.00636968
0.00623188
0.00612128
0.00603537
0.00597144
0.00592663
0.00589794
0.00588234
0.0058769
0.0058789
0.00588599
0.00589623
0.00590813
0.00592056
0.00593271
0.00594399
0.00595381
0.00596148
0.00596623
0.00596717
0.00596337
0.00595418
0.00593935
0.0059191
0.00589412
0.00586542
0.00583413
0.0058013
0.00576788
0.00573462
0.00570207
0.00567062
0.0056405
0.00561181
0.00558457
0.00555871
0.00553413
0.00551078
0.00548858
0.00546747
0.00544739
0.00542829
0.00541016
0.00539297
0.00537676
0.00536157
0.00534747
0.00533455
0.00532296
0.00531283
0.00530434
0.00529769
0.00529312
0.00529088
0.00529131
0.00529481
0.00530205
0.00531409
0.00533579
0.00535872
0.00450838
0.00401544
0.00371652
0.00352745
0.00340294
0.00331759
0.00325656
0.00320996
0.00317202
0.00312837
0.00648442
0.00601129
0.00564712
0.0053565
0.00511891
0.00492111
0.00475384
0.00461043
0.00448509
0.00438404
0.00772715
0.00845836
0.00844864
0.00818928
0.00786133
0.00753381
0.00723242
0.00696571
0.0067354
0.00654062
0.0063795
0.00624973
0.00614872
0.00607357
0.00602111
0.00598799
0.00597079
0.00596619
0.00597115
0.00598307
0.00599976
0.00601957
0.00604122
0.00606382
0.00608665
0.00610905
0.00613017
0.00614886
0.00616358
0.00617251
0.00617378
0.00616606
0.0061489
0.00612281
0.00608923
0.00605014
0.0060077
0.00596396
0.0059207
0.00587935
0.00584094
0.00580615
0.00577531
0.00574854
0.00572573
0.00570665
0.00569116
0.00567905
0.00567005
0.0056638
0.00565994
0.00565818
0.00565825
0.00565997
0.00566323
0.00566795
0.00567411
0.00568173
0.00569082
0.00570144
0.00571363
0.00572746
0.00574303
0.00576041
0.00577981
0.00580152
0.00582622
0.00585741
0.00590177
0.00595915
0.00497136
0.00439093
0.00402868
0.00379143
0.00362995
0.00351648
0.00343436
0.00337263
0.00332384
0.00327694
0.00648438
0.00601121
0.00564701
0.00535636
0.00511877
0.00492098
0.00475376
0.00461045
0.00448528
0.00438434
0.00772156
0.0084497
0.0084413
0.00818567
0.00786574
0.00755219
0.00727178
0.00703338
0.00683822
0.00668414
0.00656739
0.0064834
0.00642728
0.00639414
0.00637935
0.00637873
0.00638871
0.00640634
0.00642932
0.00645593
0.00648494
0.00651552
0.00654716
0.0065795
0.00661228
0.0066451
0.00667725
0.00670746
0.00673375
0.00675336
0.00676307
0.00676013
0.00674291
0.00671126
0.00666653
0.00661115
0.00654817
0.00648081
0.00641229
0.00634555
0.00628314
0.00622717
0.00617917
0.00614013
0.00611047
0.00609019
0.00608053
0.00608081
0.00608896
0.00610275
0.00612031
0.00614024
0.00616159
0.00618375
0.00620636
0.00622923
0.00625228
0.00627549
0.00629887
0.00632246
0.00634631
0.00637044
0.00639493
0.00641985
0.00644535
0.00647168
0.00649957
0.0065303
0.00656974
0.00661384
0.00535571
0.0046154
0.00415653
0.00386112
0.0036656
0.00353339
0.00344233
0.00337834
0.00333272
0.00329594
0.00648435
0.00601114
0.0056469
0.00535624
0.00511868
0.00492098
0.00475402
0.00461124
0.00448778
0.00438019
0.00430457
0.00423877
0.00417158
0.00410918
0.00405077
0.00399616
0.00394531
0.00389815
0.00385462
0.00381459
0.00377791
0.0037444
0.00371388
0.00368615
0.00366103
0.00363833
0.00361785
0.00359943
0.00358293
0.00356819
0.00355512
0.00354363
0.00353364
0.00352514
0.00351813
0.00351264
0.0035087
0.00350631
0.00350535
0.00350558
0.00350653
0.00350765
0.00350837
0.0035082
0.00350681
0.00350395
0.00349958
0.00349381
0.00348681
0.00347883
0.0034701
0.00346089
0.00345144
0.00344199
0.00343272
0.0034238
0.00341535
0.00340747
0.00340022
0.0033936
0.0033876
0.00338217
0.00337728
0.00337286
0.00336886
0.00336522
0.00336189
0.00335884
0.00335601
0.00335338
0.00335092
0.00334862
0.00334645
0.00334441
0.00334248
0.00334067
0.00333895
0.00333732
0.00333576
0.00333409
0.00332591
0.00331632
0.00330705
0.0032986
0.00329107
0.00328437
0.00327839
0.0032729
0.00326849
0.00326194
0.00648431
0.00601106
0.00564679
0.00535611
0.00511854
0.00492085
0.00475393
0.00461124
0.00448794
0.00438047
0.00428634
0.0042035
0.00413005
0.00406447
0.00400559
0.00395243
0.0039042
0.00386029
0.00382016
0.00378339
0.00374962
0.00371855
0.00368993
0.00366356
0.00363926
0.00361689
0.00359631
0.00357742
0.00356015
0.00354442
0.00353019
0.00351743
0.00350614
0.00349637
0.00348819
0.00348173
0.00347712
0.00347445
0.0034737
0.0034746
0.00347654
0.00347873
0.00348042
0.00348096
0.00348003
0.00347749
0.00347338
0.00346782
0.00346103
0.00345322
0.00344464
0.00343553
0.00342609
0.00341651
0.00340694
0.0033975
0.0033883
0.00337943
0.00337096
0.00336293
0.00335537
0.00334831
0.00334174
0.00333566
0.00333006
0.0033249
0.00332018
0.00331587
0.00331193
0.00330834
0.00330508
0.00330211
0.00329942
0.00329697
0.00329475
0.00329274
0.00329092
0.00328925
0.00328771
0.00328616
0.00328448
0.00328271
0.00328096
0.00327925
0.00327756
0.00327586
0.00327414
0.00327224
0.0032709
0.00326627
0.00648428
0.00601098
0.00564667
0.00535597
0.00511839
0.00492072
0.00475386
0.00461129
0.00448821
0.00438104
0.00428709
0.00420419
0.00413056
0.00406475
0.0040056
0.00395215
0.00390363
0.00385941
0.00381895
0.00378182
0.00374766
0.00371617
0.00368709
0.00366022
0.00363539
0.00361244
0.00359127
0.00357176
0.00355385
0.00353748
0.00352261
0.00350923
0.00349737
0.00348711
0.00347858
0.00347201
0.0034677
0.00346594
0.00346691
0.00347031
0.00347525
0.00348056
0.00348507
0.0034879
0.0034886
0.00348705
0.00348334
0.00347768
0.00347037
0.00346172
0.00345211
0.00344184
0.00343116
0.0034202
0.00340923
0.00339845
0.00338803
0.00337807
0.00336868
0.00335991
0.00335181
0.00334438
0.00333764
0.00333157
0.00332616
0.00332138
0.00331721
0.0033136
0.00331052
0.00330794
0.00330581
0.0033041
0.00330276
0.00330177
0.00330107
0.00330063
0.00330039
0.00330031
0.00330033
0.00330036
0.00330032
0.00330016
0.00329987
0.00329946
0.00329885
0.00329797
0.00329669
0.00329458
0.00329175
0.00328209
0.00648424
0.0060109
0.00564655
0.00535581
0.00511819
0.0049205
0.00475361
0.00461102
0.00448791
0.00438067
0.00428656
0.00420342
0.00412949
0.00406337
0.0040039
0.00395013
0.0039013
0.00385675
0.00381596
0.0037785
0.00374398
0.00371212
0.00368267
0.00365541
0.00363018
0.00360683
0.00358524
0.00356532
0.00354699
0.00353019
0.00351489
0.00350108
0.0034888
0.00347815
0.00346933
0.00346271
0.00345879
0.00345821
0.00346169
0.00346907
0.00347913
0.00348999
0.00349966
0.00350676
0.00351068
0.00351133
0.00350891
0.00350383
0.00349652
0.00348746
0.00347738
0.00346657
0.00345537
0.00344408
0.00343294
0.00342218
0.00341195
0.00340243
0.0033937
0.00338587
0.00337898
0.00337306
0.00336812
0.00336412
0.00336104
0.00335882
0.00335737
0.00335662
0.00335646
0.00335679
0.00335752
0.00335852
0.00335971
0.00336097
0.00336221
0.00336335
0.00336431
0.00336501
0.00336539
0.00336538
0.00336489
0.00336388
0.0033623
0.00336011
0.00335728
0.00335372
0.00334932
0.00334361
0.00333671
0.00332217
0.00648421
0.00601081
0.00564642
0.00535563
0.00511798
0.00492024
0.00475332
0.00461069
0.00448754
0.00438025
0.00428604
0.00420273
0.00412858
0.00406219
0.0040024
0.00394829
0.00389907
0.00385411
0.0038129
0.00377498
0.00374
0.00370766
0.00367771
0.00364996
0.00362424
0.0036004
0.00357834
0.00355794
0.00353914
0.00352186
0.00350606
0.00349172
0.00347886
0.00346761
0.00345819
0.00345111
0.00344714
0.00344762
0.00345498
0.00347054
0.00349306
0.00351876
0.00354301
0.003563
0.00357763
0.00358684
0.00359116
0.00359137
0.00358834
0.00358294
0.00357655
0.00357009
0.003564
0.00355861
0.00355418
0.00355085
0.00354868
0.00354764
0.00354763
0.0035485
0.00355006
0.00355209
0.00355437
0.0035567
0.00355888
0.00356075
0.00356216
0.00356302
0.00356324
0.00356278
0.00356161
0.00355972
0.00355712
0.00355383
0.00354987
0.00354529
0.00354011
0.00353436
0.00352808
0.00352128
0.00351397
0.00350616
0.00349784
0.00348901
0.00347966
0.0034697
0.00345903
0.00344717
0.0034342
0.00341409
0.00648417
0.00601073
0.00564629
0.00535545
0.00511773
0.00491993
0.00475294
0.00461022
0.00448696
0.00437953
0.00428514
0.0042016
0.00412718
0.00406046
0.00400033
0.00394583
0.00389621
0.00385083
0.00380916
0.00377076
0.00373528
0.00370243
0.00367195
0.00364366
0.0036174
0.00359302
0.00357042
0.0035495
0.00353016
0.00351234
0.00349595
0.00348098
0.00346739
0.00345528
0.00344485
0.00343675
0.00343202
0.00343342
0.00345148
0.00349644
0.00356683
0.00364772
0.00372372
0.00378885
0.00384154
0.0038827
0.00391416
0.0039379
0.00395568
0.00396899
0.00397841
0.00398692
0.00399416
0.00399963
0.00400297
0.00400394
0.00400249
0.00399867
0.00399264
0.00398462
0.00397484
0.00396356
0.003951
0.0039374
0.00392293
0.00390778
0.00389209
0.00387598
0.00385956
0.00384293
0.00382615
0.0038093
0.00379242
0.00377556
0.00375875
0.00374202
0.00372538
0.00370885
0.00369243
0.00367611
0.00365986
0.00364368
0.00362752
0.00361135
0.0035951
0.00357865
0.00356187
0.00354421
0.00352567
0.00350071
0.00648413
0.00601065
0.00564615
0.00535525
0.00511748
0.0049196
0.00475253
0.00460971
0.00448634
0.00437876
0.00428419
0.00420043
0.00412574
0.00405872
0.00399823
0.00394334
0.00389328
0.00384742
0.00380522
0.00376627
0.00373019
0.00369672
0.0036656
0.00363666
0.00360973
0.00358471
0.00356147
0.00353992
0.00351996
0.0035015
0.00348444
0.00346869
0.00345416
0.00344084
0.00342877
0.00341864
0.0034115
0.00341347
0.00348237
0.00366598
0.00393055
0.00419409
0.00440933
0.00457129
0.00468447
0.00475778
0.0047999
0.00481817
0.00481859
0.00480589
0.00478376
0.00475334
0.00471682
0.0046758
0.0046318
0.00458613
0.00453983
0.0044937
0.00444829
0.00440398
0.00436101
0.00431949
0.00427947
0.00424094
0.00420386
0.00416816
0.00413379
0.00410066
0.00406872
0.00403788
0.00400809
0.0039793
0.00395144
0.00392454
0.00389856
0.00387337
0.0038489
0.00382506
0.0038018
0.00377905
0.00375675
0.00373483
0.00371321
0.0036918
0.00367054
0.00364945
0.00362834
0.0036066
0.00358408
0.00355568
0.0064841
0.00601057
0.00564602
0.00535506
0.00511721
0.00491926
0.00475208
0.00460915
0.00448563
0.00437788
0.0042831
0.00419909
0.0041241
0.00405675
0.00399587
0.00394055
0.00389001
0.00384362
0.00380085
0.00376126
0.00372452
0.00369033
0.00365847
0.00362877
0.00360109
0.00357532
0.00355135
0.00352909
0.00350844
0.00348929
0.00347151
0.00345499
0.00343956
0.00342508
0.00341127
0.00339872
0.00338779
0.00339661
0.00373394
0.00442212
0.00512555
0.00562211
0.00589981
0.00601721
0.0060244
0.00596297
0.00586253
0.00574289
0.00561654
0.00549069
0.00536872
0.00525212
0.00514231
0.00504028
0.00494619
0.00485972
0.00478027
0.00470716
0.00463966
0.00457711
0.00451895
0.00446471
0.00441417
0.00436683
0.00432206
0.00427949
0.00423883
0.00419988
0.00416251
0.00412658
0.00409201
0.0040587
0.00402658
0.00399557
0.0039656
0.00393661
0.00390853
0.0038813
0.00385484
0.00382908
0.00380395
0.00377937
0.00375525
0.00373145
0.00370784
0.00368415
0.00366005
0.00363472
0.00360877
0.00357784
0.00648407
0.00601049
0.00564589
0.00535487
0.00511696
0.00491891
0.00475163
0.00460858
0.00448491
0.00437698
0.00428198
0.00419772
0.00412243
0.00405473
0.00399345
0.00393767
0.0038866
0.00383962
0.0037962
0.00375589
0.00371836
0.00368334
0.0036506
0.00361999
0.0035914
0.00356473
0.0035399
0.00351682
0.00349539
0.00347548
0.00345697
0.00343971
0.00342346
0.00340793
0.00339228
0.00337651
0.00335761
0.00339957
0.00464963
0.00609235
0.0070188
0.00740813
0.00742224
0.00722823
0.00694072
0.00662827
0.00632725
0.00605403
0.00581383
0.00560619
0.00542811
0.00527563
0.00514477
0.00503166
0.00493292
0.00484592
0.0047689
0.00470052
0.00463811
0.00458014
0.0045257
0.00447423
0.00442533
0.00437872
0.00433418
0.00429153
0.00425063
0.00421136
0.0041736
0.00413728
0.0041023
0.00406858
0.00403605
0.00400463
0.00397425
0.00394485
0.00391636
0.00388871
0.00386184
0.00383566
0.00381011
0.00378511
0.00376054
0.00373629
0.00371219
0.00368798
0.00366331
0.00363726
0.00360834
0.00357497
0.00648405
0.00601043
0.00564578
0.0053547
0.00511671
0.00491858
0.0047512
0.00460801
0.00448419
0.00437607
0.00428084
0.00419631
0.0041207
0.00405262
0.00399091
0.00393462
0.00388299
0.00383535
0.00379119
0.00375006
0.00371162
0.00367561
0.00364184
0.00361015
0.00358048
0.00355276
0.00352694
0.00350295
0.00348066
0.00345999
0.00344082
0.00342314
0.00340687
0.00339199
0.00337776
0.0033642
0.00334699
0.00339364
0.00474926
0.00628262
0.00725394
0.0076219
0.00761739
0.00740307
0.00708758
0.00674198
0.00640638
0.00610011
0.00583037
0.00559793
0.00540017
0.00523329
0.00509313
0.00497714
0.00487934
0.00479466
0.00471973
0.0046522
0.00459039
0.00453314
0.00447963
0.00442924
0.00438155
0.00433623