/*--------------------------------*- C++ -*----------------------------------*\
| =========                 |                                                 |
| \\      /  F ield         | OpenFOAM: The Open Source CFD Toolbox           |
|  \\    /   O peration     | Version:  v2012                                 |
|   \\  /    A nd           | Website:  www.openfoam.com                      |
|    \\/     M anipulation  |                                                 |
\*---------------------------------------------------------------------------*/
FoamFile
{
    version     2.0;
    format      ascii;
    class       volScalarField;
    location    "650/air";
    object      qin;
}
// * * * * * * * * * * * * * * * * * * * * * * * * * * * * * * * * * * * * * //

dimensions      [1 0 -3 0 0 0 0];


internalField   uniform 0;

boundaryField
{
    inlet
    {
        type            calculated;
        value           nonuniform List<scalar> 
3200
(
582.302
586.46
584.771
583.476
582.396
581.364
580.346
579.335
578.328
577.327
576.337
575.361
574.4
573.455
572.525
571.606
570.698
569.804
568.925
568.063
567.213
566.373
565.538
564.708
563.884
563.073
562.291
561.561
560.913
560.378
559.981
559.736
559.635
559.644
559.698
559.736
559.74
559.725
559.709
559.694
559.676
559.651
559.629
559.618
559.611
559.602
559.591
559.575
559.556
559.535
559.511
559.487
559.463
559.441
559.421
559.394
559.345
559.256
559.116
558.927
558.709
558.495
558.318
558.197
558.125
558.073
557.998
557.87
557.688
557.49
557.338
557.294
557.388
557.597
557.843
558.005
557.917
557.339
555.863
550.225
572.953
584.7
584.35
582.709
581.323
580.108
578.999
577.948
576.926
575.932
574.975
574.062
573.185
572.323
571.447
570.543
569.617
568.694
567.791
566.913
566.056
565.216
564.391
563.578
562.782
562.008
561.271
560.59
559.987
559.487
559.111
558.875
558.777
558.783
558.831
558.872
558.891
558.897
558.9
558.899
558.892
558.881
558.875
558.878
558.885
558.89
558.892
558.89
558.884
558.875
558.864
558.852
558.839
558.828
558.817
558.804
558.784
558.753
558.708
558.651
558.59
558.537
558.502
558.49
558.487
558.466
558.39
558.229
557.968
557.616
557.202
556.756
556.295
555.801
555.213
554.408
553.24
551.701
549.589
543.02
564.136
579.666
582.298
581.39
580.218
579.073
577.973
576.935
575.965
575.059
574.21
573.398
572.594
571.772
570.915
570.023
569.117
568.216
567.331
566.455
565.578
564.699
563.826
562.974
562.155
561.386
560.679
560.049
559.513
559.088
558.785
558.607
558.54
558.55
558.588
558.619
558.633
558.636
558.632
558.626
558.615
558.603
558.596
558.597
558.602
558.608
558.613
558.616
558.618
558.62
558.622
558.625
558.63
558.638
558.646
558.655
558.661
558.662
558.654
558.633
558.595
558.534
558.447
558.321
558.136
557.864
557.471
556.93
556.242
555.437
554.577
553.731
552.945
552.205
551.416
550.457
549.363
548.378
546.659
539.857
557.735
574.092
579.53
579.869
579.288
578.518
577.594
576.598
575.61
574.66
573.77
572.912
572.035
571.122
570.187
569.252
568.336
567.44
566.55
565.65
564.707
563.728
562.759
561.837
560.991
560.242
559.603
559.086
558.698
558.438
558.295
558.248
558.265
558.31
558.352
558.375
558.381
558.376
558.366
558.355
558.343
558.334
558.331
558.336
558.348
558.363
558.38
558.398
558.416
558.432
558.444
558.45
558.445
558.426
558.388
558.326
558.236
558.116
557.964
557.777
557.549
557.27
556.93
556.518
556.024
555.442
554.773
554.033
553.259
552.502
551.813
551.213
550.664
550.069
549.33
548.487
547.835
547.393
545.274
538.071
553.226
568.901
576.476
578.018
577.914
577.511
576.852
575.966
574.944
573.859
572.789
571.745
570.705
569.656
568.604
567.569
566.572
565.619
564.7
563.797
562.875
561.952
561.08
560.303
559.648
559.124
558.719
558.417
558.201
558.062
557.988
557.967
557.979
558.005
558.029
558.045
558.054
558.057
558.056
558.054
558.053
558.055
558.062
558.075
558.091
558.105
558.115
558.117
558.106
558.078
558.029
557.954
557.846
557.699
557.508
557.267
556.974
556.629
556.239
555.809
555.347
554.856
554.342
553.814
553.284
552.768
552.283
551.842
551.446
551.081
550.706
550.257
549.668
548.917
548.101
547.497
547.352
546.974
543.915
536.736
549.718
563.781
572.817
575.526
575.75
575.56
575.157
574.48
573.569
572.501
571.29
569.968
568.65
567.404
566.211
565.056
563.96
562.951
562.037
561.185
560.425
559.799
559.288
558.884
558.622
558.5
558.454
558.406
558.303
558.143
557.962
557.807
557.707
557.66
557.652
557.664
557.684
557.702
557.715
557.719
557.716
557.708
557.695
557.674
557.64
557.587
557.512
557.409
557.274
557.103
556.893
556.643
556.35
556.015
555.638
555.222
554.774
554.305
553.83
553.364
552.922
552.518
552.164
551.871
551.647
551.49
551.378
551.266
551.088
550.77
550.257
549.542
548.689
547.851
547.266
547.169
547.364
546.484
542.428
535.775
546.665
558.627
568.491
572.441
573.058
573.009
572.844
572.462
571.849
571.089
569.989
568.465
566.821
565.323
563.981
562.735
561.589
560.572
559.703
558.896
558.295
558.024
557.933
557.896
557.955
558.139
558.357
558.469
558.393
558.145
557.818
557.519
557.313
557.207
557.17
557.166
557.171
557.169
557.152
557.113
557.052
556.97
556.866
556.738
556.581
556.393
556.171
555.916
555.627
555.308
554.962
554.595
554.213
553.822
553.428
553.04
552.665
552.315
552.004
551.744
551.547
551.418
551.359
551.36
551.4
551.432
551.39
551.197
550.787
550.14
549.303
548.397
547.589
547.063
546.978
547.298
547.363
545.606
540.866
535.083
544.008
553.734
563.789
569.001
570.195
570.313
570.412
570.397
570.173
569.876
569.152
567.698
565.886
564.197
562.743
561.445
560.283
559.274
558.437
557.626
557.067
557.009
557.21
557.379
557.525
557.74
557.971
558.074
557.957
557.646
557.25
556.888
556.631
556.48
556.395
556.332
556.266
556.183
556.076
555.941
555.774
555.58
555.359
555.115
554.849
554.563
554.26
553.944
553.623
553.302
552.988
552.689
552.41
552.154
551.926
551.727
551.562
551.437
551.359
551.331
551.351
551.41
551.484
551.537
551.519
551.371
551.038
550.49
549.747
548.888
548.04
547.344
546.924
546.861
547.154
547.521
547.044
544.386
539.412
534.618
541.804
549.434
559.111
565.513
567.512
567.85
568.215
568.615
568.781
568.847
568.511
567.345
565.624
563.916
562.443
561.144
559.979
558.957
558.114
557.279
556.671
556.63
556.935
557.168
557.239
557.279
557.32
557.272
557.06
556.699
556.278
555.888
555.584
555.364
555.194
555.037
554.872
554.693
554.498
554.283
554.049
553.799
553.539
553.276
553.016
552.765
552.526
552.303
552.101
551.923
551.771
551.648
551.551
551.478
551.428
551.402
551.4
551.425
551.475
551.542
551.604
551.63
551.578
551.404
551.074
550.57
549.909
549.144
548.36
547.661
547.135
546.841
546.805
547.028
547.409
547.496
546.307
542.958
538.138
534.294
540.028
545.916
554.777
562.205
565.261
565.895
566.407
567.172
567.723
567.999
567.856
566.952
565.438
563.842
562.454
561.243
560.14
559.14
558.293
557.46
556.777
556.596
556.824
557.021
556.98
556.799
556.584
556.325
555.978
555.548
555.089
554.661
554.299
554.005
553.759
553.537
553.323
553.112
552.906
552.702
552.501
552.306
552.124
551.961
551.821
551.704
551.609
551.535
551.482
551.448
551.43
551.426
551.435
551.456
551.488
551.533
551.585
551.639
551.678
551.674
551.59
551.388
551.039
550.536
549.9
549.185
548.465
547.818
547.31
546.973
546.807
546.801
546.954
547.247
547.498
547.132
545.244
541.487
537.081
534.061
538.648
543.238
550.939
559.063
563.37
564.449
564.918
565.828
566.742
567.254
567.209
566.425
565.032
563.509
562.212
561.158
560.241
559.395
558.635
557.862
557.123
556.726
556.735
556.81
556.665
556.311
555.876
555.422
554.946
554.45
553.96
553.511
553.126
552.809
552.552
552.338
552.155
551.994
551.856
551.735
551.629
551.545
551.492
551.47
551.468
551.475
551.486
551.499
551.514
551.527
551.534
551.54
551.55
551.573
551.608
551.643
551.66
551.631
551.525
551.309
550.957
550.463
549.843
549.149
548.452
547.829
547.342
547.019
546.849
546.792
546.812
546.907
547.096
547.333
547.331
546.439
543.957
540.07
536.221
533.872
537.685
541.358
547.627
555.919
561.496
563.273
563.602
564.328
565.465
566.354
566.557
565.887
564.492
562.876
561.516
560.559
559.9
559.365
558.844
558.226
557.503
556.923
556.664
556.554
556.311
555.855
555.287
554.712
554.165
553.652
553.178
552.758
552.403
552.117
551.899
551.737
551.618
551.53
551.466
551.42
551.391
551.393
551.43
551.487
551.543
551.583
551.608
551.625
551.635
551.635
551.624
551.604
551.586
551.571
551.55
551.495
551.372
551.149
550.803
550.329
549.741
549.08
548.406
547.79
547.297
546.964
546.792
546.745
546.765
546.806
546.863
546.971
547.142
547.252
546.908
545.473
542.554
538.776
535.533
533.701
537.106
540.135
544.832
552.671
559.307
562.072
562.395
562.676
563.737
565.001
565.667
565.3
563.966
562.18
560.582
559.552
559.077
558.883
558.681
558.294
557.692
557.052
556.594
556.307
555.988
555.499
554.893
554.282
553.734
553.255
552.837
552.474
552.166
551.918
551.732
551.601
551.515
551.461
551.423
551.4
551.408
551.442
551.471
551.462
551.413
551.349
551.297
551.27
551.267
551.278
551.299
551.319
551.321
551.274
551.147
550.916
550.569
550.111
549.559
548.948
548.322
547.738
547.248
546.894
546.69
546.622
546.646
546.705
546.755
546.79
546.846
546.955
547.072
546.976
546.222
544.285
541.121
537.635
534.979
533.53
536.747
539.358
542.55
549.394
556.656
560.592
561.277
561.125
561.799
563.18
564.312
564.44
563.392
561.563
559.692
558.426
557.932
557.917
557.955
557.806
557.421
556.89
556.393
556.03
555.702
555.255
554.685
554.094
553.569
553.132
552.767
552.453
552.178
551.942
551.751
551.607
551.512
551.447
551.392
551.366
551.386
551.391
551.271
550.992
550.638
550.335
550.151
550.077
550.073
550.125
550.238
550.387
550.499
550.479
550.265
549.86
549.323
548.73
548.146
547.618
547.175
546.839
546.618
546.51
546.494
546.536
546.595
546.64
546.665
546.698
546.775
546.877
546.877
546.493
545.301
542.959
539.739
536.661
534.522
533.346
536.398
538.821
540.766
546.26
553.577
558.65
560.166
559.945
560.138
561.268
562.587
563.191
562.629
561.037
559.092
557.593
556.9
556.788
556.829
556.786
556.595
556.253
555.854
555.544
555.308
554.994
554.533
553.996
553.486
553.059
552.714
552.424
552.166
551.932
551.727
551.563
551.448
551.361
551.29
551.269
551.273
551.132
550.671
549.921
549.134
548.576
548.319
548.251
548.252
548.31
548.486
548.779
549.068
549.177
548.998
548.558
547.987
547.433
546.995
546.705
546.549
546.498
546.516
546.57
546.632
546.68
546.703
546.709
546.728
546.796
546.9
546.94
546.724
545.961
544.307
541.632
538.474
535.823
534.094
533.117
535.944
538.405
539.458
543.465
550.245
556.163
558.859
559.101
558.966
559.544
560.624
561.466
561.477
560.493
558.937
557.515
556.64
556.214
555.948
555.723
555.494
555.203
554.873
554.654
554.576
554.482
554.228
553.811
553.337
552.903
552.547
552.259
552.017
551.805
551.619
551.467
551.352
551.25
551.183
551.178
551.088
550.616
549.606
548.271
547.096
546.457
546.336
546.418
546.451
546.45
546.583
546.927
547.361
547.657
547.657
547.375
546.961
546.585
546.348
546.259
546.274
546.336
546.404
546.456
546.483
546.485
546.474
546.476
546.527
546.626
546.697
546.592
546.112
545.007
543.022
540.225
537.321
535.143
533.747
532.901
535.405
538.061
538.577
541.148
546.896
553.164
557.09
558.218
558.019
557.907
558.357
559.077
559.554
559.418
558.722
557.826
557.004
556.266
555.556
554.941
554.435
553.984
553.582
553.367
553.406
553.547
553.572
553.377
553.021
552.622
552.265
551.98
551.765
551.601
551.461
551.336
551.214
551.076
550.996
550.97
550.676
549.71
548.045
546.168
544.786
544.316
544.563
544.959
545.103
545.035
545.038
545.295
545.741
546.161
546.384
546.385
546.261
546.137
546.08
546.095
546.147
546.2
546.235
546.246
546.237
546.217
546.209
546.244
546.335
546.425
546.387
546.066
545.301
543.886
541.659
538.871
536.312
534.572
533.416
532.665
534.813
537.715
537.979
539.305
543.717
549.782
554.705
556.943
557.021
556.346
555.998
556.244
556.842
557.386
557.611
557.455
556.944
556.135
555.171
554.273
553.503
552.839
552.278
551.949
551.962
552.227
552.498
552.575
552.432
552.16
551.868
551.631
551.465
551.342
551.204
551.029
550.806
550.548
550.377
550.244
549.675
548.218
546.024
543.821
542.438
542.246
542.892
543.628
543.943
543.868
543.743
543.826
544.135
544.543
544.928
545.251
545.521
545.742
545.903
545.99
546.014
546
545.975
545.95
545.928
545.918
545.944
546.024
546.124
546.134
545.912
545.345
544.318
542.65
540.273
537.609
535.449
534.083
533.087
532.413
534.117
537.225
537.437
537.799
540.816
546.232
551.775
555.192
555.969
555.163
554.184
553.799
554.117
554.862
555.623
556.041
555.927
555.322
554.451
553.564
552.732
551.957
551.252
550.739
550.581
550.786
551.155
551.441
551.526
551.444
551.297
551.166
551.058
550.903
550.62
550.213
549.735
549.271
548.96
548.681
547.878
546.133
543.744
541.542
540.309
540.302
541.114
541.994
542.419
542.386
542.207
542.148
542.285
542.594
543.066
543.698
544.426
545.108
545.593
545.82
545.837
545.752
545.659
545.599
545.58
545.605
545.682
545.79
545.839
545.691
545.244
544.448
543.206
541.342
538.903
536.463
534.718
533.648
532.746
532.141
533.203
536.459
536.757
536.479
538.248
542.735
548.481
552.999
554.857
554.482
553.272
552.356
552.193
552.708
553.506
554.127
554.292
554.015
553.482
552.851
552.155
551.401
550.62
549.934
549.542
549.55
549.847
550.194
550.412
550.478
550.474
550.453
550.344
550.003
549.363
548.529
547.707
547.088
546.767
546.477
545.611
543.851
541.61
539.693
538.692
538.703
539.352
540.06
540.421
540.422
540.301
540.258
540.348
540.6
541.109
541.962
543.085
544.224
545.087
545.527
545.594
545.465
545.306
545.21
545.203
545.28
545.406
545.497
545.417
545.056
544.392
543.418
542.006
539.991
537.574
535.442
534.1
533.239
532.388
531.852
531.915
535.318
535.838
535.242
535.952
539.192
544.505
549.8
553.04
553.764
552.898
551.747
551.124
551.176
551.605
552.006
552.157
552.105
551.971
551.769
551.461
550.971
550.298
549.563
548.978
548.724
548.797
549.01
549.158
549.185
549.165
549.093
548.764
547.952
546.686
545.31
544.28
543.9
544.095
544.283
543.7
542.137
540.178
538.622
537.852
537.763
538.021
538.29
538.409
538.465
538.64
538.975
539.349
539.701
540.17
540.963
542.111
543.381
544.428
545.029
545.187
545.076
544.9
544.799
544.819
544.929
545.027
544.969
544.641
544.034
543.201
542.095
540.514
538.387
536.133
534.444
533.503
532.77
531.945
531.492
530.596
534.111
534.893
534.243
534.214
536.117
540.335
545.662
550.052
552.233
552.256
551.295
550.438
550.067
550.02
549.991
549.861
549.746
549.783
549.926
550.129
550.153
549.852
549.294
548.669
548.195
547.978
547.927
547.851
547.68
547.476
547.167
546.429
544.997
543.063
541.265
540.312
540.565
541.724
542.807
542.79
541.497
539.708
538.336
537.688
537.519
537.47
537.357
537.263
537.461
538.137
539.133
540.044
540.614
540.953
541.378
542.083
542.981
543.808
544.344
544.538
544.499
544.395
544.354
544.405
544.466
544.389
544.052
543.451
542.675
541.754
540.517
538.755
536.611
534.697
533.533
532.914
532.223
531.428
531.076
529.611
533.105
534.079
533.51
533.13
534.006
536.9
541.526
546.372
549.809
550.978
550.599
549.814
549.21
548.813
548.434
547.995
547.619
547.489
547.622
548.107
548.594
548.751
548.534
548.062
547.529
547.108
546.821
546.536
546.181
545.786
545.227
544.124
542.222
539.845
537.833
537.046
537.858
539.808
541.661
542.201
541.217
539.573
538.279
537.692
537.544
537.436
537.209
537.063
537.421
538.505
540.031
541.383
542.136
542.346
542.377
542.529
542.851
543.213
543.472
543.583
543.599
543.608
543.66
543.713
543.647
543.345
542.788
542.075
541.288
540.321
538.918
537.005
534.987
533.515
532.805
532.356
531.647
530.904
530.657
528.793
532.131
533.242
532.795
532.334
532.587
534.297
537.834
542.456
546.684
548.997
549.479
549.05
548.395
547.777
547.185
546.55
545.915
545.442
545.233
545.607
546.249
546.713
546.858
546.701
546.343
545.938
545.564
545.156
544.664
544.109
543.364
542.057
539.957
537.424
535.353
534.649
535.683
537.946
540.167
541.112
540.528
539.2
538.105
537.638
537.599
537.603
537.462
537.366
537.769
538.942
540.604
542.097
542.926
543.083
542.888
542.645
542.467
542.338
542.237
542.186
542.218
542.328
542.447
542.455
542.247
541.81
541.236
540.632
539.938
538.897
537.296
535.319
533.567
532.559
532.169
531.76
531.018
530.353
530.209
527.946
531.075
532.328
532.029
531.648
531.638
532.493
534.873
538.759
543.184
546.383
547.829
547.994
547.47
546.726
545.991
545.265
544.488
543.724
543.077
543.068
543.524
544.02
544.4
544.616
544.638
544.494
544.204
543.727
543.068
542.318
541.432
540.121
538.159
535.826
533.909
533.254
534.224
536.362
538.541
539.688
539.544
538.71
537.976
537.707
537.801
537.959
537.975
537.944
538.239
539.16
540.551
541.879
542.675
542.85
542.596
542.132
541.586
541.048
540.633
540.448
540.507
540.694
540.821
540.736
540.416
539.979
539.569
539.175
538.547
537.369
535.611
533.721
532.345
531.749
531.532
531.078
530.319
529.751
529.698
527.049
530
531.432
531.3
531.052
530.996
531.328
532.691
535.564
539.622
543.261
545.558
546.46
546.273
545.522
544.68
543.904
543.114
542.252
541.333
540.945
541.064
541.365
541.769
542.243
542.653
542.846
542.697
542.137
541.254
540.284
539.349
538.282
536.839
535.113
533.646
533.125
533.886
535.602
537.416
538.524
538.714
538.375
538.036
537.967
538.144
538.392
538.533
538.551
538.674
539.182
540.085
541.067
541.754
541.967
541.729
541.14
540.336
539.518
538.928
538.726
538.867
539.116
539.2
538.997
538.604
538.233
537.986
537.685
536.964
535.592
533.788
532.155
531.217
530.944
530.786
530.264
529.525
529.071
529.097
526.198
529.027
530.663
530.691
530.535
530.495
530.54
531.132
532.961
536.253
539.835
542.687
544.34
544.695
544.142
543.283
542.483
541.755
540.987
540.064
539.504
539.352
539.376
539.602
540.076
540.634
540.986
540.867
540.175
539.096
538.022
537.247
536.711
536.12
535.323
534.544
534.243
534.726
535.843
537.066
537.892
538.184
538.154
538.089
538.137
538.313
538.552
538.74
538.795
538.804
538.971
539.414
540.027
540.561
540.789
540.582
539.936
538.998
538.066
537.465
537.353
537.602
537.883
537.903
537.606
537.181
536.843
536.583
536.11
535.091
533.511
531.797
530.545
530.034
529.984
529.821
529.257
528.595
528.277
528.386
525.447
528.187
530.021
530.171
530.022
529.964
529.864
529.959
530.909
533.276
536.392
539.421
541.703
542.756
542.659
541.966
541.2
540.548
539.95
539.204
538.687
538.425
538.215
538.145
538.349
538.709
538.903
538.618
537.774
536.635
535.698
535.339
535.536
535.92
536.117
536.054
535.972
536.153
536.637
537.203
537.605
537.775
537.813
537.835
537.892
538
538.159
538.322
538.41
538.412
538.428
538.587
538.914
539.288
539.493
539.323
538.703
537.781
536.892
536.377
536.359
536.653
536.911
536.88
536.568
536.162
535.779
535.292
534.408
532.982
531.249
529.737
528.891
528.719
528.783
528.583
528.022
527.491
527.331
527.55
524.758
527.419
529.415
529.641
529.422
529.297
529.136
528.99
529.339
530.842
533.259
536.107
538.791
540.573
541.143
540.826
540.177
539.569
539.083
538.528
538.148
537.903
537.553
537.177
536.962
536.876
536.669
536.093
535.133
534.108
533.514
533.699
534.604
535.79
536.746
537.216
537.297
537.255
537.267
537.325
537.346
537.306
537.247
537.208
537.194
537.211
537.274
537.383
537.49
537.546
537.562
537.609
537.758
537.985
538.137
538.01
537.497
536.71
535.946
535.506
535.481
535.702
535.885
535.853
535.622
535.277
534.783
533.941
532.581
530.808
529.053
527.816
527.318
527.345
527.412
527.147
526.614
526.234
526.231
526.588
524.069
526.646
528.76
529.031
528.715
528.505
528.346
528.159
528.199
529.036
530.707
533.11
535.896
538.262
539.551
539.737
539.274
538.658
538.161
537.693
537.427
537.254
536.856
536.245
535.624
535.053
534.41
533.57
532.593
531.79
531.576
532.196
533.524
535.108
536.427
537.185
537.419
537.366
537.238
537.101
536.938
536.744
536.552
536.393
536.279
536.214
536.208
536.266
536.371
536.471
536.52
536.53
536.564
536.658
536.739
536.65
536.274
535.656
535.007
534.56
534.41
534.471
534.575
534.606
534.515
534.229
533.576
532.378
530.656
528.744
527.143
526.222
525.981
526.076
526.057
525.699
525.186
524.931
525.045
525.524
523.359
525.847
528.041
528.356
527.964
527.69
527.575
527.47
527.426
527.838
528.851
530.658
533.23
535.87
537.706
538.369
538.111
537.464
536.874
536.399
536.197
536.106
535.729
534.989
534.082
533.156
532.225
531.273
530.395
529.83
529.863
530.623
531.962
533.499
534.825
535.712
536.183
536.398
536.49
536.488
536.369
536.141
535.861
535.597
535.395
535.273
535.228
535.256
535.338
535.424
535.454
535.408
535.335
535.301
535.296
535.216
534.938
534.44
533.838
533.312
532.996
532.913
532.999
533.141
533.177
532.881
532.028
530.552
528.679
526.874
525.587
524.999
524.94
525.024
524.885
524.427
523.915
523.731
523.895
524.426
522.666
525.061
527.305
527.685
527.262
526.961
526.905
526.921
526.921
527.114
527.626
528.797
530.873
533.381
535.418
536.382
536.307
535.675
535.028
534.554
534.416
534.42
534.106
533.326
532.272
531.176
530.159
529.271
528.577
528.201
528.284
528.882
529.891
531.084
532.231
533.212
534.027
534.715
535.259
535.59
535.659
535.496
535.197
534.877
534.62
534.461
534.397
534.405
534.449
534.473
534.418
534.266
534.067
533.901
533.792
533.667
533.406
532.94
532.324
531.719
531.305
531.189
531.346
531.606
531.684
531.268
530.184
528.535
526.711
525.196
524.302
524.027
524.102
524.159
523.921
523.394
522.884
522.729
522.884
523.369
522.045
524.331
526.608
527.077
526.67
526.367
526.359
526.473
526.553
526.665
526.843
527.422
528.813
530.806
532.642
533.664
533.745
533.251
532.711
532.359
532.346
532.464
532.229
531.457
530.355
529.226
528.268
527.549
527.064
526.81
526.812
527.095
527.651
528.43
529.38
530.468
531.648
532.823
533.827
534.504
534.789
534.738
534.483
534.169
533.901
533.727
533.648
533.635
533.633
533.573
533.401
533.115
532.776
532.47
532.232
532.005
531.678
531.173
530.531
529.919
529.543
529.529
529.819
530.151
530.154
529.524
528.214
526.501
524.858
523.698
523.17
523.14
523.304
523.341
523.053
522.514
522.04
521.908
522.031
522.398
521.518
523.673
525.97
526.548
526.185
525.888
525.898
526.06
526.197
526.295
526.277
526.367
527.014
528.247
529.574
530.451
530.686
530.496
530.282
530.217
530.406
530.643
530.473
529.721
528.62
527.529
526.682
526.139
525.827
525.645
525.546
525.558
525.759
526.238
527.059
528.222
529.635
531.104
532.381
533.272
533.719
533.795
533.641
533.401
533.174
533.011
532.923
532.885
532.835
532.696
532.414
531.997
531.516
531.06
530.666
530.293
529.853
529.294
528.673
528.162
527.953
528.125
528.537
528.852
528.679
527.804
526.333
524.664
523.264
522.423
522.154
522.255
522.443
522.45
522.143
521.64
521.244
521.161
521.268
521.51
521.065
523.068
525.378
526.075
525.77
525.473
525.471
525.628
525.78
525.879
525.757
525.487
525.463
525.894
526.592
527.232
527.647
527.901
528.19
528.535
528.96
529.291
529.151
528.416
527.348
526.324
525.583
525.162
524.954
524.818
524.683
524.588
524.65
525.006
525.751
526.884
528.285
529.743
531.015
531.933
532.46
532.663
532.659
532.555
532.426
532.313
532.236
532.184
532.1
531.902
531.533
530.998
530.372
529.747
529.175
528.643
528.102
527.538
527.024
526.712
526.732
527.076
527.523
527.708
527.304
526.229
524.718
523.202
522.063
521.459
521.313
521.421
521.547
521.481
521.143
520.685
520.386
520.375
520.499
520.663
520.643
522.481
524.8
525.621
525.377
525.069
525.03
525.147
525.273
525.357
525.185
524.69
524.174
523.947
524.086
524.514
525.134
525.886
526.735
527.513
528.148
528.521
528.377
527.669
526.674
525.749
525.1
524.744
524.575
524.471
524.379
524.339
524.449
524.811
525.482
526.441
527.588
528.759
529.786
530.571
531.099
531.41
531.573
531.645
531.659
531.642
531.617
531.584
531.498
531.273
530.84
530.194
529.408
528.59
527.83
527.161
526.584
526.109
525.797
525.737
525.965
526.381
526.725
526.677
526.036
524.859
523.449
522.181
521.306
520.861
520.731
520.751
520.741
520.542
520.13
519.686
519.463
519.52
519.675
519.822
520.22
521.898
524.226
525.167
524.982
524.657
524.571
524.631
524.703
524.75
524.553
523.957
523.169
522.534
522.305
522.603
523.419
524.611
525.95
527.088
527.866
528.233
528.071
527.418
526.549
525.765
525.217
524.899
524.732
524.649
524.636
524.725
524.956
525.353
525.911
526.594
527.348
528.087
528.751
529.319
529.786
530.158
530.457
530.694
530.868
530.984
531.062
531.106
531.068
530.855
530.381
529.623
528.656
527.623
526.675
525.915
525.388
525.103
525.063
525.256
525.61
525.956
526.055
525.703
524.857
523.689
522.496
521.541
520.924
520.593
520.435
520.329
520.145
519.772
519.239
518.763
518.57
518.66
518.831
518.994
519.76
521.291
523.621
524.677
524.553
524.204
524.063
524.06
524.064
524.054
523.844
523.248
522.397
521.62
521.239
521.486
522.429
523.9
525.554
526.921
527.778
528.13
527.98
527.432
526.739
526.135
525.707
525.427
525.251
525.171
525.21
525.391
525.696
526.079
526.483
526.872
527.238
527.57
527.893
528.242
528.607
528.966
529.318
529.655
529.956
530.209
530.419
530.578
530.628
530.464
529.977
529.128
527.998
526.775
525.682
524.895
524.49
524.448
524.684
525.065
525.422
525.561
525.322
524.654
523.667
522.601
521.695
521.071
520.701
520.479
520.308
520.104
519.766
519.225
518.565
518.033
517.826
517.904
518.057
518.23
519.359
520.776
523.11
524.262
524.188
523.82
523.637
523.587
523.533
523.472
523.259
522.715
521.926
521.176
520.784
521.024
522.017
523.613
525.425
526.911
527.805
528.146
528.023
527.585
527.066
526.64
526.339
526.114
525.943
525.857
525.909
526.112
526.415
526.728
526.975
527.125
527.207
527.248
527.326
527.509
527.768
528.058
528.383
528.747
529.129
529.509
529.872
530.184
530.363
530.278
529.796
528.866
527.58
526.177
524.957
524.164
523.898
524.1
524.581
525.093
525.384
525.266
524.68
523.73
522.657
521.726
521.096
520.76
520.596
520.475
520.319
520.06
519.61
518.933
518.162
517.566
517.32
517.356
517.467
517.623
518.629
519.888
522.183
523.475
523.493
523.092
522.824
522.682
522.529
522.371
522.144
521.728
521.182
520.693
520.459
520.678
521.497
522.875
524.533
525.991
526.964
527.461
527.562
527.384
527.113
526.891
526.73
526.575
526.401
526.245
526.165
526.186
526.279
526.378
526.43
526.423
526.384
526.339
526.359
526.462
526.582
526.694
526.845
527.078
527.397
527.778
528.176
528.531
528.761
528.744
528.354
527.528
526.347
525.048
523.945
523.3
523.209
523.563
524.092
524.468
524.425
523.86
522.87
521.715
520.7
520.033
519.749
519.732
519.826
519.914
519.917
519.744
519.299
518.591
517.812
517.236
516.985
516.965
517.006
517.102
)
;
    }
    outlet
    {
        type            calculated;
        value           nonuniform List<scalar> 
3200
(
620.384
620.425
616.417
613.621
611.035
608.127
604.652
600.802
597.912
596.574
596.924
598.972
600.342
595.467
593.91
595.694
593.812
589.8
586.273
583.978
582.562
581.789
581.698
580.534
578.398
576.202
574.396
572.97
571.874
571.118
570.781
570.973
571.818
573.491
576.49
577.431
575.519
573.772
572.425
571.356
570.582
570.103
569.872
569.792
569.73
569.58
569.325
569.016
568.681
568.348
568.096
568.06
568.45
569.557
571.657
574.336
575.694
576.047
576.218
576.319
576.356
576.363
576.367
576.385
576.418
576.465
576.526
576.596
576.648
576.653
576.608
576.51
576.372
576.246
576.193
576.265
576.464
576.804
577.613
577.786
601.45
614.011
612.626
610.113
607.637
604.916
601.8
598.481
595.956
594.737
594.931
596.5
597.461
593.77
592.142
593.026
591.453
588.024
584.75
582.47
581.026
580.132
579.746
578.589
576.632
574.56
572.796
571.394
570.332
569.627
569.344
569.562
570.376
571.863
574.265
575.202
573.769
572.162
570.818
569.74
568.952
568.446
568.173
568.042
567.933
567.75
567.476
567.153
566.813
566.493
566.275
566.284
566.704
567.765
569.658
571.996
573.306
573.737
573.913
573.994
574.016
574.011
574.004
574.009
574.028
574.062
574.108
574.162
574.2
574.198
574.157
574.085
574.006
573.959
573.954
573.919
573.736
573.452
572.733
567.206
586.969
606.114
608.674
607.408
605.491
603.093
600.272
597.293
594.91
593.611
593.471
594.451
594.964
592.165
590.576
590.743
589.404
586.584
583.64
581.381
579.896
578.878
578.238
577.092
575.343
573.457
571.799
570.464
569.464
568.81
568.535
568.682
569.339
570.548
572.387
573.302
572.379
571.062
569.822
568.777
567.979
567.432
567.101
566.907
566.748
566.54
566.269
565.974
565.687
565.439
565.29
565.339
565.74
566.697
568.347
570.357
571.607
572.136
572.374
572.483
572.52
572.521
572.51
572.504
572.506
572.52
572.549
572.592
572.636
572.665
572.674
572.647
572.558
572.356
571.952
571.285
570.525
569.972
568.187
560.234
576.835
597.884
603.729
603.911
602.904
601.185
598.83
596.164
593.881
592.538
592.054
592.427
592.531
590.362
588.96
588.715
587.493
585.104
582.437
580.197
578.75
577.757
577
575.875
574.316
572.643
571.146
569.918
568.963
568.281
567.9
567.889
568.372
569.364
570.799
571.634
571.076
570.046
568.947
567.969
567.184
566.608
566.225
565.978
565.786
565.579
565.345
565.11
564.892
564.699
564.57
564.6
564.956
565.825
567.289
569.041
570.213
570.801
571.101
571.26
571.334
571.355
571.35
571.336
571.329
571.341
571.383
571.454
571.534
571.582
571.545
571.352
570.927
570.218
569.252
568.268
567.72
567.364
564.365
555.504
569.771
590.477
598.807
600.154
599.798
598.732
596.982
594.836
592.878
591.668
590.814
590.485
590.247
588.602
587.358
586.762
585.543
583.473
581.085
578.894
577.561
576.743
576.013
574.929
573.506
571.973
570.556
569.349
568.366
567.612
567.14
567.055
567.473
568.331
569.448
570.155
569.834
569.034
568.06
567.155
566.414
565.854
565.467
565.211
565.021
564.837
564.638
564.434
564.23
564.03
563.877
563.885
564.231
565.051
566.365
567.905
569.001
569.612
569.948
570.144
570.259
570.317
570.34
570.351
570.37
570.412
570.478
570.545
570.556
570.431
570.089
569.474
568.584
567.51
566.496
565.951
566.022
565.379
560.858
552.158
564.607
583.863
594.096
596.464
596.386
595.68
594.454
592.926
591.525
590.684
589.637
588.713
588.202
586.925
585.721
584.778
583.502
581.719
579.674
577.611
576.393
575.789
575.182
574.177
572.855
571.393
569.975
568.718
567.671
566.868
566.383
566.314
566.716
567.434
568.251
568.793
568.612
567.998
567.137
566.309
565.637
565.142
564.808
564.59
564.428
564.259
564.048
563.804
563.548
563.306
563.139
563.172
563.548
564.328
565.497
566.858
567.887
568.505
568.855
569.074
569.228
569.339
569.421