/*--------------------------------*- C++ -*----------------------------------*\
| =========                 |                                                 |
| \\      /  F ield         | OpenFOAM: The Open Source CFD Toolbox           |
|  \\    /   O peration     | Version:  v2012                                 |
|   \\  /    A nd           | Website:  www.openfoam.com                      |
|    \\/     M anipulation  |                                                 |
\*---------------------------------------------------------------------------*/
FoamFile
{
    version     2.0;
    format      ascii;
    class       volScalarField;
    location    "650/air";
    object      qr;
}
// * * * * * * * * * * * * * * * * * * * * * * * * * * * * * * * * * * * * * //

dimensions      [1 0 -3 0 0 0 0];


internalField   uniform 0;

boundaryField
{
    inlet
    {
        type            calculated;
        value           nonuniform List<scalar> 
3200
(
73.7911
77.9491
76.2599
74.9648
73.8846
72.8527
71.8352
70.8236
69.8165
68.8159
67.8257
66.8492
65.8882
64.9435
64.0134
63.0949
62.1872
61.2925
60.4138
59.5514
58.7018
57.8612
57.0266
56.1965
55.3727
54.5621
53.7797
53.0493
52.4014
51.8669
51.4701
51.2243
51.124
51.1329
51.1865
51.225
51.2289
51.2139
51.1973
51.1832
51.1648
51.1399
51.1181
51.1066
51.0998
51.091
51.0792
51.0638
51.0451
51.0237
51
50.9753
50.9514
50.9301
50.9098
50.8824
50.8332
50.7446
50.6047
50.4157
50.1977
49.9834
49.8064
49.6854
49.6142
49.562
49.4872
49.359
49.1771
48.9787
48.8267
48.7828
48.8769
49.0858
49.3318
49.4937
49.4052
48.8273
47.3518
41.7138
64.4417
76.1883
75.8384
74.198
72.8116
71.5964
70.4872
69.4364
68.4145
67.4203
66.4634
65.5505
64.6741
63.8117
62.9359
62.0313
61.1059
60.1825
59.28
58.4019
57.545
56.7051
55.8792
55.0667
54.2702
53.4971
52.76
52.0783
51.4757
50.9758
50.5998
50.3634
50.2652
50.2712
50.3201
50.3607
50.3796
50.3861
50.3882
50.3873
50.3808
50.3697
50.3633
50.3666
50.3735
50.3784
50.3804
50.3784
50.3726
50.3637
50.3526
50.3403
50.3281
50.3167
50.3057
50.2926
50.2731
50.2421
50.197
50.1398
50.0785
50.0252
49.991
49.9784
49.9754
49.9542
49.8789
49.7178
49.4566
49.1049
48.6905
48.2448
47.7835
47.2901
46.7019
45.8966
44.7289
43.1899
41.0773
34.5087
55.6243
71.1551
73.7867
72.8785
71.7062
70.562
69.4612
68.4238
67.4541
66.548
65.6983
64.8863
64.0829
63.2608
62.4032
61.5118
60.6052
59.705
58.8195
57.9435
57.0667
56.1875
55.315
54.4622
53.6438
52.8743
52.1674
51.5376
51.0019
50.5767
50.274
50.0959
50.029
50.0385
50.0769
50.108
50.1218
50.1242
50.1211
50.1145
50.104
50.0917
50.0844
50.0854
50.0908
50.0966
50.1016
50.105
50.1069
50.1083
50.1102
50.1137
50.1191
50.1265
50.1351
50.1435
50.1498
50.1509
50.1431
50.1221
50.0835
50.0231
49.9354
49.8093
49.6251
49.353
48.9593
48.419
47.7308
46.9261
46.0656
45.2194
44.4336
43.6936
42.9049
41.9455
40.8517
39.8669
38.1475
31.3458
49.2236
65.5807
71.0183
71.3573
70.777
70.0069
69.0828
68.0868
67.0985
66.1487
65.259
64.4006
63.5237
62.6107
61.6753
60.7409
59.8248
58.929
58.0387
57.1385
56.1952
55.2168
54.2472
53.3258
52.48
51.7303
51.0916
50.5747
50.1862
49.9262
49.7837
49.7366
49.7534
49.7982
49.8402
49.8636
49.8693
49.8645
49.8549
49.8436
49.8318
49.8223
49.8195
49.825
49.8364
49.8515
49.8688
49.8868
49.9045
49.9204
49.9325
49.9382
49.9338
49.9149
49.8768
49.8146
49.7248
49.6049
49.453
49.266
49.0375
48.7586
48.4185
48.0063
47.5124
46.9303
46.2615
45.5221
44.7479
43.9909
43.3019
42.7014
42.1524
41.5581
40.8189
39.9761
39.3234
38.8817
36.7628
29.5602
44.7149
60.3892
67.9642
69.5063
69.4029
68.9998
68.3411
67.4551
66.433
65.348
64.2776
63.2341
62.1936
61.1443
60.0925
59.0577
58.0605
57.108
56.1883
55.2852
54.3637
53.441
52.5686
51.7913
51.1371
50.6126
50.2077
49.9053
49.69
49.5507
49.4771
49.4557
49.4679
49.4935
49.5173
49.5336
49.5424
49.5456
49.5451
49.5428
49.5413
49.5434
49.5511
49.5639
49.5792
49.5937
49.6037
49.6052
49.5943
49.5667
49.5177
49.4422
49.3344
49.1882
48.9971
48.7561
48.4625
48.118
47.7276
47.2981
46.8354
46.3446
45.831
45.303
44.773
44.2571
43.7718
43.3302
42.9347
42.5697
42.1944
41.7455
41.1569
40.4057
39.5893
38.9856
38.8412
38.4624
35.4036
28.2242
41.2064
55.2696
64.3058
67.0142
67.2391
67.0491
66.6454
65.9692
65.0582
63.9901
62.7788
61.4567
60.1392
58.8931
57.7
56.5447
55.4489
54.4398
53.5257
52.6737
51.9132
51.288
50.7762
50.3727
50.111
49.9885
49.9431
49.8947
49.7916
49.6313
49.4506
49.2959
49.1953
49.149
49.1408
49.1528
49.1724
49.1911
49.2034
49.2074
49.2046
49.1969
49.184
49.1627
49.1284
49.0762
49.0008
48.8977
48.7625
48.5916
48.3819
48.1314
47.8386
47.5033
47.1263
46.7105
46.2627
45.7938
45.3184
44.8523
44.4106
44.0066
43.6524
43.3594
43.1355
42.9783
42.8666
42.7551
42.5771
42.259
41.7458
41.0305
40.178
39.3396
38.7546
38.6576
38.8525
37.9728
33.9167
27.264
38.1539
50.1161
59.98
63.9295
64.5469
64.498
64.3326
63.951
63.3375
62.578
61.4781
59.9541
58.3097
56.8114
55.4692
54.2232
53.0772
52.0605
51.1919
50.3846
49.7833
49.5123
49.4216
49.3849
49.4439
49.6276
49.8453
49.9578
49.8818
49.634
49.3069
49.0075
48.8013
48.6952
48.6586
48.6549
48.6593
48.6577
48.6402
48.6015
48.5405
48.4585
48.3547
48.2262
48.0696
47.8815
47.6598
47.4042
47.1157
46.7966
46.4509
46.0839
45.7015
45.3104
44.9169
44.5284
44.1536
43.804
43.4928
43.233
43.0354
42.9066
42.8473
42.8491
42.8884
42.9206
42.879
42.6859
42.276
41.6286
40.792
39.8856
39.0774
38.5519
38.4664
38.7869
38.8516
37.0948
32.3551
26.5714
35.4962
45.2223
55.2773
60.4898
61.6835
61.8012
61.9009
61.8861
61.6617
61.3643
60.6406
59.1865
57.3743
55.686
54.2314
52.934
51.772
50.7624
49.9262
49.1143
48.5561
48.4977
48.6988
48.8681
49.0141
49.2289
49.4597
49.5625
49.4458
49.1346
48.7383
48.377
48.1197
47.9686
47.8836
47.8211
47.7544
47.6716
47.5651
47.4293
47.2631
47.0685
46.8481
46.6039
46.3378
46.0516
45.7484
45.433
45.1114
44.7903
44.477
44.1779
43.8984
43.6428
43.4142
43.2156
43.051
42.9262
42.8476
42.8194
42.8399
42.8985
42.9725
43.0256
43.0076
42.8596
42.5266
41.9791
41.236
40.3766
39.5282
38.8331
38.4128
38.3493
38.6428
39.0096
38.5326
35.8745
30.9007
26.107
33.2932
40.9228
50.5995
57.0021
59.0008
59.3391
59.7032
60.1038
60.2701
60.3354
59.9996
58.8337
57.1125
55.4046
53.9312
52.6325
51.4677
50.4461
49.603
48.768
48.1601
48.1186
48.424
48.6562
48.7275
48.7672
48.8083
48.7606
48.5484
48.188
47.7662
47.377
47.0726
46.8524
46.6824
46.5256
46.3611
46.1822
45.9863
45.7713
45.5374
45.2875
45.0275
44.7645
44.505
44.2537
44.0147
43.7919
43.5894
43.4112
43.26
43.1364
43.0392
42.9665
42.9168
42.8902
42.8885
42.9134
42.9637
43.0304
43.0931
43.1192
43.067
42.8932
42.5623
42.0589
41.398
40.6325
39.849
39.1495
38.6239
38.3297
38.2937
38.517
38.8973
38.9843
37.7959
34.447
29.6271
25.7827
31.5163
37.405
46.2655
53.6938
56.7497
57.3839
57.8962
58.6611
59.2113
59.4878
59.3448
58.4407
56.9272
55.3309
53.9431
52.7318
51.6289
50.6289
49.782
48.9491
48.2653
48.0849
48.3125
48.5101
48.4689
48.2876
48.0725
47.8133
47.4664
47.0368
46.5776
46.1493
45.7872
45.4935
45.248
45.026
44.8116
44.6009
44.3942
44.1908
43.9898
43.7947
43.6124
43.4497
43.3096
43.1923
43.0972
43.0236
42.9706
42.9363
42.9184
42.9147
42.9236
42.9445
42.9772
43.0213
43.0741
43.1281
43.1665
43.1622
43.0784
42.8766
42.5276
42.0242
41.3887
40.6738
39.9535
39.307
38.7986
38.4612
38.2957
38.29
38.4428
38.7352
38.9862
38.6207
36.7324
32.9757
28.5697
25.5494
30.1363
34.7268
42.4282
50.552
54.8582
55.9374
56.4066
57.317
58.2304
58.743
58.6976
57.9141
56.5204
54.9978
53.7008
52.6464
51.7293
50.8835
50.124
49.3508
48.6112
48.2149
48.2233
48.2988
48.1537
47.7996
47.3649
46.9107
46.4346
45.9382
45.4485
44.9997
44.6144
44.2975
44.0403
43.8271
43.6434
43.4831
43.3447
43.2238
43.1176
43.0334
42.9804
42.9582
42.9563
42.9635
42.9744
42.9879
43.0028
43.0153
43.0229
43.0283
43.039
43.0619
43.0962
43.1317
43.1485
43.1198
43.0136
42.7976
42.4461
41.9513
41.3321
40.638
39.9406
39.3177
38.8308
38.5081
38.3377
38.2806
38.301
38.3958
38.5847
38.8215
38.8201
37.9279
35.4454
31.5585
27.7101
25.3605
29.1741
32.8471
39.1161
47.4073
52.9843
54.7618
55.0905
55.8166
56.9539
57.8429
58.0462
57.376
55.981
54.3647
53.0043
52.0479
51.3891
50.8541
50.3331
49.7142
48.9918
48.4115
48.1524
48.0429
47.8001
47.3437
46.7758
46.2004
45.654
45.1405
44.6669
44.2466
43.8912
43.6056
43.3873
43.2257
43.1063
43.0186
42.9552
42.9084
42.88
42.882
42.9185
42.9758
43.0318
43.0722
43.0971
43.1133
43.1235
43.1242
43.1125
43.0929
43.0742
43.0598
43.0383
42.9832
42.8605
42.6376
42.292
41.8177
41.2301
40.5691
39.895
39.2791
38.7853
38.4522
38.2804
38.2332
38.2532
38.2944
38.3517
38.4592
38.6303
38.7405
38.3971
36.9617
34.0431
30.2642
27.0219
25.1899
28.5945
31.6238
36.321
44.1601
50.7953
53.5606
53.8839
54.1647
55.2255
56.4893
57.1553
56.7886
55.4551
53.6689
52.0703
51.0408
50.5658
50.3715
50.1697
49.7827
49.1809
48.541
48.0823
47.7957
47.4765
46.988
46.3813
45.7711
45.2225
44.7438
44.3255
43.9622
43.655
43.4072
43.2203
43.0894
43.004
42.95
42.9117
42.8889
42.8962
42.9306
42.9594
42.9507
42.9021
42.8375
42.7853
42.7587
42.7553
42.7669
42.7874
42.808
42.8097
42.7628
42.6357
42.4042
42.0575
41.5994
41.0481
40.4365
39.811
39.2266
38.737
38.3828
38.1791
38.1107
38.1342
38.1933
38.2436
38.2789
38.3344
38.4441
38.5607
38.4647
37.7104
35.7741
32.6101
29.1235
26.4672
25.0183
28.2356
30.8464
34.0385
40.8825
48.1442
52.0809
52.7657
52.6139
53.2876
54.6685
55.8004
55.9282
54.8805
53.0515
51.181
49.9142
49.4211
49.4053
49.4434
49.2949
48.9095
48.3789
47.8819
47.519
47.1906
46.7439
46.1739
45.5828
45.0577
44.6211
44.256
43.9415
43.6664
43.4305
43.2392
43.096
43.0006
42.9358
42.881
42.8542
42.8745
42.8795
42.7598
42.481
42.127
41.8232
41.6395
41.5653
41.5618
41.6141
41.7264
41.8757
41.9882
41.968
41.7533
41.3483
40.8113
40.2183
39.6346
39.1062
38.6636
38.3272
38.1068
37.9986
37.9826
38.0247
38.0841
38.1286
38.1532
38.1864
38.2634
38.3661
38.3655
37.9814
36.7893
34.4475
31.2281
28.1492
26.0108
24.8342
27.8862
30.3099
32.2547
37.7488
45.0662
50.1387
51.6546
51.4335
51.6268
52.7564
54.0754
54.6793
54.1176
52.5254
50.5802
49.0821
48.3882
48.277
48.3174
48.2752
48.0839
47.7414
47.3425
47.033
46.7971
46.4823
46.0221
45.4843
44.9744
44.5481
44.2031
43.9128
43.6544
43.4205
43.216
43.0521
42.9366
42.8494
42.7786
42.7574
42.7612
42.6207
42.1601
41.4098
40.6228
40.0645
39.8075
39.7401
39.7402
39.7987
39.9748
40.268
40.5567
40.6654
40.4864
40.0465
39.4759
38.9221
38.4836
38.1932
38.0381
37.9867
38.0042
38.0584
38.1209
38.1691
38.1917
38.1972
38.2171
38.2848
38.3885
38.429
38.2123
37.4499
35.7954
33.1209
29.9626
27.3115
25.5831
24.6052
27.4331
29.8933
30.9468
34.9533
41.734
47.6514
50.3479
50.5901
50.4548
51.0327
52.1123
52.9551
52.9655
51.9815
50.4253
49.004
48.1289
47.7026
47.4365
47.2121
46.9828
46.6914
46.3617
46.1422
46.0646
45.9709
45.7164
45.3001
44.826
44.392
44.0357
43.748
43.5057
43.2941
43.1078
42.9557
42.8402
42.7386
42.6716
42.6666
42.5766
42.1045
41.0946
39.7601
38.5843
37.9458
37.8252
37.9069
37.9393
37.9384
38.0716
38.416
38.8499
39.1456
39.1457
38.8641
38.4498
38.0737
37.8363
37.7479
37.7628
37.8247
37.8925
37.9443
37.9714
37.9736
37.9622
37.9651
38.0157
38.1143
38.1861
38.0809
37.6009
36.4954
34.5102
31.7133
28.8094
26.6313
25.2355
24.3893
26.8936
29.5494
30.0652
32.6364
38.3849
44.6529
48.5791
49.707
49.5076
49.3953
49.8453
50.5659
51.0428
50.9072
50.2102
49.3142
48.4928
47.7549
47.0444
46.4296
45.9237
45.4722
45.0703
44.8562
44.8945
45.0361
45.0604
44.8655
44.5096
44.1107
43.7532
43.4688
43.254
43.09
42.9493
42.825
42.7029
42.5649
42.4843
42.4582
42.1644
41.1983
39.534
37.6572
36.2752
35.8044
36.0517
36.4474
36.5914
36.5234
36.5267
36.7838
37.2292
37.6498
37.8728
37.8736
37.75
37.6252
37.569
37.5837
37.6352
37.6883
37.7233
37.7351
37.7259
37.7056
37.6974
37.733
37.8232
37.9133
37.8755
37.5542
36.7895
35.3752
33.148
30.3595
27.8011
26.0605
24.9045
24.1541
26.3012
29.2039
29.4673
30.7932
35.2052
41.2707
46.1935
48.4313
48.5097
47.8348
47.4867
47.733
48.3302
48.875
49.1
48.9438
48.4332
47.6235
46.6598
45.7612
44.9917
44.328
43.7667
43.4374
43.451
43.7161
43.9863
44.0637
43.9206
43.6486
43.3571
43.1192
42.9538
42.8305
42.6922
42.5176
42.2948
42.0362
41.8653
41.7328
41.1636
39.7069
37.5129
35.3101
33.927
33.7343
34.3808
35.117
35.432
35.3569
35.2314
35.3144
35.624
36.0312
36.4168
36.7401
37.0096
37.231
37.3913
37.4787
37.5024
37.4889
37.4638
37.4387
37.4164
37.4065
37.4328
37.5129
37.6126
37.6223
37.4003
36.8332
35.8064
34.1392
31.7615
29.0975
26.9376
25.5721
24.5753
23.9013
25.6054
28.7141
28.9252
29.2878
32.3048
37.7204
43.2638
46.6803
47.4579
46.6516
45.6727
45.2874
45.6054
46.3502
47.112
47.5298
47.4154
46.811
45.9401
45.0528
44.2202
43.4459
42.7405
42.2274
42.0695
42.275
42.6438
42.9295
43.0149
42.9329
42.7853
42.6552
42.5472
42.3915
42.1088
41.7021
41.2238
40.7593
40.4486
40.1699
39.3664
37.6219
35.2331
33.0311
31.7978
31.7912
32.6029
33.4822
33.9073
33.8744
33.6954
33.6366
33.7737
34.0831
34.5548
35.1869
35.9151
36.5962
37.0815
37.3083
37.3255
37.2408
37.1475
37.0879
37.0686
37.0936
37.171
37.2789
37.3273
37.1797
36.7325
35.9365
34.6942
32.8308
30.3915
27.9516
26.207
25.1364
24.235
23.6301
24.6917
27.9475
28.2458
27.9675
29.7368
34.2241
39.9695
44.4878
46.3459
45.9702
44.7606
43.8443
43.6821
44.1964
44.9947
45.6152
45.7803
45.504
44.9704
44.3395
43.6435
42.89
42.1087
41.4227
41.0305
41.0385
41.336
41.6831
41.9006
41.9666
41.963
41.9421
41.8327
41.492
40.8514
40.0179
39.1952
38.5771
38.2558
37.9654
37.0996
35.3398
33.0991
31.1817
30.1811
30.1915
30.8407
31.5484
31.9094
31.9106
31.7901
31.747
31.837
32.0884
32.5977
33.4505
34.5737
35.7125
36.5761
37.0152
37.083
36.9534
36.7945
36.6989
36.692
36.7683
36.895
36.9858
36.906
36.5451
35.8804
34.9068
33.4943
31.4797
29.0629
26.9305
25.5886
24.7279
23.8768
23.3405
23.4033
26.8062
27.3263
26.7304
27.4403
30.681
35.9941
41.2885
44.5282
45.2528
44.387
43.2361
42.6132
42.6644
43.0941
43.4942
43.6458
43.5934
43.4599
43.258
42.9495
42.4596
41.787
41.0519
40.4671
40.2124
40.2854
40.499
40.6463
40.6733
40.654
40.5815
40.2527
39.441
38.1745
36.799
35.7691
35.3884
35.584
35.7713
35.189
33.626
31.6664
30.1104
29.3404
29.2517
29.5099
29.7791
29.8978
29.9535
30.129
30.4638
30.8377
31.1894
31.6582
32.4519
33.6001
34.8695
35.9168
36.5175
36.6757
36.5644
36.3887
36.2875
36.308
36.4179
36.5156
36.4575
36.1299
35.5229
34.6897
33.5834
32.0027
29.876
27.6217
25.9331
24.9914
24.2582
23.4337
22.9812
22.0844
25.6
26.3815
25.7322
25.7024
27.6059
31.8236
37.1508
41.541
43.7219
43.7443
42.7832
41.9264
41.5553
41.5082
41.4793
41.3494
41.2345
41.2721
41.4151
41.618
41.6417
41.3409
40.7822
40.1579
39.684
39.4669
39.4154
39.3397
39.1691
38.9647
38.6555
37.9177
36.4859
34.5512
32.7539
31.8006
32.0537
33.2126
34.2954
34.2782
32.9854
31.1971
29.8244
29.1765
29.008
28.9588
28.8456
28.7513
28.9496
29.6261
30.6212
31.5328
32.1024
32.4412
32.8666
33.572
34.4695
35.2971
35.8329
36.0267
35.9874
35.8837
35.8431
35.8935
35.9542
35.8775
35.5411
34.9392
34.1636
33.2422
32.0054
30.2432
28.1002
26.1853
25.0212
24.4025
23.7112
22.9166
22.5646
21.0995
24.594
25.5677
24.9987
24.6184
25.4944
28.3883
33.0151
37.8606
41.2981
42.4662
42.0875
41.303
40.6987
40.3012
39.9228
39.4834
39.1073
38.9777
39.1109
39.5956
40.0831
40.2398
40.0227
39.5511
39.0175
38.5971
38.3094
38.025
37.6699
37.2746
36.7161
35.6131
33.7109
31.3334
29.3215
28.5347
29.3467
31.2966
33.1494
33.6897
32.706
31.0614
29.7679
29.1806
29.0328
28.9252
28.6972
28.5521
28.9095
29.9939
31.5196
32.8716
33.6243
33.8348
33.8656
34.0174
34.3396
34.7015
34.9607
35.0715
35.0873
35.0969
35.1486
35.2013
35.136
34.834
34.277
33.5637
32.7767
31.8099
30.4063
28.4933
26.4759
25.004
24.2932
23.8445
23.1358
22.3928
22.1456
20.2812
23.6193
24.731
24.2834
23.8225
24.0753
25.7855
29.3225
33.9447
38.1727
40.4856
40.9679
40.5392
39.8835
39.2653
38.6736
38.0392
37.4034
36.9303
36.7217
37.0958
37.7376
38.2017
38.3464
38.19
37.8316
37.4268
37.0523
36.6446
36.1526
35.598
34.8525
33.5455
31.4453
28.9131
26.842
26.1375
27.1714
29.4351
31.6555
32.601
32.0167
30.689
29.5932
29.1265
29.0874
29.092
28.9506
28.8546
29.2578
30.4305
32.093
33.5861
34.415
34.5715
34.3769
34.1338
33.9553
33.8263
33.7257
33.6748
33.707
33.8171
33.9353
33.9435
33.7361
33.2982
32.725
32.1204
31.4262
30.3854
28.785
26.808
25.0559
24.0477
23.6576
23.2487
22.507
21.8419
21.6982
19.4344
22.564
23.8171
23.5174
23.1369
23.1268
23.982
26.3612
30.2474
34.6723
37.8717
39.3178
39.4824
38.959
38.2143
37.4799
36.7539
35.9772
35.2123
34.5661
34.5566
35.013
35.5087
35.8886
36.105
36.127
35.9825
35.6925
35.2154
34.5569
33.8064
32.9211
31.6092
29.6473
27.3143
25.3974
24.7427
25.7127
27.8504
30.0296
31.1767
31.033
30.1992
29.4643
29.1961
29.2901
29.4478
29.4638
29.4323
29.728
30.6482
32.0393
33.3672
34.1641
34.3384
34.0844
33.621
33.075
32.5365
32.1215
31.9366
31.9952
32.1825
32.3098
32.2245
31.9045
31.4676
31.0575
30.6635
30.036
28.8581
27.1001
25.2093
23.8337
23.2375
23.0205
22.5671
21.8072
21.2394
21.1871
18.5376
21.4891
22.9208
22.7888
22.5407
22.485
22.8162
24.1798
27.0531
31.1102
34.7497
37.0463
37.9487
37.7613
37.011
36.1688
35.393
34.6024
33.7407
32.8221
32.4338
32.5529
32.8538
33.258
33.7318
34.1413
34.3344
34.1855
33.6252
32.7428
31.7726
30.838
29.7705
28.3278
26.6016
25.1349
24.6134
25.3749
27.0902
28.9043
30.0125
30.2025
29.8636
29.5242
29.4552
29.6324
29.881
30.022
30.0394
30.1625
30.6707
31.5738
32.5557
33.2423
33.4554
33.2172
32.6286
31.8247
31.0065
30.4166
30.2142
30.3552
30.6042
30.6889
30.4856
30.0924
29.7219
29.4745
29.174
28.4523
27.0807
25.2765
23.6437
22.7055
22.4332
22.2749
21.7524
21.0135
20.5596
20.5853
17.6869
20.5152
22.1517
22.1798
22.0237
21.9841
22.0285
22.6208
24.4492
27.7417
31.3235
34.1758
35.8288
36.1841
35.6305
34.772
33.9722
33.2438
32.4758
31.5529
30.9925
30.8403
30.8643
31.0909
31.5646
32.1225
32.4748
32.3552
31.6639
30.5844
29.5107
28.7356
28.1992
27.6082
26.8116
26.033
25.7321
26.2147
27.3312
28.5547
29.381
29.6725
29.643
29.5776
29.6256
29.8014
30.0412
30.2283
30.284
30.2923
30.4598
30.903
31.5156
32.0501
32.2779
32.0708
31.4242
30.4867
29.5546
28.9536
28.8414
29.0906
29.3719
29.3912
29.0946
28.6696
28.332
28.0719
27.5986
26.58
24.9995
23.2856
22.0332
21.5222
21.4727
21.3096
20.7454
20.0839
19.766
19.8745
16.9352
19.6755
21.5097
21.6601
21.5103
21.4529
21.3523
21.4476
22.3974
24.7649
27.8803
30.9094
33.1921
34.245
34.1476
33.4548
32.6887
32.0369
31.4387
30.6931
30.176
29.9137
29.7034
29.6335
29.8378
30.1975
30.3914
30.1071
29.2623
28.124
27.1867
26.8276
27.0244
27.409
27.6061
27.5429
27.4609
27.6421
28.1257
28.692
29.0939
29.2641
29.3018
29.3234
29.3804
29.4884
29.6478
29.811
29.8991
29.9002
29.9163
30.0756
30.403
30.7768
30.9815
30.8112
30.192
29.2701
28.3805
27.8654
27.8473
28.1421
28.4001
28.3692
28.057
27.6506
27.2681
26.7804
25.8971
24.471
22.7372
21.2256
20.38
20.2077
20.2718
20.0716
19.5109
18.9801
18.8198
19.039
16.247
18.9073
20.9038
21.1296
20.9107
20.7852
20.6249
20.4785
20.8274
22.3303
24.7472
27.5961
30.2797
32.0613
32.6321
32.3145
31.6661
31.0576
30.5719
30.0163
29.6364
29.392
29.0422
28.6654
28.4511
28.3648
28.1577
27.5815
26.6221
25.5964
25.0023
25.1879
26.0923
27.2783
28.2349
28.705
28.7853
28.7433
28.7556
28.8137
28.8346
28.7945
28.736
28.6968
28.683
28.6992
28.763
28.8712
28.9783
29.035
29.0504
29.098
29.2471
29.4732
29.6252
29.4984
28.9861
28.1987
27.4348
26.9945
26.9701
27.191
27.3739
27.3418
27.1104
26.7655
26.2713
25.4298
24.0695
22.2969
20.5417
19.3044
18.8067
18.8341
18.9009
18.6356
18.103
17.7231
17.7196
18.0763
15.5573
18.1342
20.2486
20.52
20.204
19.9938
19.8347
19.6477
19.6872
20.525
22.1957
24.5982
27.3844
29.751
31.0392
31.2257
30.7625
30.1463
29.6496
29.1816
28.916
28.7426
28.3449
27.734
27.1131
26.5416
25.8989
25.0585
24.0813
23.2784
23.065
23.685
25.0131
26.5965
27.9153
28.6734
28.9075
28.8549
28.7263
28.5899
28.4269
28.2329
28.0402
27.8812
27.7678
27.703
27.6962
27.7549
27.8598
27.9594
28.0086
28.0189
28.0532
28.1465
28.2276
28.1389
27.7627
27.145
26.4957
26.0487
25.8989
25.9599
26.0641
26.0946
26.0039
25.7177
25.0646
23.8665
22.1449
20.2322
18.6321
17.7109
17.4699
17.5646
17.5461
17.1881
16.675
16.4198
16.5337
17.0131
14.8473
17.3361
19.5295
19.845
19.4527
19.1792
19.0635
18.9582
18.9145
19.3272
20.3401
22.1469
24.7183
27.3588
29.1948
29.8581
29.5996
28.9527
28.3622
27.8873
27.6855
27.5947
27.2175
26.4773
25.5704
24.6449
23.7135
22.762
21.8833
21.3187
21.3512
22.1119
23.451
24.988
26.3135
27.2008
27.6714
27.8867
27.9791
27.9768
27.8576
27.6301
27.35
27.0858
26.8842
26.7614
26.7166
26.7444
26.8262
26.9129
26.9428
26.8966
26.8237
26.7894
26.7849
26.7043
26.4264
25.9286
25.3264
24.801
24.4847
24.4016
24.4873
24.6294
24.6654
24.3695
23.5164
22.0402
20.1675
18.3622
17.0757
16.4873
16.4287
16.5128
16.3737
15.916
15.4032
15.2192
15.3836
15.9148
14.1551
16.5493
18.7938
19.1734
18.7509
18.4498
18.3935
18.4094
18.4092
18.6029
19.1151
20.286
22.3619
24.8699
26.9064
27.8705
27.7956
27.1635
26.5168
26.0427
25.9047
25.9084
25.5949
24.8145
23.7611
22.6649
21.6476
20.7599
20.0659
19.6895
19.7725
20.3707
21.3801
22.5729
23.7194
24.7002
25.5157
26.2038
26.7477
27.0783
27.1475
26.9843
26.6854
26.3655
26.1087
25.9498
25.8857
25.8939
25.938
25.9619
25.9066
25.7544
25.5557
25.3895
25.2803
25.1558
24.8947
24.4286
23.8129
23.2079
22.794
22.6777
22.8344
23.0948
23.1724
22.757
21.6727
20.0241
18.2001
16.6843
15.7903
15.5155
15.5912
15.6474
15.4098
14.8831
14.3728
14.2177
14.3725
14.8572
13.5341
15.8198
18.0967
18.5659
18.1585
17.8559
17.8474
17.9621
18.0413
18.1533
18.3312
18.9108
20.3022
22.2947
24.1309
25.1527
25.2338
24.7399
24.1997
23.8473
23.8346
23.9525
23.7179
22.9455
21.8435
20.7151
19.7571
19.0376
18.553
18.299
18.3002
18.5837
19.1392
19.9183
20.869
21.9567
23.1368
24.3115
25.316
25.9925
26.2777
26.2266
25.9716
25.6576
25.3896
25.2153
25.1366
25.1235
25.1214
25.0615
24.8896
24.6035
24.2651
23.959
23.7205
23.4939
23.1665
22.6614
22.0202
21.4078
21.0321
21.0181
21.3076
21.64
21.6429
21.0129
19.7031
17.99
16.3467
15.1863
14.6587
14.6284
14.793
14.8295
14.5419
14.0028
13.5283
13.3969
13.5195
13.8866
13.0065
15.1618
17.4586
18.0369
17.6739
17.3772
17.3871
17.5487
17.686
17.7841
17.7656
17.8553
18.5024
19.7355
21.0629
21.9398
22.175
21.9847
21.7704
21.7058
21.8942
22.1319
21.9621
21.2094
20.109
19.0173
18.171
17.6272
17.3152
17.1337
17.0345
17.0464
17.2477
17.7269
18.5474
19.711
21.1235
22.5927
23.8694
24.7602
25.2079
25.284
25.1301
24.8896
24.6628
24.4999
24.4117
24.3735
24.3241
24.1851
23.9026
23.4855
23.0051
22.5486
22.1547
21.7819
21.3417
20.7822
20.1617
19.6504
19.4417
19.6132
20.0261
20.3404
20.1677
19.2923
17.8221
16.1531
14.7525
13.912
13.6426
13.7438
13.9313
13.9385
13.6318
13.1284
12.7322
12.6492
12.7569
12.9987
12.5537
14.5567
16.8664
17.5642
17.2589
16.9622
16.9594
17.1165
17.2686
17.3673
17.2458
16.9752
16.9519
17.3831
18.0803
18.721
19.1359
19.3901
19.6782
20.0239
20.4491
20.78
20.6401
19.9049
18.8369
17.8124
17.0713
16.6506
16.4423
16.3065
16.1721
16.0767
16.1385
16.4951
17.2401
18.3722
19.7737
21.2321
22.5036
23.4215
23.9485
24.1519
24.1473
24.044
23.9151
23.8021
23.7251
23.6725
23.5885
23.3911
23.0212
22.4864
21.8603
21.2355
20.664
20.1321
19.5911
19.0266
18.5131
18.2003
18.2207
18.5645
19.012
19.1968
18.7928
17.7176
16.2068
14.6904
13.5518
12.9478
12.8014
12.9094
13.0355
12.9695
12.6319
12.1736
11.8746
11.8637
11.9876
12.1515
12.1312
13.9699
16.2891
17.1094
16.8652
16.558
16.5191
16.6362
16.7616
16.8458
16.6738
16.179
15.6625
15.436
15.5751
16.0024
16.6226
17.3744
18.2235
19.0013
19.6365
20.0092
19.8654
19.1576
18.1629
17.2374
16.5889
16.233
16.0637
15.9597
15.8682
15.8279
15.9373
16.2992
16.9705
17.93
19.077
20.2475
21.2746
22.0598
22.5873
22.8987
23.0618
23.1338
23.1481
23.1305
23.1052
23.0729
22.9864
22.7617
22.3286
21.6828
20.8965
20.0791
19.3186
18.6502
18.0726
17.5978
17.2859
17.2254
17.4541
17.8701
18.2136
18.1655
17.5246
16.3479
14.9373
13.6697
12.7945
12.3492
12.2202
12.2401
12.2295
12.031
11.6182
11.1744
10.952
11.0091
11.164
11.3109
11.7082
13.3868
15.7147
16.6553
16.4711
16.1456
16.0592
16.1198
16.1915
16.2386
16.0418
15.4462
14.6573
14.0229
13.7939
14.0912
14.9073
16.0997
17.4392
18.5765
19.3551
19.7212
19.5597
18.9071
18.0378
17.2538
16.7057
16.3873
16.2203
16.1376
16.1249
16.2132
16.4442
16.8415
17.3999
18.0831
18.8364
19.576
20.24
20.8079
21.2751
21.6472
21.9456
22.1829
22.3563
22.4724
22.551
22.5947
22.5565
22.3441
21.8696
21.1116
20.1443
19.1117
18.1639
17.4042
16.8767
16.5917
16.552
16.7449
17.0985
17.4443
17.5434
17.1912
16.3456
15.1772
13.985
13.0298
12.4125
12.0816
11.9232
11.8177
11.6338
11.2609
10.7281
10.252
10.0585
10.1487
10.3196
10.4829
11.2484
12.7792
15.1094
16.166
16.0419
15.6927
15.5518
15.549
15.5522
15.543
15.333
14.7366
13.8854
13.1088
12.7276
12.9747
13.9173
15.3882
17.0431
18.4094
19.2668
19.6186
19.4691
18.9207
18.2276
17.6237
17.1953
16.9158
16.74
16.6594
16.699
16.8793
17.1851
17.5675
17.972
18.3605
18.7271
19.0591
19.3821
19.7308
20.0956
20.4544
20.8063
21.1441
21.445
21.6979
21.9081
22.0667
22.117
21.9529
21.4658
20.6168
19.4869
18.2636
17.1708
16.3834
15.9785
15.9371
16.1727
16.5537
16.9103
17.05
16.8109
16.1422
15.1561
14.0897
13.1838
12.5598
12.1892
11.9675
11.7967
11.5928
11.2546
10.7132
10.0538
9.52131
9.31433
9.39231
9.54613
9.71914
10.8472
12.2647
14.5985
15.751
15.677
15.3082
15.1253
15.0753
15.0219
14.9607
14.7475
14.2035
13.4144
12.665
12.2729
12.5123
13.5053
15.1021
16.9141
18.4001
19.2939
19.6348
19.512
19.0742
18.5548
18.129
17.8273
17.6028
17.4315
17.346
17.3979
17.6005
17.9033
18.2164
18.4633
18.6134
18.6962
18.7366
18.8151
18.9975
19.2563
19.5469
19.8716
20.2353
20.6178
20.9978
21.3605
21.6723
21.8512
21.7664
21.285
20.3545
19.0687
17.6659
16.4457
15.6524
15.3871
15.5883
16.0697
16.5814
16.8723
16.7546
16.1684
15.219
14.1459
13.2144
12.5842
12.2484
12.0846
11.964
11.8074
11.5486
11.099
10.4214
9.65035
9.05468
8.80914
8.84437
8.9556
9.11163
10.1178
11.3768
13.6721
14.9639
14.9817
14.5806
14.3123
14.1704
14.0172
13.8601
13.6325
13.2164
12.6703
12.1821
11.9482
12.1668
12.986
14.3632
16.0213
17.4796
18.4524
18.9498
19.0505
18.8724
18.602
18.3798
18.2185
18.0636
17.8901
17.7338
17.6534
17.675
17.7677
17.867
17.9191
17.9113
17.8724
17.8274
17.8473
17.9512
18.0705
18.1824
18.334
18.5667
18.8857
19.2665
19.6645
20.0201
20.2495
20.233
19.8427
19.0167
17.8357
16.5364
15.4334
14.7885
14.6977
15.0516
15.5805
15.9566
15.9141
15.3486
14.3585
13.2039
12.1888
11.5219
11.2373
11.2211
11.3151
11.4023
11.4052
11.2328
10.7881
10.0793
9.30102
8.72477
8.4741
8.45359
8.49484
8.59023
)
;
    }
    outlet
    {
        type            calculated;
        value           nonuniform List<scalar> 
3200
(
53.1149
54.5654
51.874
49.8423
48.4609
48.2772
50.2847
56.0426
59.4382
57.8755
51.7751
44.2624
37.5585
41.4883
40.5399
34.1839
36.2921
39.3943
42.1229
43.8651
44.6929
42.6968
37.0459
36.119
37.9885
39.8436
40.7757
41.2495
41.5351
41.7289
41.8535
41.8907
41.7096
41.0628
38.7114
40.5534
42.7949
43.458
43.6085
43.5933
43.4291
43.1486
42.7719
42.3223
41.89
41.6265
41.6123
41.7558
41.9143
41.93
41.695
41.1988
40.456
39.3299
37.0157
33.0774
31.0892
30.6721
30.3124
30.1084
30.1141
30.2203
30.3341
30.4077
30.4559
30.5006
30.5571
30.6115
30.6647
30.7122
30.6685
30.5506
30.4028
30.2658
30.1953
30.2547
30.5111
31.0235
31.8754
31.5652
63.4703
76.5299
75.9508
73.6144
71.6066
70.7399
71.906
74.2884
74.4484
72.613
67.8813
57.3542
48.7345
56.1024
54.1943
46.5314
47.6907
52.8712
56.5261
58.7322
59.4267
58.0513
54.4166
52.2677
51.6107
51.1222
50.5177
49.9909
49.6191
49.4062
49.3311
49.3721
49.3822
48.8039
46.1458
47.4232
50.3164
51.023
50.9824
50.6934
50.354
50.0362
49.7325
49.4094
49.0504
48.6908
48.3868
48.194
48.0755
47.9413
47.7373
47.4969
47.3159
47.2445
47.1515
47.0361
46.7595
46.6923
46.5097
46.3955
46.4348
46.5411
46.6356
46.6869
46.7156
46.7452
46.7869
46.8237
46.8632
46.9018
46.8641
46.7718
46.6833
46.6258
46.6044
46.5551
46.4425
46.366
45.7877
40.1029
61.7115
80.9991
83.997
82.8354
81.2522
80.1136
79.8673
79.4776
78.1776
75.8428
70.919
59.0765
52.9927
62.4954
60.2597
52.7454
51.9905
57.351
61.6619
63.6496
63.5328
62.2452
59.8744
57.5499
55.777
54.359
53.2073
52.3416
51.7447
51.3754
51.1801
51.0977
50.9984
50.4038
48.1467
48.8027
51.5957
52.4289
52.4223
52.1258
51.7817
51.4668
51.1806
50.8871
50.5528
50.1883
49.8515
49.5996
49.4373
49.3073
49.1696
49.0532
49.067
49.3645
50.1227
51.5504
52.6321
52.952
52.9872
52.997
53.0525
53.1224
53.1725
53.1926
53.199
53.2091
53.2331
53.2641
53.3086
53.3607
53.3708
53.3305
53.2349
53.0254
52.6141
51.9437
51.245
50.8443
49.1943
41.216
57.5984
78.6736
84.7396
85.0295
84.3082
83.4154
82.4106
80.965
79.0713
76.4037
70.6771
57.9524
56.1023
66.3806
64.397
57.756
55.2307
59.8392
63.9659
65.1622
64.5796
63.3746
61.5736
59.4389
57.4496
55.8013
54.5102
53.5432
52.8353
52.3176
51.9349
51.6506
51.3948
50.7706
48.9123
49.0782
51.5907
52.578
52.6923
52.4736
52.1726
51.8738
51.5929
51.3077
50.9934
50.6588
50.355
50.1339
49.9932
49.8819
49.764
49.6819
49.7774
50.2508
51.3249
53.1164
54.6411
55.2921
55.5074
55.6183
55.7027
55.76
55.7855
55.7861
55.7814
55.7914
55.8297
55.8941
55.9741
56.0336
55.9985
55.7993
55.3723
54.6608
53.6949
52.719
52.2193
51.9629
49.0687
40.2306
53.6465
74.3439
82.7827
84.2289
84.1053
83.5725
82.5614
81.0524
79.136
76.3678
69.6332
57.5279
58.9397
68.7297
67.2691
61.8681
58.3852
61.8029
64.9322
65.2954
64.5751
63.5838
62.1283
60.232
58.2978
56.6053
55.2322
54.1583
53.3167
52.6434
52.11
51.718
51.4121
50.8047
49.2421
49.0342
51.1694
52.2574
52.4902
52.3716
52.1527
51.916
51.6814
51.4367
51.168
50.8829
50.618
50.4113
50.2585
50.1182
49.9779
49.9152
50.0941
50.691
51.8706
53.6385
55.178
55.9773
56.3045
56.4814
56.6016
56.6782
56.7181
56.7373
56.7584
56.7999
56.8649
56.929
56.9411
56.8227
56.484
55.868
54.9793
53.9081
52.8996
52.3667
52.4764
51.9044
47.465
38.8029
50.32
69.556
79.8396
82.2865
82.3874
82.029
81.2367
80.0517
78.482
75.9306
69.6293
58.9632
61.8429
69.9402
68.9344
64.8288
61.3372
63.4875
65.2211
64.9103
64.1609
63.4221
62.2746
60.6161
58.802
57.1046
55.6358
54.4235
53.442
52.6571
52.0642
51.6654
51.3605
50.7462
49.351
48.864
50.5638
51.6877
52.0245
52.0113
51.9022
51.7752
51.6405
51.4806
51.2783
51.0319
50.7627
50.5076
50.2853
50.089
49.9394
49.9342
50.2159
50.8894
52.0607
53.6959
55.1391
55.9781
56.3626
56.5788
56.7371
56.8584
56.9501
57.0204
57.0743
57.106
57.0898
56.9764