/*--------------------------------*- C++ -*----------------------------------*\
| =========                 |                                                 |
| \\      /  F ield         | OpenFOAM: The Open Source CFD Toolbox           |
|  \\    /   O peration     | Version:  v2012                                 |
|   \\  /    A nd           | Website:  www.openfoam.com                      |
|    \\/     M anipulation  |                                                 |
\*---------------------------------------------------------------------------*/
FoamFile
{
    version     2.0;
    format      ascii;
    class       volScalarField;
    location    "650/air";
    object      rho;
}
// * * * * * * * * * * * * * * * * * * * * * * * * * * * * * * * * * * * * * //

dimensions      [1 -3 0 0 0 0 0];


internalField   nonuniform List<scalar> 
287104
(
0.999041
0.998146
0.997345
0.996614
0.99594
0.995313
0.994727
0.994176
0.993656
0.993163
0.992693
0.992245
0.991816
0.991404
0.991006
0.990623
0.990251
0.989891
0.989541
0.9892
0.988867
0.988542
0.988225
0.987913
0.987608
0.987309
0.987015
0.986725
0.986441
0.986161
0.985885
0.985613
0.985345
0.98508
0.984819
0.984562
0.984307
0.984056
0.983808
0.983562
0.98332
0.983081
0.982844
0.98261
0.982379
0.98215
0.981924
0.981701
0.98148
0.981262
0.981046
0.980833
0.980622
0.980414
0.980208
0.980005
0.979804
0.979605
0.979409
0.979216
0.979024
0.978835
0.978649
0.978464
0.978282
0.978102
0.977924
0.977749
0.977575
0.977403
0.977233
0.977066
0.9769
0.976735
0.976573
0.976412
0.976253
0.976095
0.975938
0.975783
0.975629
0.975476
0.975324
0.975173
0.975022
0.97487
0.974717
0.974561
0.974394
0.974199
0.999053
0.998171
0.997381
0.99666
0.995996
0.995378
0.994801
0.994259
0.993747
0.993262
0.992801
0.992361
0.99194
0.991535
0.991145
0.990769
0.990405
0.990052
0.989709
0.989375
0.98905
0.988732
0.988421
0.988117
0.987819
0.987527
0.98724
0.986958
0.98668
0.986407
0.986138
0.985874
0.985613
0.985355
0.985101
0.984851
0.984603
0.984359
0.984118
0.98388
0.983645
0.983412
0.983182
0.982955
0.982731
0.982509
0.98229
0.982073
0.981859
0.981647
0.981438
0.981232
0.981027
0.980826
0.980626
0.980429
0.980234
0.980042
0.979852
0.979665
0.979479
0.979296
0.979115
0.978936
0.97876
0.978585
0.978413
0.978243
0.978074
0.977908
0.977743
0.977581
0.97742
0.97726
0.977103
0.976947
0.976792
0.976639
0.976487
0.976336
0.976187
0.976039
0.975891
0.975744
0.975597
0.975449
0.975301
0.975149
0.974986
0.974794
0.999066
0.998196
0.997416
0.996706
0.99605
0.995441
0.994872
0.994337
0.993832
0.993354
0.992899
0.992465
0.99205
0.991651
0.991267
0.990896
0.990538
0.99019
0.989852
0.989524
0.989203
0.988891
0.988585
0.988286
0.987993
0.987706
0.987424
0.987147
0.986875
0.986607
0.986343
0.986083
0.985828
0.985575
0.985327
0.985082
0.98484
0.984601
0.984365
0.984132
0.983902
0.983675
0.983451
0.98323
0.983011
0.982795
0.982581
0.98237
0.982162
0.981956
0.981753
0.981552
0.981354
0.981158
0.980964
0.980773
0.980585
0.980399
0.980215
0.980033
0.979854
0.979677
0.979503
0.979331
0.97916
0.978992
0.978826
0.978662
0.978501
0.978341
0.978183
0.978026
0.977872
0.977719
0.977568
0.977419
0.97727
0.977124
0.976978
0.976834
0.976691
0.976549
0.976407
0.976266
0.976125
0.975984
0.975841
0.975695
0.975537
0.97535
0.999079
0.99822
0.997451
0.99675
0.996104
0.995503
0.994941
0.994413
0.993916
0.993444
0.992995
0.992567
0.992157
0.991763
0.991384
0.991019
0.990665
0.990322
0.989989
0.989665
0.989349
0.98904
0.988739
0.988444
0.988155
0.987872
0.987594
0.987321
0.987053
0.986789
0.986529
0.986273
0.986021
0.985773
0.985528
0.985287
0.985049
0.984814
0.984582
0.984353
0.984126
0.983903
0.983683
0.983465
0.98325
0.983037
0.982827
0.98262
0.982415
0.982213
0.982013
0.981816
0.981621
0.981429
0.981239
0.981052
0.980866
0.980684
0.980503
0.980325
0.980149
0.979976
0.979804
0.979635
0.979468
0.979303
0.97914
0.978979
0.97882
0.978662
0.978507
0.978353
0.9782
0.978049
0.9779
0.977752
0.977605
0.977459
0.977315
0.977171
0.977028
0.976885
0.976743
0.976601
0.976459
0.976316
0.976171
0.976023
0.975862
0.975673
0.999091
0.998244
0.997486
0.996795
0.996157
0.995564
0.99501
0.994489
0.993998
0.993532
0.993089
0.992667
0.992262
0.991874
0.9915
0.991139
0.99079
0.990452
0.990123
0.989803
0.989492
0.989188
0.98889
0.988599
0.988315
0.988035
0.987761
0.987492
0.987228
0.986968
0.986712
0.98646
0.986212
0.985968
0.985727
0.98549
0.985256
0.985025
0.984797
0.984573
0.984351
0.984132
0.983916
0.983702
0.983492
0.983284
0.983078
0.982876
0.982676
0.982478
0.982283
0.982091
0.981901
0.981714
0.981529
0.981346
0.981166
0.980989
0.980813
0.98064
0.98047
0.980301
0.980135
0.979971
0.979809
0.979649
0.979491
0.979335
0.979181
0.979029
0.978879
0.97873
0.978583
0.978437
0.978293
0.97815
0.978008
0.977868
0.977729
0.97759
0.977453
0.977317
0.977181
0.977047
0.976912
0.976778
0.976643
0.976506
0.976358
0.976184
0.999104
0.998268
0.99752
0.996838
0.996209
0.995624
0.995077
0.994564
0.994079
0.993619
0.993182
0.992766
0.992366
0.991983
0.991614
0.991258
0.990913
0.990579
0.990255
0.989939
0.989632
0.989332
0.989038
0.988751
0.988471
0.988195
0.987925
0.98766
0.9874
0.987144
0.986892
0.986644
0.9864
0.98616
0.985924
0.985691
0.985462
0.985235
0.985013
0.984793
0.984576
0.984363
0.984152
0.983945
0.98374
0.983539
0.98334
0.983145
0.982952
0.982762
0.982575
0.982391
0.98221
0.982031
0.981856
0.981683
0.981512
0.981345
0.98118
0.981018
0.980859
0.980703
0.980549
0.980397
0.980249
0.980103
0.979959
0.979818
0.97968
0.979544
0.97941
0.979279
0.979151
0.979025
0.978901
0.97878
0.978662
0.978546
0.978433
0.978323
0.978215
0.978111
0.97801
0.977913
0.977819
0.977729
0.977641
0.977555
0.977461
0.977343
0.999116
0.998292
0.997554
0.996881
0.996261
0.995683
0.995144
0.994637
0.994159
0.993705
0.993274
0.992862
0.992468
0.99209
0.991725
0.991374
0.991033
0.990703
0.990383
0.990071
0.989767
0.98947
0.989181
0.988898
0.988621
0.988349
0.988083
0.987822
0.987566
0.987315
0.987068
0.986826
0.986588
0.986354
0.986124
0.985898
0.985676
0.985458
0.985244
0.985034
0.984827
0.984625
0.984426
0.984233
0.984045
0.983862
0.983685
0.983511
0.983342
0.983177
0.983016
0.982859
0.982706
0.982557
0.982411
0.982268
0.98213
0.981994
0.981862
0.981734
0.981609
0.981488
0.98137
0.981256
0.981145
0.981038
0.980935
0.980836
0.980741
0.98065
0.980563
0.980481
0.980404
0.980331
0.980264
0.980201
0.980144
0.980092
0.980046
0.980005
0.97997
0.979941
0.979918
0.9799
0.979888
0.979879
0.979867
0.979845
0.979771
0.979684
0.999128
0.998316
0.997588
0.996924
0.996311
0.995742
0.99521
0.99471
0.994237
0.99379
0.993364
0.992958
0.992569
0.992195
0.991835
0.991487
0.991151
0.990824
0.990507
0.990198
0.989898
0.989604
0.989318
0.989038
0.988765
0.988497
0.988236
0.98798
0.98773
0.987485
0.987246
0.987012
0.986786
0.986567
0.986356
0.986152
0.985955
0.985765
0.985582
0.985405
0.985235
0.985071
0.984913
0.984761
0.984616
0.984476
0.984343
0.984214
0.984092
0.983975
0.983864
0.983761
0.983663
0.983573
0.983488
0.98341
0.983338
0.983273
0.983214
0.98316
0.983113
0.983072
0.983036
0.983007
0.982984
0.982966
0.982954
0.982949
0.982949
0.982955
0.982966
0.982983
0.983006
0.983035
0.983069
0.983108
0.983153
0.983202
0.983257
0.983317
0.983382
0.98345
0.983522
0.983594
0.983668
0.98374
0.983807
0.983862
0.983877
0.983828
0.99914
0.998339
0.997621
0.996966
0.996362
0.9958
0.995275
0.994781
0.994315
0.993873
0.993453
0.993051
0.992664
0.992291
0.991929
0.991578
0.991236
0.990904
0.990581
0.990265
0.989958
0.989659
0.989368
0.989084
0.988813
0.988553
0.988305
0.988069
0.987843
0.987627
0.987421
0.987225
0.987039
0.986862
0.986694
0.986536
0.986387
0.986247
0.986116
0.985993
0.985878
0.985771
0.985671
0.98558
0.985497
0.985422
0.985356
0.985298
0.985248
0.985206
0.98517
0.98514
0.985116
0.985098
0.985085
0.985078
0.985076
0.985079
0.985086
0.985099
0.985116
0.985138
0.985163
0.985193
0.985227
0.985264
0.985305
0.985349
0.985396
0.985446
0.985499
0.985555
0.985612
0.985672
0.985734
0.985797
0.985862
0.985928
0.985995
0.986064
0.986135
0.986205
0.986273
0.98634
0.986405
0.986466
0.986522
0.986568
0.986588
0.986567
0.999152
0.998362
0.997654
0.997008
0.996412
0.995857
0.995339
0.994852
0.994392
0.993956
0.993528
0.9931
0.992668
0.992235
0.991804
0.991378
0.990959
0.990549
0.990152
0.989767
0.989395
0.989038
0.988695
0.988366
0.988058
0.987768
0.987495
0.987237
0.986994
0.986763
0.986545
0.986339
0.98614
0.985945
0.985756
0.985571
0.98539
0.985216
0.985049
0.98489
0.984741
0.9846
0.98447
0.984351
0.984244
0.984146
0.984058
0.98398
0.98391
0.983848
0.983795
0.98375
0.983714
0.983686
0.983667
0.983657
0.983655
0.983662
0.983677
0.983699
0.983729
0.983767
0.983812
0.983864
0.983922
0.983986
0.984057
0.984132
0.984213
0.984299
0.984389
0.984483
0.984581
0.984682
0.984786
0.984892
0.985001
0.985111
0.985223
0.985342
0.985482
0.98563
0.985779
0.985926
0.986066
0.986195
0.986309
0.986404
0.986462
0.986466
0.999164
0.998384
0.997686
0.997049
0.996461
0.995914
0.995402
0.994921
0.994466
0.994024
0.993199
0.992318
0.991428
0.99055
0.989696
0.988874
0.988088
0.987346
0.986651
0.986007
0.985417
0.984883
0.984404
0.98398
0.983607
0.983281
0.982998
0.98275
0.982532
0.982337
0.982159
0.981992
0.981836
0.981689
0.981548
0.981408
0.981269
0.981131
0.980992
0.980852
0.98071
0.980565
0.980418
0.980272
0.980128
0.979985
0.979844
0.979707
0.979573
0.979445
0.979323
0.979207
0.979098
0.978997
0.978904
0.978821
0.978747
0.978683
0.97863
0.978588
0.978558
0.97854
0.978535
0.978542
0.978561
0.978593
0.978637
0.978694
0.978762
0.978843
0.978934
0.979035
0.979147
0.979268
0.979398
0.979536
0.979681
0.979835
0.979997
0.980285
0.980787
0.981255
0.981691
0.982097
0.982473
0.982817
0.983123
0.983383
0.98357
0.983648
0.999175
0.998406
0.997718
0.997089
0.996509
0.99597
0.995465
0.99499
0.994541
0.994105
0.993298
0.992435
0.991562
0.990697
0.989851
0.989032
0.988247
0.987502
0.986802
0.986151
0.985552
0.985009
0.984522
0.984091
0.983714
0.983387
0.983104
0.982861
0.98265
0.982465
0.982299
0.982146
0.982001
0.981861
0.98172
0.981576
0.981428
0.981277
0.981123
0.980964
0.980797
0.980624
0.980443
0.98026
0.980073
0.979882
0.979687
0.979489
0.979286
0.979081
0.978872
0.97866
0.978444
0.978225
0.978004
0.977781
0.977556
0.97733
0.977104
0.976879
0.976656
0.976438
0.976225
0.976021
0.975825
0.975642
0.975473
0.975321
0.975188
0.975076
0.974987
0.974923
0.974886
0.974875
0.974892
0.974936
0.975008
0.975105
0.975228
0.975394
0.975718
0.976139
0.976608
0.977095
0.977581
0.97805
0.978493
0.978899
0.979249
0.979524
0.999187
0.998429
0.997749
0.997129
0.996557
0.996025
0.995527
0.995058
0.994615
0.994184
0.99339
0.99254
0.991681
0.990829
0.989996
0.989189
0.988415
0.98768
0.98699
0.986348
0.98576
0.985227
0.984752
0.984334
0.983972
0.983661
0.983397
0.983175
0.982986
0.982824
0.982683
0.982555
0.982437
0.982323
0.982209
0.982093
0.981971
0.98185
0.981726
0.981598
0.981465
0.981327
0.981184
0.981041
0.9809
0.980757
0.980613
0.980469
0.980325
0.980182
0.980038
0.979895
0.979752
0.979609
0.979466
0.979323
0.979179
0.979034
0.978887
0.978739
0.978588
0.978434
0.978277
0.978117
0.977952
0.977785
0.977613
0.977437
0.977257
0.977073
0.976886
0.976696
0.976504
0.976309
0.976114
0.975919
0.975725
0.975534
0.975349
0.975187
0.975139
0.975173
0.975259
0.975375
0.975509
0.975652
0.975795
0.975929
0.976035
0.976095
0.999198
0.99845
0.99778
0.997169
0.996604
0.996079
0.995588
0.995125
0.994688
0.994263
0.993481
0.992645
0.991799
0.99096
0.990139
0.989345
0.988583
0.987859
0.987178
0.986546
0.985967
0.985442
0.984975
0.984564
0.984209
0.983905
0.983647
0.983431
0.983248
0.983092
0.982957
0.982836
0.982725
0.982617
0.98251
0.982399
0.982284
0.982168
0.982052
0.981932
0.981807
0.981677
0.981541
0.981408
0.981278
0.981147
0.981017
0.980889
0.980763
0.980639
0.980519
0.980401
0.980293
0.980192
0.980097
0.980007
0.979922
0.97984
0.979762
0.979688
0.979619
0.979555
0.979494
0.979439
0.979387
0.97934
0.979297
0.979259
0.979225
0.979195
0.979169
0.979146
0.979125
0.979108
0.979092
0.979078
0.979066
0.979059
0.979071
0.979208
0.979493
0.97973
0.979919
0.980065
0.980168
0.980227
0.980236
0.980182
0.980028
0.979853
0.999209
0.998472
0.997811
0.997208
0.996651
0.996133
0.995648
0.995192
0.99476
0.994341
0.993572
0.992749
0.991915
0.991089
0.990281
0.989498
0.988748
0.988034
0.987364
0.986742
0.986171
0.985654
0.985194
0.984791
0.984441
0.984143
0.98389
0.983677
0.983498
0.983345
0.983212
0.983094
0.982984
0.982878
0.982772
0.982661
0.982545
0.982428
0.982312
0.98219
0.982064
0.981931
0.981792
0.981656
0.981524
0.981391
0.981258
0.981127
0.980998
0.980871
0.980747
0.980626
0.980509
0.980396
0.980285
0.980178
0.980073
0.979972
0.979873
0.979779
0.979691
0.979607
0.979525
0.979447
0.979371
0.979298
0.979227
0.97916
0.979097
0.979038
0.978984
0.978934
0.978889
0.978849
0.978815
0.978787
0.978767
0.97876
0.978778
0.978925
0.979219
0.979476
0.979698
0.97989
0.980053
0.980188
0.980286
0.980336
0.980284
0.980088
0.99922
0.998493
0.997841
0.997246
0.996697
0.996187
0.995708
0.995258
0.994832
0.994418
0.993661
0.992851
0.992031
0.991218
0.990422
0.989651
0.988912
0.98821
0.98755
0.986937
0.986375
0.985867
0.985414
0.985017
0.984674
0.98438
0.984131
0.983921
0.983744
0.983591
0.983459
0.98334
0.983229
0.983122
0.983014
0.982901
0.98278
0.982659
0.982537
0.98241
0.982278
0.982138
0.981991
0.981848
0.981708
0.981567
0.981426
0.981286
0.981148
0.981011
0.980877
0.980746
0.980619
0.980494
0.980371
0.98025
0.98013
0.980012
0.979894
0.979776
0.979659
0.979541
0.979422
0.979302
0.979181
0.979058
0.978933
0.978805
0.978675
0.978542
0.978406
0.978266
0.978122
0.977974
0.977821
0.977664
0.977501
0.977332
0.977158
0.976991
0.976896
0.976851
0.976833
0.976828
0.976826
0.976821
0.976808
0.976784
0.97673
0.97663
0.999231
0.998514
0.997871
0.997285
0.996743
0.996239
0.995768
0.995324
0.994904
0.994495
0.993751
0.992953
0.992146
0.991345
0.990562
0.989803
0.989075
0.988384
0.987734
0.987131
0.986578
0.986079
0.985634
0.985244
0.984906
0.984618
0.984373
0.984165
0.983987
0.983834
0.983699
0.983577
0.983462
0.983351
0.983238
0.983118
0.982991
0.982862
0.982732
0.982597
0.982456
0.982307
0.98215
0.981996
0.981846
0.981695
0.981543
0.981392
0.981242
0.981095
0.980951
0.98081
0.980672
0.980537
0.980403
0.98027
0.980138
0.980005
0.979872
0.979739
0.979604
0.979467
0.979328
0.979188
0.979045
0.978899
0.978751
0.978601
0.978448
0.978294
0.978137
0.97798
0.977822
0.977664
0.977507
0.977353
0.977203
0.977059
0.976922
0.976805
0.976789
0.976858
0.976986
0.977154
0.977349
0.97756
0.977777
0.977992
0.978186
0.978343
0.999242
0.998535
0.997901
0.997322
0.996788
0.996291
0.995826
0.995388
0.994974
0.994571
0.993838
0.993054
0.992259
0.99147
0.990699
0.989952
0.989236
0.988555
0.987917
0.987324
0.986781
0.986292
0.985856
0.985475
0.985146
0.984864
0.984625
0.984422
0.984246
0.984093
0.983956
0.98383
0.983713
0.983598
0.983483
0.98336
0.983229
0.983096
0.982964
0.982825
0.98268
0.982527
0.982364
0.982205
0.982049
0.981893
0.981737
0.981581
0.981429
0.981281
0.981139
0.981004
0.980873
0.980747
0.980624
0.980504
0.980386
0.980269
0.980155
0.980041
0.979929
0.979818
0.979708
0.979599
0.979492
0.979387
0.979284
0.979184
0.979088
0.978997
0.978911
0.978832
0.97876
0.978697
0.978643
0.9786
0.978568
0.978553
0.978557
0.978608
0.97879
0.979055
0.979364
0.979693
0.980026
0.980352
0.980663
0.980953
0.981201
0.981389
0.999252
0.998555
0.99793
0.99736
0.996833
0.996343
0.995884
0.995452
0.995044
0.994647
0.993926
0.993153
0.99237
0.991593
0.990834
0.9901
0.989397
0.988731
0.988109
0.987535
0.987013
0.986547
0.986137
0.985783
0.985481
0.985227
0.985012
0.98483
0.984673
0.984534
0.984409
0.984293
0.984184
0.984078
0.983972
0.983858
0.983734
0.983608
0.98348
0.983344
0.983198
0.98304
0.982869
0.982698
0.982531
0.982361
0.982192
0.982026
0.981866
0.981716
0.981579
0.981453
0.981338
0.981233
0.981136
0.981046
0.980965
0.980891
0.980824
0.980763
0.980708
0.980658
0.980613
0.980572
0.980536
0.980504
0.980477
0.980455
0.980439
0.980428
0.980424
0.980427
0.980438
0.980456
0.980482
0.980517
0.980564
0.980647
0.980778
0.981073
0.981525
0.981941
0.982324
0.982681
0.983014
0.983322
0.983602
0.983846
0.984024
0.984094
0.999262
0.998575
0.997959
0.997396
0.996877
0.996393
0.995941
0.995515
0.995112
0.99472
0.994006
0.993239
0.992464
0.991703
0.99097
0.990274
0.989625
0.989031
0.988497
0.988024
0.987613
0.987262
0.986965
0.986717
0.986509
0.986334
0.986185
0.986053
0.985933
0.98582
0.98571
0.985604
0.985499
0.985396
0.985289
0.985175
0.98505
0.984919
0.984783
0.984633
0.984469
0.984286
0.984084
0.983876
0.983664
0.983445
0.983223
0.983003
0.982791
0.982595
0.982417
0.982261
0.982126
0.982014
0.981924
0.981857
0.981828
0.981827
0.981845
0.981876
0.981916
0.98196
0.982008
0.982058
0.98211
0.982163
0.982217
0.982274
0.982332
0.982394
0.982459
0.982527
0.982599
0.982675
0.982756
0.982843
0.982936
0.983041
0.983174
0.983443
0.983847
0.984199
0.98451
0.984791
0.985047
0.98528
0.985489
0.985669
0.985798
0.985848
0.999273
0.998595
0.997987
0.997432
0.99692
0.996443
0.995997
0.995578
0.995182
0.994806
0.994446
0.994099
0.993764
0.993437
0.993119
0.99281
0.992509
0.992217
0.991934
0.991659
0.991392
0.991134
0.990884
0.990643
0.990409
0.990182
0.989963
0.989749
0.989541
0.989338
0.989139
0.988945
0.988755
0.988571
0.98839
0.988212
0.988034
0.987859
0.987688
0.987517
0.987347
0.987176
0.987003
0.986832
0.986664
0.9865
0.986343
0.986195
0.986057
0.985932
0.98582
0.985721
0.985634
0.98556
0.985498
0.985447
0.985408
0.985378
0.985359
0.985347
0.985344
0.985348
0.985358
0.985373
0.985394
0.98542
0.985449
0.985483
0.98552
0.98556
0.985603
0.985649
0.985697
0.985748
0.985802
0.985857
0.985916
0.985977
0.986041
0.986113
0.986198
0.986288
0.98638
0.986473
0.986564
0.986652
0.986732
0.9868
0.986838
0.986828
0.999283
0.998615
0.998015
0.997468
0.996963
0.996493
0.996053
0.99564
0.995249
0.994878
0.994525
0.994188
0.993864
0.993553
0.993252
0.992962
0.992681
0.992409
0.992146
0.991889
0.991641
0.991399
0.991163
0.990934
0.990711
0.990493
0.99028
0.990072
0.989868
0.989667
0.989468
0.989272
0.989079
0.988891
0.988705
0.988521
0.988339
0.988159
0.987985
0.987812
0.987643
0.987475
0.987309
0.987148
0.986994
0.986844
0.986701
0.986565
0.986438
0.986321
0.986216
0.98612
0.986034
0.985956
0.985888
0.985827
0.985775
0.985731
0.985695
0.985665
0.985641
0.985624
0.985613
0.985606
0.985605
0.985608
0.985616
0.985628
0.985643
0.985662
0.985684
0.98571
0.985739
0.98577
0.985804
0.985842
0.985881
0.985924
0.985969
0.986018
0.98607
0.986122
0.986172
0.98622
0.986264
0.986304
0.986337
0.98636
0.98635
0.986292
0.999293
0.998634
0.998043
0.997504
0.997006
0.996542
0.996109
0.995701
0.995316
0.994951
0.994603
0.994271
0.993952
0.993646
0.993352
0.993067
0.992792
0.992525
0.992266
0.992014
0.991768
0.991528
0.991294
0.991066
0.990842
0.990623
0.990408
0.990197
0.98999
0.989785
0.989582
0.989381
0.989183
0.988988
0.988797
0.988608
0.98842
0.988235
0.988054
0.987875
0.987697
0.987519
0.98734
0.987162
0.986987
0.986812
0.986637
0.986464
0.986294
0.986129
0.985968
0.985813
0.985664
0.985524
0.985393
0.98527
0.985156
0.985049
0.984949
0.984857
0.984771
0.984691
0.984616
0.984547
0.984483
0.984424
0.98437
0.984319
0.984274
0.984232
0.984195
0.984161
0.984131
0.984105
0.984082
0.984063
0.984047
0.984034
0.984023
0.984015
0.98401
0.984006
0.984004
0.984002
0.984001
0.983998
0.983989
0.983971
0.983926
0.98387
0.999303
0.998654
0.998071
0.99754
0.997049
0.996592
0.996164
0.995762
0.995383
0.995022
0.994679
0.994352
0.994038
0.993737
0.993446
0.993166
0.992894
0.992631
0.992375
0.992127
0.991884
0.991648
0.991417
0.99119
0.990969
0.990752
0.990539
0.99033
0.990124
0.98992
0.989718
0.989518
0.989321
0.989126
0.988934
0.988745
0.988557
0.988373
0.988194
0.98802
0.98785
0.987683
0.987517
0.987354
0.987193
0.987031
0.986869
0.986708
0.986549
0.986393
0.986242
0.986096
0.985954
0.985817
0.985686
0.985561
0.985444
0.985333
0.985229
0.985133
0.985045
0.984964
0.984891
0.984825
0.984766
0.984713
0.984666
0.984626
0.98459
0.984558
0.98453
0.984506
0.984483
0.984463
0.984444
0.984425
0.984407
0.984388
0.984369
0.984349
0.984328
0.984305
0.98428
0.984252
0.984221
0.984187
0.98415
0.984106
0.984053
0.983979
0.999313
0.998673
0.998099
0.997575
0.997091
0.996641
0.996219
0.995823
0.995449
0.995094
0.994756
0.994433
0.994124
0.993827
0.993541
0.993264
0.992997
0.992738
0.992486
0.99224
0.992001
0.991768
0.99154
0.991317
0.991098
0.990883
0.990672
0.990464
0.990259
0.990057
0.989857
0.989658
0.989461
0.989266
0.989075
0.988886
0.988699
0.988519
0.988352
0.988202
0.988073
0.987961
0.987856
0.987758
0.987664
0.987569
0.987473
0.987378
0.987285
0.987194
0.987109
0.98703
0.98696
0.986898
0.986846
0.986803
0.986768
0.986741
0.986722
0.986708
0.9867
0.986695
0.986692
0.986692
0.986692
0.986691
0.986689
0.986686
0.98668
0.986672
0.98666
0.986645
0.986627
0.986605
0.98658
0.986551
0.986519
0.986483
0.986444
0.986402
0.986356
0.986306
0.986253
0.986196
0.986135
0.986069
0.985998
0.985922
0.985835
0.985728
0.999323
0.998692
0.998127
0.99761
0.997133
0.996689
0.996274
0.995883
0.995514
0.995164
0.994831
0.994513
0.994208
0.993915
0.993633
0.993361
0.993097
0.992841
0.992592
0.99235
0.992114
0.991884
0.991659
0.991438
0.991222
0.991009
0.9908
0.990594
0.99039
0.990189
0.989989
0.989791
0.989594
0.989399
0.989208
0.989019
0.988834
0.988666
0.988548
0.988504
0.98853
0.988598
0.988683
0.98877
0.988854
0.988929
0.988995
0.989055
0.989108
0.989156
0.989194
0.989228
0.989257
0.98928
0.989298
0.989308
0.989313
0.989311
0.989303
0.98929
0.989272
0.989249
0.989223
0.989192
0.989159
0.989122
0.989082
0.989039
0.988993
0.988945
0.988894
0.988841
0.988786
0.988728
0.988668
0.988606
0.988543
0.988477
0.98841
0.988341
0.98827
0.988197
0.988123
0.988046
0.987967
0.987885
0.987801
0.987712
0.987615
0.987502
0.999333
0.998711
0.998153
0.997644
0.997174
0.996737
0.996327
0.995942
0.995578
0.995233
0.994905
0.994591
0.99429
0.994001
0.993723
0.993454
0.993194
0.992941
0.992696
0.992457
0.992224
0.991996
0.991774
0.991556
0.991342
0.991131
0.990923
0.990718
0.990515
0.990314
0.990115
0.989916
0.989718
0.989523
0.98933
0.98914
0.988957
0.988858
0.988987
0.989303
0.989721
0.990131
0.990475
0.990758
0.99098
0.991146
0.991265
0.991348
0.991402
0.991431
0.991442
0.991432
0.991408
0.991372
0.991327
0.991275
0.991218
0.991157
0.991093
0.991028
0.990961
0.990894
0.990826
0.990757
0.990688
0.990619
0.990549
0.990478
0.990407
0.990335
0.990262
0.990189
0.990116
0.990042
0.989967
0.989893
0.989818
0.989742
0.989666
0.989588
0.98951
0.98943
0.989348
0.989265
0.98918
0.989094
0.989006
0.988915
0.988817
0.988705
0.999342
0.998729
0.998179
0.997677
0.997213
0.996781
0.996377
0.995997
0.995638
0.995298
0.994974
0.994664
0.994367
0.994082
0.993807
0.993542
0.993285
0.993035
0.992792
0.992556
0.992326
0.9921
0.99188
0.991664
0.991451
0.991243
0.991036
0.990832
0.99063
0.990428
0.990228
0.990028
0.989828
0.98963
0.989433
0.989241
0.989071
0.989185
0.989881
0.990812
0.99162
0.992173
0.99255
0.992775
0.992891
0.992931
0.992921
0.992879
0.992818
0.992744
0.992664
0.992579
0.992492
0.992404
0.992317
0.992232
0.992147
0.992064
0.991983
0.991904
0.991826
0.991749
0.991674
0.991601
0.991529
0.991457
0.991386
0.991314
0.991242
0.99117
0.991098
0.991025
0.990952
0.990878
0.990804
0.99073
0.990655
0.990579
0.990503
0.990427
0.99035
0.990272
0.990193
0.990112
0.99003
0.989945
0.989856
0.98976
0.989657
0.989543
0.99935
0.998745
0.998202
0.997706
0.997248
0.996821
0.996422
0.996047
0.995692
0.995356
0.995036
0.99473
0.994436
0.994154
0.993882
0.99362
0.993365
0.993118
0.992878
0.992644
0.992415
0.992192
0.991973
0.991758
0.991547
0.991339
0.991133
0.99093
0.990727
0.990525
0.990323
0.990121
0.989918
0.989716
0.989514
0.989317
0.989227
0.98973
0.991467
0.992796
0.993614
0.99403
0.994153
0.994146
0.994064
0.993941
0.993799
0.993652
0.993509
0.993374
0.993249
0.993134
0.993028
0.99293
0.992838
0.992752
0.99267
0.992594
0.992522
0.992451
0.992382
0.992312
0.992243
0.992174
0.992104
0.992034
0.991964
0.991893
0.991822
0.991751
0.991679
0.991607
0.991535
0.991463
0.99139
0.991317
0.991244
0.991171
0.991097
0.991023
0.990948
0.990873
0.990797
0.990719
0.990641
0.99056
0.990475
0.990383
0.990274
0.990153
0.999357
0.998758
0.998221
0.99773
0.997277
0.996855
0.99646
0.996088
0.995737
0.995404
0.995087
0.994784
0.994493
0.994214
0.993945
0.993684
0.993432
0.993187
0.992948
0.992715
0.992488
0.992265
0.992047
0.991833
0.991622
0.991414
0.991208
0.991004
0.9908
0.990597
0.990393
0.990188
0.989982
0.989774
0.989568
0.989367
0.989274
0.989806
0.991833
0.993386
0.994393
0.994956
0.994958
0.994865
0.994723
0.994551
0.99437
0.994191
0.994021
0.993864
0.993721
0.993591
0.993472
0.993367
0.993274
0.993187
0.993106
0.993028
0.992952
0.992878
0.992805
0.992732
0.99266
0.992588
0.992515
0.992443
0.992371
0.992298
0.992226
0.992154
0.992082
0.992009
0.991937
0.991865
0.991793
0.99172
0.991648
0.991575
0.991502
0.99143
0.991356
0.991283
0.991208
0.991133
0.991057
0.990979
0.990896
0.990808
0.990702
0.990573
0.999362
0.998768
0.998235
0.997748
0.997298
0.996879
0.996488
0.996119
0.99577
0.995439
0.995124
0.994823
0.994535
0.994257
0.993989
0.99373
0.993479
0.993235
0.992998
0.992766
0.992539
0.992316
0.992098
0.991883
0.991671
0.991462
0.991255
0.991049
0.990843
0.990637
0.990431
0.990223
0.990014
0.989806
0.989602
0.989408
0.989303
0.989803
0.991963
0.993666
0.994822
0.995524
0.99543
0.99527
0.995083
0.994881
0.994681
0.994489
0.994308
0.99414
0.993985
0.993845
0.993722
0.993612
0.993511
0.993418
0.99333
0.993246
0.993165
0.993086
0.993009
0.992933
0.992859
0.992785
0.992711
0.992639
0.992566
0.992494
0.992423
0.992351
0.99228
0.992209
0.992138
0.992067
0.991995
0.991924
0.991852
0.99178
0.991708
0.991635
0.991562
0.991489
0.991414
0.991339
0.991263
0.991184
0.991102
0.991013
0.990907
0.990776
0.999365
0.998774
0.998244
0.997759
0.997312
0.996895
0.996505
0.996138
0.99579
0.995461
0.995147
0.994847
0.994559
0.994282
0.994015
0.993757
0.993506
0.993262
0.993025
0.992793
0.992565
0.992342
0.992123
0.991907
0.991694
0.991482
0.991273
0.991064
0.990856
0.990648
0.990439
0.990231
0.990026
0.989832
0.989656
0.989506
0.989393
0.989797
0.991856
0.993547
0.994729
0.995476
0.995351
0.995168
0.994969
0.994768
0.994575
0.994396
0.994229
0.994075
0.993932
0.993803
0.993686
0.993578
0.993476
0.993381
0.993291
0.993204
0.993121
0.993041
0.992963
0.992888
0.992814
0.992742
0.992671
0.9926
0.992531
0.992462
0.992392
0.992323
0.992254
0.992184
0.992114
0.992043
0.991972
0.9919
0.991828
0.991755
0.991681
0.991606
0.991531
0.991455
0.991378
0.9913
0.99122
0.991138
0.991051
0.990958
0.990846
0.990709
0.999367
0.998777
0.998248
0.997764
0.997318
0.996902
0.996513
0.996146
0.9958
0.99547
0.995157
0.994857
0.994569
0.994292
0.994025
0.993766
0.993515
0.993271
0.993032
0.992799
0.992571
0.992347
0.992126
0.991908
0.991692
0.991479
0.991267
0.991057
0.990847
0.990639
0.990434
0.990239
0.990061
0.98992
0.989836
0.989811
0.989738
0.989676
0.990374
0.991278
0.992257
0.993094
0.993217
0.993291
0.99334
0.993364
0.993369
0.993359
0.993335
0.9933
0.993256
0.993205
0.99315
0.993091
0.993028
0.992963
0.992897
0.992829
0.992764
0.992699
0.992633
0.992568
0.992503
0.992438
0.992374
0.992309
0.992244
0.992178
0.992111
0.992043
0.991973
0.991902
0.991828
0.991753
0.991676
0.991597
0.991516
0.991433
0.991348
0.991262
0.991174
0.991084
0.990993
0.9909
0.990805
0.990708
0.990606
0.990498
0.990385
0.990259
0.999367
0.998777
0.998248
0.997765
0.997319
0.996903
0.996514
0.996147
0.995801
0.995472
0.995158
0.994858
0.99457
0.994293
0.994025
0.993766
0.993514
0.993269
0.993029
0.992795
0.992565
0.992339
0.992116
0.991896
0.991678
0.991462
0.991249
0.991039
0.990834
0.990639
0.99046
0.990312
0.990216
0.99021
0.990315
0.990492
0.990485
0.990403
0.990863
0.991283
0.991702
0.992094
0.991892
0.991717
0.991599
0.991542
0.991546
0.991602
0.991696
0.991805
0.991914
0.992011
0.99209
0.992147
0.992183
0.9922
0.9922
0.992185
0.992161
0.992126
0.992084
0.992034
0.991978
0.991918
0.991853
0.991784
0.99171
0.991633
0.991553
0.991469
0.991383
0.991295
0.991206
0.991115
0.991023
0.990927
0.99083
0.990729
0.990627
0.990521
0.990413
0.990302
0.990187
0.99007
0.989949
0.989824
0.989695
0.989559
0.989413
0.989249
0.999366
0.998776
0.998247
0.997763
0.997316
0.9969
0.996511
0.996144
0.995798
0.995468
0.995155
0.994855
0.994567
0.994289
0.994021
0.993762
0.993509
0.993264
0.993024
0.992788
0.992557
0.99233
0.992105
0.991883
0.991663
0.991446
0.991236
0.991037
0.990859
0.990712
0.990609
0.990575
0.990637
0.990833
0.991153
0.991443
0.991371
0.991223
0.99174
0.992195
0.992578
0.992883
0.992468
0.992079
0.991761
0.991499
0.991294
0.991156
0.991087
0.99108
0.991116
0.99118
0.991253
0.991323
0.991383
0.991426
0.991451
0.991458
0.991453
0.991434
0.991402
0.991356
0.9913
0.991233
0.991156
0.991071
0.990978
0.990876
0.990767
0.99065
0.990526
0.990395
0.990257
0.990112
0.989961
0.989804
0.989641
0.989472
0.989297
0.989109
0.988909
0.988698
0.98848
0.988259
0.988036
0.987813
0.987591
0.987368
0.987138
0.986895
0.999366
0.998775
0.998245
0.997761
0.997313
0.996897
0.996507
0.99614
0.995793
0.995464
0.99515
0.994849
0.994561
0.994284
0.994016
0.993756
0.993504
0.993257
0.993017
0.992781
0.992549
0.992321
0.992095
0.991872
0.991651
0.991437
0.991245
0.991097
0.991011
0.990995
0.991056
0.991201
0.991441
0.991782
0.992159
0.992284
0.991957
0.991552
0.992178
0.992742
0.993166
0.993415
0.992363
0.991425
0.990715
0.990286
0.99007
0.989995
0.990008
0.990076
0.990173
0.990281
0.99039
0.990489
0.990572
0.990632
0.990666
0.990673
0.990656
0.990615
0.99055
0.990464
0.990359
0.990237
0.990098
0.98994
0.989765
0.989578
0.989382
0.989181
0.988979
0.988777
0.98858
0.98839
0.98821
0.988042
0.987889
0.987752
0.987635
0.987543
0.987477
0.987431
0.987399
0.987376
0.987359
0.987342
0.987324
0.987299
0.987262
0.987205
0.999365
0.998774
0.998244
0.997759
0.997311
0.996895
0.996504
0.996137
0.99579
0.99546
0.995146
0.994845
0.994556
0.994279
0.99401
0.99375
0.993497
0.993251
0.99301
0.992773
0.992541
0.992312
0.992085
0.991861
0.991643
0.99145
0.991373
0.991417
0.991572
0.991793
0.992031
0.992284
0.992538
0.992785
0.99294