/*--------------------------------*- C++ -*----------------------------------*\
| =========                 |                                                 |
| \\      /  F ield         | OpenFOAM: The Open Source CFD Toolbox           |
|  \\    /   O peration     | Version:  v2012                                 |
|   \\  /    A nd           | Website:  www.openfoam.com                      |
|    \\/     M anipulation  |                                                 |
\*---------------------------------------------------------------------------*/
FoamFile
{
    version     2.0;
    format      ascii;
    class       volScalarField;
    location    "650/air";
    object      TLeaf;
}
// * * * * * * * * * * * * * * * * * * * * * * * * * * * * * * * * * * * * * //

dimensions      [0 0 0 1 0 0 0];


internalField   nonuniform List<scalar> 
287104
(
310.32
310.618
310.885
311.129
311.353
311.562
311.758
311.941
312.115
312.279
312.436
312.585
312.728
312.865
312.998
313.126
313.25
313.37
313.486
313.6
313.711
313.819
313.925
314.029
314.131
314.23
314.328
314.425
314.52
314.613
314.705
314.796
314.885
314.973
315.06
315.146
315.231
315.315
315.397
315.479
315.56
315.64
315.719
315.797
315.874
315.95
316.025
316.1
316.173
316.246
316.318
316.389
316.459
316.529
316.597
316.665
316.732
316.798
316.864
316.928
316.992
317.055
317.117
317.179
317.239
317.299
317.359
317.417
317.475
317.532
317.589
317.645
317.7
317.755
317.809
317.863
317.916
317.968
318.021
318.072
318.124
318.175
318.225
318.276
318.326
318.377
318.428
318.48
318.535
318.6
310.316
310.61
310.873
311.113
311.335
311.541
311.733
311.914
312.084
312.246
312.4
312.546
312.687
312.822
312.952
313.077
313.198
313.316
313.43
313.542
313.65
313.756
313.86
313.961
314.06
314.158
314.253
314.347
314.44
314.531
314.621
314.709
314.796
314.882
314.966
315.05
315.132
315.214
315.294
315.373
315.452
315.529
315.606
315.682
315.756
315.83
315.903
315.976
316.047
316.118
316.187
316.256
316.324
316.391
316.458
316.524
316.589
316.653
316.716
316.778
316.84
316.901
316.962
317.021
317.08
317.138
317.196
317.252
317.309
317.364
317.419
317.473
317.527
317.58
317.632
317.684
317.736
317.787
317.838
317.888
317.938
317.987
318.036
318.085
318.134
318.184
318.233
318.284
318.338
318.402
310.311
310.601
310.861
311.098
311.317
311.52
311.709
311.888
312.056
312.215
312.367
312.512
312.65
312.783
312.911
313.035
313.154
313.27
313.383
313.492
313.599
313.703
313.805
313.905
314.002
314.098
314.192
314.284
314.375
314.464
314.552
314.639
314.724
314.808
314.891
314.973
315.053
315.133
315.212
315.289
315.366
315.442
315.516
315.59
315.663
315.735
315.806
315.877
315.946
316.015
316.082
316.149
316.215
316.281
316.345
316.409
316.472
316.534
316.595
316.656
316.715
316.774
316.832
316.89
316.947
317.003
317.058
317.113
317.166
317.22
317.272
317.325
317.376
317.427
317.477
317.527
317.577
317.625
317.674
317.722
317.77
317.817
317.864
317.911
317.958
318.005
318.053
318.102
318.154
318.217
310.307
310.593
310.85
311.083
311.299
311.499
311.686
311.862
312.028
312.185
312.335
312.478
312.614
312.746
312.872
312.994
313.112
313.226
313.337
313.445
313.55
313.653
313.754
313.852
313.948
314.043
314.135
314.226
314.316
314.404
314.49
314.576
314.66
314.742
314.824
314.904
314.984
315.062
315.139
315.216
315.291
315.366
315.439
315.512
315.583
315.654
315.724
315.793
315.862
315.929
315.996
316.061
316.126
316.19
316.254
316.316
316.378
316.439
316.499
316.558
316.617
316.675
316.732
316.788
316.844
316.899
316.953
317.007
317.06
317.113
317.164
317.216
317.267
317.317
317.367
317.416
317.465
317.514
317.562
317.61
317.657
317.705
317.752
317.8
317.847
317.895
317.943
317.992
318.046
318.109
310.303
310.585
310.838
311.068
311.281
311.479
311.663
311.837
312.001
312.156
312.304
312.444
312.579
312.709
312.833
312.954
313.07
313.183
313.292
313.399
313.503
313.604
313.703
313.8
313.895
313.988
314.08
314.169
314.257
314.344
314.429
314.513
314.596
314.677
314.758
314.837
314.915
314.992
315.068
315.142
315.216
315.289
315.361
315.433
315.503
315.572
315.641
315.708
315.775
315.841
315.906
315.97
316.033
316.095
316.157
316.218
316.278
316.337
316.396
316.453
316.51
316.566
316.622
316.676
316.73
316.784
316.836
316.888
316.94
316.99
317.04
317.09
317.139
317.188
317.236
317.283
317.331
317.377
317.424
317.47
317.516
317.561
317.606
317.651
317.696
317.741
317.786
317.831
317.881
317.939
310.299
310.577
310.827
311.054
311.264
311.459
311.641
311.812
311.974
312.127
312.273
312.411
312.545
312.672
312.795
312.914
313.029
313.14
313.248
313.354
313.456
313.556
313.654
313.75
313.843
313.935
314.025
314.113
314.2
314.285
314.369
314.452
314.533
314.613
314.692
314.77
314.846
314.922
314.996
315.069
315.141
315.212
315.283
315.352
315.42
315.487
315.553
315.618
315.683
315.746
315.808
315.87
315.93
315.99
316.048
316.106
316.163
316.218
316.273
316.327
316.38
316.432
316.484
316.534
316.584
316.632
316.68
316.727
316.773
316.819
316.863
316.907
316.95
316.992
317.033
317.073
317.113
317.151
317.189
317.226
317.262
317.296
317.33
317.362
317.394
317.424
317.453
317.482
317.513
317.552
310.295
310.569
310.815
311.04
311.246
311.439
311.619
311.788
311.947
312.098
312.242
312.379
312.511
312.637
312.758
312.875
312.989
313.099
313.206
313.31
313.411
313.51
313.606
313.701
313.793
313.884
313.972
314.059
314.145
314.228
314.311
314.391
314.471
314.549
314.625
314.701
314.775
314.847
314.919
314.989
315.058
315.125
315.191
315.256
315.318
315.379
315.438
315.496
315.553
315.608
315.661
315.714
315.765
315.814
315.863
315.911
315.957
316.002
316.046
316.089
316.13
316.171
316.21
316.248
316.285
316.321
316.355
316.388
316.42
316.45
316.479
316.506
316.532
316.556
316.579
316.6
316.619
316.636
316.651
316.665
316.677
316.686
316.694
316.7
316.704
316.707
316.711
316.718
316.743
316.772
310.291
310.561
310.804
311.025
311.23
311.419
311.597
311.763
311.921
312.07
312.212
312.347
312.477
312.602
312.722
312.838
312.95
313.059
313.164
313.267
313.367
313.465
313.561
313.654
313.745
313.834
313.921
314.007
314.09
314.172
314.251
314.329
314.405
314.478
314.548
314.616
314.682
314.745
314.806
314.865
314.922
314.976
315.029
315.08
315.128
315.175
315.219
315.262
315.303
315.342
315.379
315.413
315.446
315.476
315.504
315.53
315.554
315.576
315.595
315.613
315.629
315.643
315.655
315.664
315.672
315.678
315.682
315.684
315.684
315.682
315.678
315.672
315.665
315.655
315.644
315.631
315.616
315.599
315.581
315.561
315.539
315.517
315.493
315.469
315.444
315.42
315.398
315.379
315.374
315.391
310.287
310.554
310.793
311.011
311.213
311.4
311.575
311.74
311.895
312.042
312.182
312.316
312.445
312.57
312.69
312.807
312.921
313.032
313.14
313.245
313.347
313.447
313.544
313.639
313.729
313.816
313.898
313.977
314.052
314.124
314.193
314.258
314.32
314.379
314.435
314.488
314.538
314.584
314.628
314.669
314.707
314.743
314.776
314.807
314.834
314.859
314.881
314.901
314.917
314.931
314.943
314.953
314.961
314.967
314.972
314.974
314.975
314.974
314.971
314.967
314.961
314.954
314.946
314.936
314.924
314.912
314.898
314.884
314.868
314.851
314.834
314.815
314.796
314.776
314.755
314.734
314.713
314.691
314.668
314.645
314.622
314.598
314.576
314.553
314.532
314.511
314.493
314.477
314.471
314.478
310.283
310.546
310.782
310.997
311.196
311.381
311.554
311.716
311.869
312.015
312.157
312.3
312.444
312.588
312.732
312.874
313.014
313.15
313.283
313.411
313.535
313.654
313.768
313.878
313.981
314.077
314.168
314.254
314.335
314.412
314.485
314.554
314.62
314.685
314.748
314.81
314.87
314.928
314.984
315.037
315.086
315.133
315.177
315.216
315.252
315.285
315.314
315.34
315.363
315.384
315.402
315.417
315.429
315.438
315.444
315.448
315.448
315.446
315.441
315.434
315.424
315.411
315.396
315.379
315.359
315.338
315.314
315.289
315.262
315.234
315.204
315.172
315.14
315.106
315.071
315.036
315
314.963
314.926
314.886
314.839
314.79
314.74
314.691
314.645
314.602
314.564
314.532
314.513
314.511
310.279
310.539
310.771
310.984
311.18
311.362
311.533
311.693
311.845
311.992
314.784
314.882
315.08
315.304
315.526
315.738
315.936
316.117
316.281
316.427
316.558
316.671
316.77
316.854
316.924
316.984
317.033
317.074
317.109
317.139
317.166
317.192
317.214
317.234
317.256
317.284
317.309
317.315
317.322
317.34
317.359
317.387
317.414
317.419
317.427
317.446
317.462
317.477
317.491
317.505
317.518
317.53
317.541
317.55
317.558
317.565
317.57
317.573
317.575
317.575
317.573
317.569
317.563
317.555
317.546
317.535
317.523
317.51
317.496
317.482
317.466
317.448
317.43
317.41
317.388
317.366
317.342
317.316
317.288
317.256
316.404
316.248
316.103
315.968
315.842
315.728
315.626
315.539
315.477
315.451
310.275
310.531
310.761
310.97
311.164
311.343
311.512
311.67
311.82
311.965
314.631
314.717
314.91
315.133
315.357
315.571
315.772
315.956
316.124
316.275
316.408
316.525
316.626
316.712
316.785
316.845
316.894
316.933
316.966
316.993
317.018
317.04
317.06
317.08
317.104
317.139
317.171
317.179
317.188
317.215
317.244
317.287
317.332
317.345
317.363
317.398
317.431
317.464
317.497
317.531
317.566
317.601
317.637
317.672
317.707
317.742
317.776
317.81
317.842
317.874
317.904
317.933
317.96
317.985
318.009
318.032
318.053
318.072
318.088
318.1
318.109
318.115
318.116
318.113
318.106
318.094
318.079
318.058
318.034
318.018
318.094
317.954
317.797
317.635
317.473
317.317
317.169
317.034
316.917
316.825
310.271
310.524
310.75
310.957
311.148
311.325
311.491
311.647
311.795
311.939
314.515
314.598
314.788
315.007
315.227
315.438
315.636
315.818
315.984
316.133
316.264
316.379
316.478
316.562
316.632
316.689
316.735
316.772
316.8
316.822
316.841
316.857
316.873
316.887
316.907
316.942
316.973
316.973
316.971
316.992
317.016
317.057
317.102
317.104
317.11
317.139
317.165
317.191
317.217
317.244
317.272
317.3
317.328
317.355
317.382
317.409
317.436
317.463
317.49
317.516
317.542
317.569
317.597
317.626
317.656
317.687
317.719
317.752
317.785
317.818
317.851
317.884
317.916
317.948
317.979
318.009
318.036
318.062
318.084
318.117
318.287
318.276
318.247
318.208
318.164
318.116
318.068
318.024
317.988
317.968
310.267
310.517
310.74
310.944
311.132
311.307
311.471
311.625
311.771
311.912
314.404
314.485
314.671
314.887
315.103
315.311
315.506
315.686
315.849
315.996
316.126
316.239
316.336
316.418
316.487
316.544
316.59
316.626
316.654
316.674
316.69
316.704
316.717
316.729
316.749
316.786
316.821
316.815
316.805
316.826
316.848
316.891
316.941
316.936
316.934
316.962
316.985
317.009
317.034
317.059
317.083
317.107
317.128
317.148
317.166
317.184
317.201
317.217
317.232
317.246
317.259
317.272
317.285
317.298
317.312
317.325
317.337
317.349
317.359
317.368
317.376
317.384
317.39
317.395
317.399
317.401
317.401
317.399
317.393
317.38
316.836
316.757
316.694
316.645
316.611
316.591
316.588
316.606
316.657
316.716
310.264
310.509
310.73
310.931
311.116
311.289
311.451
311.603
311.747
311.886
314.294
314.373
314.556
314.768
314.981
315.186
315.378
315.555
315.716
315.86
315.988
316.1
316.195
316.276
316.344
316.4
316.447
316.484
316.513
316.533
316.547
316.558
316.568
316.579
316.599
316.639
316.679
316.67
316.654
316.675
316.697
316.743
316.8
316.791
316.784
316.813
316.837
316.863
316.891
316.917
316.943
316.965
316.987
317.008
317.029
317.05
317.07
317.089
317.108
317.125
317.143
317.16
317.178
317.197
317.215
317.232
317.249
317.264
317.279
317.292
317.304
317.315
317.324
317.331
317.335
317.338
317.338
317.334
317.327
317.314
316.927
316.841
316.767
316.703
316.649
316.604
316.571
316.555
316.572
316.637
310.26
310.502
310.72
310.918
311.101
311.271
311.431
311.581
311.723
311.861
314.185
314.262
314.442
314.65
314.86
315.062
315.251
315.425
315.584
315.726
315.852
315.962
316.056
316.135
316.201
316.257
316.304
316.344
316.375
316.397
316.41
316.419
316.426
316.434
316.453
316.496
316.541
316.53
316.51
316.531
316.554
316.603
316.667
316.657
316.646
316.677
316.705
316.736
316.767
316.797
316.822
316.845
316.867
316.889
316.912
316.935
316.958
316.98
317.003
317.026
317.05
317.075
317.101
317.127
317.152
317.178
317.203
317.228
317.252
317.277
317.301
317.325
317.348
317.369
317.39
317.411
317.432
317.454
317.478
317.518
317.701
317.716
317.722
317.724
317.725
317.726
317.731
317.739
317.757
317.79
310.256
310.495
310.71
310.905
311.086
311.254
311.411
311.559
311.699
311.835
314.077
314.152
314.329
314.534
314.74
314.939
315.125
315.297
315.453
315.594
315.718
315.826
315.918
315.996
316.06
316.114
316.162
316.204
316.238
316.264
316.278
316.285
316.288
316.294
316.311
316.355
316.405
316.394
316.37
316.392
316.415
316.467
316.538
316.527
316.513
316.548
316.581
316.618
316.655
316.686
316.71
316.731
316.752
316.776
316.801
316.826
316.852
316.877
316.904
316.932
316.96
316.989
317.018
317.047
317.075
317.103
317.131
317.159
317.186
317.213
317.238
317.261
317.283
317.302
317.321
317.339
317.356
317.374
317.394
317.428
317.737
317.714
317.671
317.615
317.55
317.48
317.408
317.336
317.271
317.219
310.253
310.488
310.7
310.893
311.071
311.236
311.391
311.537
311.675
311.81
313.972
314.046
314.22
314.421
314.625
314.82
315.003
315.172
315.325
315.463
315.585
315.691
315.781
315.856
315.918
315.97
316.016
316.058
316.096
316.125
316.142
316.148
316.148
316.148
316.16
316.203
316.256
316.244
316.216
316.236
316.259
316.31
316.386
316.375
316.359
316.398
316.438
316.481
316.52
316.549
316.569
316.585
316.602
316.623
316.647
316.671
316.695
316.72
316.744
316.769
316.794
316.817
316.84
316.861
316.882
316.901
316.92
316.937
316.952
316.964
316.973
316.98
316.983
316.984
316.984
316.982
316.98
316.978
316.975
316.981
317.07
316.982
316.879
316.769
316.658
316.549
316.446
316.349
316.266
316.204
310.249
310.482
310.69
310.88
311.056
311.219
311.372
311.516
311.652
311.784
313.875
313.95
314.121
314.32
314.519
314.711
314.89
315.054
315.202
315.335
315.45
315.549
315.632
315.699
315.753
315.796
315.834
315.871
315.906
315.936
315.953
315.957
315.951
315.942
315.945
315.981
316.031
316.016
315.984
316.002
316.023
316.073
316.153
316.145
316.132
316.179
316.229
316.279
316.32
316.346
316.361
316.373
316.387
316.406
316.427
316.447
316.467
316.485
316.501
316.516
316.528
316.539
316.548
316.555
316.561
316.566
316.569
316.57
316.567
316.562
316.553
316.543
316.531
316.518
316.505
316.492
316.479
316.462
316.438
316.404
316.158
316.02
315.892
315.773
315.662
315.559
315.466
315.385
315.325
315.302
310.246
310.475
310.68
310.868
311.041
311.202
311.353
311.495
311.629
311.76
313.817
313.9
314.07
314.262
314.451
314.628
314.788
314.931
315.053
315.157
315.243
315.312
315.366
315.407
315.437
315.46
315.479
315.502
315.528
315.555
315.574
315.58
315.571
315.557
315.553
315.583
315.631
315.619
315.587
315.606
315.63
315.682
315.767
315.769
315.768
315.83
315.896
315.959
316.007
316.037
316.055
316.072
316.093
316.117
316.14
316.159
316.171
316.177
316.178
316.176
316.17
316.163
316.155
316.146
316.136
316.125
316.112
316.096
316.079
316.059
316.039
316.018
315.997
315.978
315.96
315.942
315.925
315.906
315.883
315.85
315.384
315.267
315.163
315.07
314.984
314.907
314.837
314.777
314.734
314.717
310.242
310.468
310.671
310.856
311.027
311.186
311.334
311.474
311.606
311.731
311.851
311.967
312.079
312.188
312.294
312.397
312.497
312.594
312.689
312.78
312.869
312.955
313.039
313.119
313.197
313.273
313.346
313.417
313.486
313.554
313.62
313.685
313.748
313.81
313.87
313.929
313.989
314.047
314.104
314.161
314.218
314.275
314.332
314.389
314.445
314.5
314.552
314.602
314.648
314.689
314.727
314.76
314.789
314.813
314.834
314.851
314.864
314.874
314.88
314.884
314.885
314.884
314.881
314.876
314.869
314.86
314.85
314.839
314.827
314.813
314.799
314.784
314.768
314.751
314.733
314.714
314.695
314.674
314.653
314.629
314.601
314.571
314.54
314.509
314.479
314.449
314.423
314.4
314.387
314.391
310.239
310.462
310.662
310.844
311.012
311.169
311.316
311.453
311.584
311.707
311.825
311.937
312.045
312.149
312.249
312.346
312.44
312.53
312.618
312.704
312.786
312.867
312.946
313.022
313.096
313.169
313.24
313.309
313.377
313.444
313.511
313.576
313.64
313.703
313.765
313.826
313.887
313.947
314.005
314.063
314.119
314.175
314.23
314.284
314.335
314.385
314.433
314.478
314.521
314.56
314.595
314.627
314.655
314.681
314.704
314.724
314.742
314.756
314.768
314.778
314.786
314.792
314.796
314.798
314.798
314.797
314.795
314.791
314.786
314.779
314.772
314.763
314.754
314.743
314.732
314.719
314.706
314.692
314.677
314.661
314.643
314.626
314.609
314.593
314.579
314.565
314.554
314.547
314.55
314.569
310.236
310.455
310.652
310.832
310.998
311.153
311.297
311.433
311.561
311.683
311.799
311.91
312.016
312.118
312.216
312.311
312.403
312.492
312.578
312.662
312.744
312.824
312.902
312.978
313.053
313.126
313.197
313.268
313.337
313.405
313.473
313.54
313.606
313.671
313.734
313.797
313.86
313.922
313.982
314.042
314.101
314.16
314.22
314.279
314.338
314.396
314.454
314.512
314.569
314.624
314.677
314.729
314.779
314.825
314.869
314.91
314.948
314.984
315.017
315.048
315.076
315.103
315.128
315.151
315.172
315.192
315.21
315.227
315.242
315.256
315.268
315.28
315.29
315.298
315.306
315.312
315.318
315.322
315.326
315.328
315.33
315.331
315.332
315.333
315.333
315.334
315.337
315.343
315.358
315.377
310.232
310.449
310.643
310.82
310.984
311.136
311.279
311.413
311.539
311.659
311.774
311.883
311.987
312.088
312.185
312.278
312.369
312.456
312.542
312.624
312.705
312.784
312.861
312.937
313.01
313.083
313.154
313.223
313.292
313.36
313.427
313.494
313.56
313.625
313.689
313.752
313.814
313.876
313.935
313.993
314.05
314.106
314.161
314.215
314.269
314.323
314.377
314.431
314.484
314.536
314.586
314.635
314.682
314.728
314.771
314.813
314.852
314.889
314.924
314.956
314.985
315.012
315.036
315.058
315.078
315.096
315.111
315.125
315.137
315.147
315.157
315.165
315.172
315.179
315.185
315.192
315.198
315.204
315.21
315.217
315.224
315.232
315.24
315.249
315.26
315.271
315.283
315.298
315.316
315.34
310.229
310.442
310.634
310.808
310.97
311.12
311.26
311.392
311.517
311.635
311.748
311.856
311.959
312.058
312.153
312.245
312.334
312.421
312.505
312.587
312.666
312.744
312.82
312.894
312.967
313.039
313.109
313.179
313.247
313.314
313.381
313.447
313.513
313.578
313.642
313.705
313.767
313.827
313.883
313.933
313.976
314.013
314.048
314.081
314.112
314.144
314.176
314.207
314.238
314.269
314.297
314.323
314.347
314.367
314.385
314.399
314.411
314.42
314.426
314.431
314.433
314.435
314.436
314.436
314.436
314.436
314.437
314.438
314.44
314.443
314.447
314.452
314.458
314.465
314.473
314.483
314.494
314.506
314.519
314.533
314.548
314.565
314.582
314.601
314.622
314.644
314.667
314.693
314.722
314.757
310.226
310.436
310.624
310.797
310.956
311.104
311.242
311.372
311.495
311.612
311.723
311.829
311.931
312.028
312.122
312.213
312.301
312.386
312.469
312.55
312.629
312.705
312.78
312.854
312.926
312.997
313.067
313.135
313.203
313.27
313.337
313.403
313.469
313.534
313.597
313.66
313.722
313.778
313.817
313.832
313.823
313.801
313.772
313.743
313.715
313.69
313.668
313.648
313.631
313.615
313.602
313.591
313.581
313.573
313.567
313.564
313.562
313.563
313.566
313.57
313.576
313.584
313.592
313.603
313.614
313.626
313.639
313.654
313.669
313.685
313.702
313.72
313.738
313.757
313.777
313.798
313.819
313.841
313.863
313.886
313.91
313.934
313.959
313.985
314.011
314.038
314.066
314.096
314.128
314.166
310.222
310.43
310.616
310.785
310.942
311.088
311.224
311.353
311.474
311.589
311.698
311.803
311.903
312
312.092
312.182
312.269
312.353
312.435
312.514
312.592
312.668
312.742
312.815
312.886
312.956
313.026
313.094
313.162
313.229
313.295
313.361
313.427
313.492
313.557
313.62
313.681
313.714
313.671
313.566
313.426
313.29
313.175
313.081
313.007
312.951
312.912
312.884
312.866
312.856
312.853
312.856
312.864
312.876
312.891
312.908
312.927
312.948
312.969
312.991
313.013
313.035
313.058
313.081
313.104
313.127
313.15
313.174
313.198
313.222
313.246
313.27
313.295
313.319
313.344
313.369
313.394
313.419
313.445
313.471
313.497
313.523
313.551
313.578
313.607
313.635
313.665
313.695
313.728
313.765
310.219
310.424
310.607
310.774
310.929
311.073
311.208
311.334
311.454
311.567
311.675
311.779
311.878
311.973
312.064
312.153
312.238
312.322
312.403
312.481
312.558
312.633
312.707
312.779
312.85
312.919
312.988
313.056
313.123
313.191
313.257
313.324
313.391
313.457
313.522
313.586
313.643
313.605
313.373
313.063
312.793
312.609
312.483
312.408
312.37
312.356
312.36
312.374
312.394
312.419
312.445
312.474
312.503
312.532
312.561
312.589
312.618
312.645
312.672
312.699
312.725
312.75
312.775
312.8
312.824
312.848
312.871
312.895
312.919
312.943
312.967
312.992
313.016
313.041
313.065
313.09
313.115
313.14
313.166
313.191
313.217
313.243
313.269
313.296
313.323
313.352
313.381
313.413
313.448
313.486
310.217
310.418
310.599
310.765
310.917
311.06
311.193
311.318
311.436
311.548
311.655
311.757
311.855
311.949
312.039
312.127
312.212
312.294
312.374
312.452
312.528
312.603
312.676
312.747
312.818
312.887
312.956
313.023
313.091
313.158
313.226
313.293
313.361
313.428
313.495
313.561
313.591
313.423
312.844
312.401
312.129
311.99
311.949
311.951
311.979
312.02
312.067
312.116
312.164
312.209
312.25
312.289
312.324
312.357
312.387
312.416
312.443
312.469
312.493
312.516
312.539
312.563
312.586
312.609
312.632
312.655
312.679
312.702
312.726
312.75
312.774
312.798
312.822
312.846
312.87
312.894
312.919
312.943
312.968
312.992
313.017
313.042
313.068
313.094
313.12
313.147
313.175
313.206
313.242
313.282
310.214
310.414
310.593
310.757
310.908
311.048
311.18
311.304
311.421
311.532
311.638
311.739
311.836
311.929
312.018
312.105
312.189
312.271
312.351
312.428
312.504
312.578
312.651
312.722
312.793
312.862
312.931
312.999
313.067
313.134
313.202
313.271
313.339
313.409
313.477
313.544
313.575
313.398
312.722
312.205
311.869
311.681
311.681
311.712
311.759
311.816
311.877
311.936
311.993
312.045
312.093
312.136
312.176
312.211
312.242
312.271
312.298
312.324
312.349
312.374
312.398
312.423
312.447
312.471
312.495
312.519
312.543
312.567
312.591
312.615
312.639
312.664
312.688
312.712
312.736
312.76
312.784
312.808
312.833
312.857
312.881
312.906
312.931
312.956
312.981
313.007
313.035
313.064
313.099
313.142
310.213
310.411
310.588
310.751
310.901
311.04
311.171
311.294
311.41
311.52
311.625
311.726
311.822
311.914
312.004
312.09
312.174
312.255
312.334
312.411
312.487
312.561
312.634
312.706
312.776
312.846
312.915
312.984
313.052
313.121
313.19
313.259
313.329
313.398
313.466
313.531
313.566
313.399
312.679
312.111
311.726
311.492
311.523
311.577
311.639
311.706
311.773
311.837
311.897
311.953
312.005
312.052
312.093
312.129
312.163
312.194
312.223
312.251
312.278
312.305
312.33
312.356
312.38
312.405
312.43
312.454
312.478
312.502
312.526
312.55
312.573
312.597
312.621
312.644
312.668
312.692
312.716
312.74
312.764
312.788
312.813
312.837
312.862
312.887
312.912
312.939
312.966
312.996
313.031
313.075
310.212
310.409
310.585
310.747
310.896
311.035
311.165
311.287
311.403
311.513
311.618
311.718
311.814
311.906
311.995
312.081
312.165
312.246
312.325
312.402
312.478
312.553
312.626
312.698
312.769
312.839
312.909
312.979
313.048
313.117
313.187
313.256
313.325
313.389
313.448
313.498
313.536
313.401
312.715
312.151
311.757
311.508
311.55
311.611
311.677
311.744
311.808
311.868
311.924
311.975
312.023
312.066
312.105
312.141
312.175
312.206
312.236
312.265
312.293
312.32
312.346
312.371
312.395
312.419
312.443
312.467
312.49
312.513
312.536
312.559
312.582
312.605
312.629
312.652
312.676
312.7
312.724
312.748
312.773
312.798
312.823
312.848
312.874
312.9
312.927
312.954
312.983
313.014
313.051
313.097
310.211
310.408
310.584
310.745
310.894
311.033
311.162
311.285
311.4
311.51
311.614
311.714
311.81
311.903
311.992
312.078
312.162
312.243
312.323
312.4
312.476
312.551
312.625
312.697
312.769
312.84
312.911
312.981
313.051
313.12
313.189
313.254
313.313
313.36
313.388
313.396
313.421
313.441
313.209
312.907
312.581
312.302
312.261
312.236
312.22
312.212
312.21
312.214
312.222
312.233
312.248
312.265
312.283
312.303
312.324
312.346
312.368
312.39
312.412
312.434
312.456
312.477
312.499
312.521
312.542
312.564
312.585
312.607
312.63
312.652
312.676
312.699
312.724
312.749
312.775
312.801
312.828
312.856
312.884
312.913
312.942
312.972
313.002
313.033
313.065
313.097
313.131
313.167
313.205
313.247
310.211
310.408
310.584
310.745
310.894
311.032
311.162
311.284
311.4
311.509
311.614
311.714
311.81
311.902
311.992
312.078
312.162
312.244
312.324
312.402
312.478
312.554
312.628
312.701
312.774
312.846
312.917
312.987
313.055
313.12
313.18
313.229
313.261
313.263
313.228
313.169
313.172
313.199
313.046
312.906
312.766
312.635
312.703
312.761
312.8
312.819
312.818
312.799
312.768
312.732
312.695
312.663
312.637
312.618
312.606
312.6
312.6
312.605
312.613
312.625
312.639
312.655
312.674
312.694
312.716
312.739
312.763
312.789
312.816
312.844
312.872
312.902
312.931
312.962
312.992
313.024
313.057
313.09
313.124
313.16
313.196
313.233
313.271
313.31
313.35
313.392
313.435
313.48
313.529
313.584
310.211
310.408
310.584
310.746
310.895
311.033
311.163
311.285
311.401
311.511
311.615
311.715
311.811
311.904
311.993
312.079
312.164
312.245
312.325
312.404
312.481
312.557
312.632
312.706
312.779
312.851
312.921
312.988
313.047
313.096
313.13
313.142
313.121
313.056
312.949
312.852
312.876
312.926
312.753
312.602
312.474
312.372
312.511
312.64
312.746
312.834
312.902
312.948
312.971
312.973
312.961
312.94
312.916
312.892
312.872
312.858
312.85
312.847
312.849
312.855
312.866
312.881
312.9
312.922
312.948
312.976
313.007
313.041
313.078
313.117
313.158
313.202
313.248
313.296
313.346
313.399
313.453
313.509
313.568
313.63
313.697
313.767
313.84
313.914
313.988
314.062
314.136
314.211
314.287
314.368
310.211
310.408
310.585
310.746
310.896
311.034
311.164
311.287
311.402
311.512
311.617
311.717
311.813
311.905
311.995
312.081
312.165
312.248
312.328
312.406
312.484
312.56
312.635
312.709
312.783
312.854
312.918
312.968
312.996
313.002
312.981
312.933
312.853
312.739
312.614
312.572
312.681
312.816
312.607
312.419
312.278
312.195
312.546
312.858
313.095
313.238
313.31
313.335
313.331
313.308
313.276
313.24
313.203
313.17
313.143
313.123
313.111
313.109
313.115
313.128
313.15
313.179
313.214
313.254
313.301
313.353
313.412
313.474
313.539
313.606
313.674
313.741
313.807
313.87
313.93
313.986
314.037
314.083
314.122
314.152
314.174
314.19
314.2
314.208
314.214
314.219
314.225
314.234
314.246
314.265
310.212
310.409
310.585
310.747
310.896
311.035
311.165
311.288
311.403
311.513
311.618
311.718
311.815
311.907
311.997
312.083
312.168
312.25
312.33
312.409
312.486
312.563
312.638
312.713
312.786
312.85
312.876
312.861
312.809
312.736
312.656
312.572
312.487
312.405
312.353
312.442
313.979
313.702
313.498
313.386
313.321
313.313
313.329
313.341
313.351
313.359
313.368
313.378
313.391
313.407
313.425
313.445
313.466
313.488
313.507
313.525
313.538
313.545
313.548
313.547
313.546
313.545
313.543
313.542
313.542
313.542
313.542
313.543
313.543
313.544
313.546
313.547
313.549
313.552
313.555
313.56
313.567
313.575
313.586
313.6
313.619
313.646
310.212
310.409
310.586
310.747
310.896
311.035
311.165
311.288
311.404
311.514
311.619
311.719
311.815
311.908
311.997
312.084
312.169
312.251
312.331
312.411
312.488
312.565
312.641
312.715
312.786
312.806
312.722
312.57
312.413
312.297
312.209
312.157
312.137
312.149
312.222
312.454
313.608
313.282
313.096
312.994
312.938
312.912
312.9
312.898
312.901
312.902
312.898
312.893
312.897
312.901
312.902
312.906
312.911
312.917
312.924
312.932
312.941
312.951
312.96
312.971
312.981
312.992
313.003
313.015
313.026
313.037
313.049
313.06
313.071
313.083
313.094
313.106
313.118
313.131
313.144
313.158
313.173
313.19
313.208
313.229
313.254
313.284
310.212
310.409
310.585
310.747
310.896
311.035
311.165
311.288
311.403
311.513
311.618
311.718
311.815
311.907
311.997
312.084
312.168
312.251
312.331
312.41
312.488
312.565
312.641
312.715
312.765
312.671
312.315
312.016
311.834
311.757
311.762
311.804
311.875
311.977
312.149
312.521
313.427
313.041
312.833
312.703
312.615
312.552
312.508
312.48
312.465
312.459
312.457
312.465
312.478
312.491
312.502
312.515
312.529
312.544
312.56
312.576
312.594
312.611
312.629
312.647
312.664
312.682
312.7
312.717
312.734
312.75
312.766
312.783
312.799
312.814
312.83
312.846
312.862
312.879
312.896
312.914
312.932
312.952
312.974
312.999
313.028
313.061
310.212
310.408
310.585
310.747
310.896
311.035
311.165
311.287
311.403
311.513
311.617
311.718
311.814
311.906
311.996
312.083
312.167
312.25
312.33
312.409
312.487
312.564
312.64
312.714
312.76
312.653
312.187
311.801
311.546
311.412
311.467
311.551
311.662
311.81
312.045
312.523
313.326
312.918
312.696
312.541
312.433
312.352
312.293
312.255
312.233
312.224
312.227
312.237
312.251
312.267
312.282
312.299
312.317
312.335
312.354
312.374
312.393
312.413
312.432
312.452
312.471
312.49
312.509
312.527
312.546
312.564
312.582
312.601
312.619
312.637
312.655
312.673
312.692
312.71
312.729
312.749
312.769
312.79
312.812
312.837
312.867
312.904
310.211
310.408
310.585
310.746
310.895
311.034
311.164
311.286
311.402
311.512
311.617
311.717
311.813
311.905
311.995
312.082
312.166
312.248
312.329
312.408
312.486
312.563
312.639
312.712
312.758
312.647
312.103
311.65
311.331
311.136
311.226
311.335
311.466
311.631
311.883
312.397
313.324
312.877
312.644
312.515
312.404
312.311
312.238
312.192
312.166
312.155
312.155
312.162
312.174
312.19
312.206
312.224
312.244
312.263
312.283
312.302
312.321
312.34
312.358
312.376
312.394
312.412
312.43
312.448
312.466
312.484
312.502
312.52
312.538
312.556
312.574
312.592
312.61
312.629
312.648
312.667
312.687
312.707
312.729
312.752
312.779
312.813
310.211
310.408
310.585
310.746
310.895
311.034
311.164
311.286
311.402
311.511
311.616
311.716
311.812
311.905
311.994
312.081
312.165
312.247
312.328
312.407
312.485
312.562
312.637
312.711
312.759
312.657
312.108
311.643
311.311
311.097
311.197
311.312
311.439
311.589
311.81
312.255
313.427
312.989
312.733
312.622