/*--------------------------------*- C++ -*----------------------------------*\
| =========                 |                                                 |
| \\      /  F ield         | OpenFOAM: The Open Source CFD Toolbox           |
|  \\    /   O peration     | Version:  v2012                                 |
|   \\  /    A nd           | Website:  www.openfoam.com                      |
|    \\/     M anipulation  |                                                 |
\*---------------------------------------------------------------------------*/
FoamFile
{
    version     2.0;
    format      ascii;
    class       volScalarField;
    location    "50/concrete";
    object      T;
}
// * * * * * * * * * * * * * * * * * * * * * * * * * * * * * * * * * * * * * //

dimensions      [0 0 0 1 0 0 0];


internalField   nonuniform List<scalar> 
1924
(
308.578
308.813
309.166
309.46
309.956
309.963
302.13
302.102
302.353
302.691
309.498
309.448
308.998
308.717
308.364
308.142
308.027
307.966
307.909
307.818
307.681
307.518
307.366
307.256
307.201
307.192
308.71
309.049
309.55
309.865
310.599
310.93
303.665
303.467
303.418
303.484
310.484
310.118
309.34
308.901
308.333
307.996
307.865
307.839
307.823
307.764
307.649
307.501
307.354
307.239
307.171
307.148
308.771
309.194
309.861
310.304
311.599
312.163
304.918
304.58
304.513
304.675
311.845
311.226
309.733
309.065
308.266
307.819
307.672
307.667
307.679
307.651
307.572
307.463
307.346
307.239
307.161
307.122
308.762
309.207
310.003
310.689
312.521
313.079
306.978
306.539
306.479
306.789
313.434
312.867
310.281
309.238
308.211
307.663
307.491
307.48
307.494
307.487
307.455
307.406
307.342
307.263
307.185
307.13
308.838
309.262
310.083
310.474
300.995
300.769
300.493
300.457
300.451
300.474
300.747
300.803
309.489
308.942
308.013
307.523
307.377
307.361
307.361
307.357
307.36
307.367
307.357
307.315
307.247
307.18
309.061
309.452
310.264
310.605
300.602
300.334
300.35
300.354
300.353
300.346
300.306
300.38
309.376
308.857
308.035
307.624
307.487
307.44
307.401
307.376
307.38
307.401
307.411
307.387
307.328
307.255
309.209
309.567
310.346
310.664
300.613
300.346
300.373
300.379
300.378
300.37
300.318
300.393
309.397
308.858
308.113
307.763
307.652
307.608
307.577
307.544
307.527
307.52
307.505
307.466
307.404
307.329
309.148
309.527
310.339
310.706
300.614
300.35
300.378
300.383
300.383
300.374
300.322
300.398
309.408
308.831
308.116
307.83
307.766
307.758
307.762
307.75
307.723
307.683
307.626
307.553
307.475
307.399
308.938
309.341
310.197
310.685
300.612
300.349
300.377
300.383
300.383
300.374
300.321
300.392
309.375
308.727
308.029
307.798
307.791
307.839
307.895
307.92
307.904
307.855
307.777
307.679
307.588
307.517
308.677
309.02
309.848
310.531
300.593
300.34
300.369
300.375
300.375
300.366
300.31
300.363
309.218
308.471
307.826
307.67
307.728
307.833
307.939
307.995
308.004
307.971
307.905
307.815
307.731
307.674
308.416
308.596
309.247
310.121
300.499
300.273
300.304
300.308
300.306
300.295
300.236
300.26
308.853
308.043
307.555
307.533
307.647
307.776
307.892
307.974
308.011
308.01
307.983
307.94
307.902
307.874
308.252
308.264
308.523
309.171
300.103
299.886
299.886
299.854
299.836
299.814
299.745
299.771
308.169
307.66
307.46
307.507
307.591
307.693
307.812
307.92
307.993
308.028
308.055
308.095
308.151
308.177
308.149
308.133
308.053
307.775
300.288
299.622
298.996
298.296
298.132
298.069
298.059
298.422
307.079
307.444
307.505
307.53
307.55
307.609
307.718
307.849
307.956
308.031
308.118
308.268
308.478
308.6
308.05
308.045
307.974
307.616
299.888
299.471
299.297
299.149
299.019
298.905
298.814
299.063
307.102
307.468
307.485
307.475
307.477
307.523
307.627
307.766
307.894
307.998
308.143
308.421
308.845
309.132
307.963
307.933
307.827
307.4
299.227
298.896
298.855
298.783
298.677
298.554
298.445
298.7
307.021
307.413
307.429
307.417
307.411
307.443
307.529
307.652
307.776
307.895
308.088
308.493
309.176
309.713
307.843
307.807
307.693
307.233
298.711
298.381
298.409
298.419
298.379
298.296
298.213
298.496
306.925
307.326
307.346
307.343
307.339
307.359
307.419
307.513
307.618
307.736
307.954
308.444
309.342
310.2
307.692
307.668
307.58
307.166
299.243
298.904
298.929
298.962
298.954
298.905
298.853
299.132
306.909
307.273
307.291
307.289
307.283
307.29
307.328
307.401
307.497
307.62
307.848
308.367
309.386
310.427
307.566
307.57
307.525
307.225
301.133
300.837
300.827
300.839
300.839
300.819
300.797
301.022
307.011
307.282
307.288
307.283
307.275
307.276
307.304
307.364
307.447
307.552
307.739
308.183
309.141
310.157
307.507
307.533
307.525
307.354
303.705
303.498
303.46
303.448
303.448
303.449
303.449
303.588
307.177
307.337
307.336
307.335
307.336
307.344
307.371
307.422
307.493
307.578
307.711
308.013
308.718
309.491
307.507
307.545
307.558
307.493
305.972
305.856
305.803
305.771
305.767
305.78
305.794
305.855
307.341
307.408
307.41
307.42
307.436
307.455
307.479
307.513
307.564
307.639
307.752
307.93
308.257
308.479
307.537
307.576
307.603
307.606
307.369
307.316
307.258
307.211
307.196
307.21
307.232
307.249
307.474
307.491
307.501
307.524
307.552
307.574
307.587
307.597
307.621
307.68
307.788
307.917
307.993
307.596
307.574
307.609
307.644
307.684
307.928
307.908
307.85
307.79
307.759
307.765
307.788
307.795
307.566
307.573
307.591
307.62
307.648
307.662
307.659
307.654
307.674
307.742
307.856
307.975
308.051
307.673
307.612
307.641
307.679
307.732
307.999
307.993
307.94
307.874
307.827
307.817
307.833
307.843
307.62
307.635
307.656
307.681
307.699
307.699
307.682
307.67
307.698
307.784
307.903
307.995
308.009
307.565
307.656
307.675
307.707
307.761
307.913
307.916
307.877
307.815
307.759
307.729
307.73
307.742
307.653
307.678
307.696
307.71
307.712
307.697
307.672
307.663
307.705
307.809
307.937
308.022
308.015
307.575
307.704
307.71
307.73
307.774
307.834
307.848
307.83
307.785
307.729
307.683
307.664
307.667
307.675
307.705
307.719
307.721
307.709
307.684
307.66
307.661
307.717
307.829
307.954
308.026
308.003
307.617
307.755
307.747
307.75
307.777
307.796
307.823
307.831
307.81
307.764
307.708
307.668
307.655
307.693
307.723
307.736
307.733
307.715
307.688
307.671
307.685
307.749
307.854
307.957
308.005
307.969
307.679
307.805
307.785
307.767
307.775
307.784
307.822
307.855
307.861
307.831
307.775
307.719
307.685
307.711
307.737
307.753
307.755
307.74
307.719
307.712
307.737
307.801
307.886
307.956
307.977
307.932
307.744
307.854
307.822
307.784
307.774
307.781
307.827
307.879
307.909
307.899
307.851
307.788
307.735
307.736
307.752
307.771
307.782
307.778
307.769
307.775
307.809
307.867
307.929
307.969
307.965
307.915
307.803
307.9
307.859
307.807
307.782
307.786
307.835
307.896
307.943
307.953
307.92
307.86
307.795
307.772
307.772
307.789
307.809
307.82
307.828
307.85
307.891
307.943
307.985
307.999
307.977
307.922
307.851
307.947
307.9
307.84
307.805
307.807
307.851
307.913
307.968
307.994
307.98
307.932
307.865
307.822
307.803
307.812
307.837
307.865
307.895
307.934
307.981
308.024
308.048
308.041
308.003
307.944
307.889
307.998
307.948
307.886
307.848
307.847
307.882
307.936
307.99
308.027
308.031
308
307.939
307.885
307.849
307.845
307.871
307.915
307.968
308.025
308.075
308.106
308.11
308.082
308.032
307.972
307.925
308.053
308.002
307.943
307.908
307.904
307.929
307.969
308.015
308.056
308.074
308.06
308.012
307.955
307.907
307.892
307.917
307.974
308.047
308.117
308.166
308.182
308.163
308.117
308.058
308.004
307.965
308.109
308.059
308.007
307.977
307.972
307.985
308.01
308.045
308.082
308.108
308.109
308.075
308.023
307.971
307.951
307.975
308.041
308.126
308.202
308.245
308.244
308.205
308.145
308.085
308.041
308.012
308.162
308.116
308.073
308.048
308.041
308.046
308.057
308.079
308.109
308.136
308.145
308.125
308.083
308.038
308.019
308.045
308.113
308.2
308.273
308.304
308.286
308.233
308.169
308.115
308.084
308.065
308.217
308.177
308.141
308.121
308.113
308.111
308.112
308.123
308.143
308.165
308.176
308.166
308.139
308.108
308.099
308.129
308.195
308.273
308.331
308.346
308.314
308.255
308.194
308.153
308.135
308.124
308.281
308.248
308.219
308.203
308.194
308.187
308.182
308.185
308.195
308.209
308.217
308.213
308.201
308.19
308.198
308.233
308.291
308.351
308.386
308.381
308.339
308.281
308.231
308.204
308.199
308.194
308.361
308.333
308.31
308.296
308.284
308.275
308.268
308.265
308.267
308.271
308.275
308.275
308.278
308.288
308.314
308.355
308.401
308.437
308.444
308.418
308.369
308.317
308.282
308.27
308.274
308.276
311.469
311.695
312.032
312.261
312.76
312.859
302.633
302.581
302.805
303.109
311.968
311.791
311.315
311.051
310.676
310.441
310.333
310.303
310.302
310.281
310.21
310.094
309.969
309.873
309.826
309.825
311.552
311.892
312.386
312.625
313.426
313.935
304.533
304.377
304.286
304.232
313.308
312.751
311.875
311.418
310.768
310.377
310.227
310.217
310.252
310.263
310.215
310.114
309.991
309.883
309.816
309.796
311.563
311.983
312.646
313.015
314.484
315.241
305.82
305.538
305.461
305.531
314.868
314.067
312.38
311.702
310.804
310.294
310.123
310.129
310.184
310.218
310.2
310.131
310.031
309.926
309.842
309.801
311.481
311.906
312.7
313.356
315.7
316.43
308.386
307.978
307.921
308.192
317.057
316.398
313.141
312.029
310.863
310.24
310.045
310.044
310.094
310.135
310.15
310.131
310.077
309.994
309.906
309.846
311.414
311.808
312.622
313.053
299.974
299.713
299.435
299.402
299.397
299.418
299.698
299.814
312.27
311.677
310.655
310.123
309.983
309.997
310.037
310.075
310.113
310.141
310.137
310.089
310.011
309.937
311.496
311.897
312.763
313.192
299.555
299.252
299.262
299.265
299.264
299.259
299.228
299.364
312.103
311.51
310.607
310.181
310.073
310.079
310.093
310.116
310.158
310.203
310.222
310.197
310.13
310.05
311.504
311.936
312.83
313.277
299.563
299.259
299.28
299.285
299.285
299.278
299.235
299.372
312.101
311.449
310.615
310.258
310.197
310.218
310.263
310.287
310.314
310.336
310.337
310.303
310.24
310.161
311.359
311.856
312.828
313.354
299.564
299.262
299.284
299.289
299.289
299.281
299.239
299.377
312.102
311.392
310.581
310.307
310.318
310.391
310.469
310.517
310.529
310.517
310.479
310.417
310.344
310.27
311.088
311.624
312.661
313.33
299.562
299.262
299.284
299.289
299.288
299.281
299.238
299.371
312.078
311.284
310.491
310.285
310.373
310.516
310.65
310.727
310.74
310.711
310.65
310.568
310.488
310.427
310.823
311.261
312.253
313.139
299.545
299.254
299.277
299.282
299.282
299.274
299.229
299.346
311.936
311.04
310.322
310.204
310.358
310.563
310.751
310.846
310.872
310.854
310.805
310.734
310.669
310.629
310.661
310.842
311.579
312.676
299.464
299.198
299.221
299.225
299.223
299.215
299.166
299.257
311.584
310.652
310.13
310.162
310.356
310.572
310.751
310.863
310.915
310.929
310.924
310.908
310.896
310.89
310.648
310.596
310.826
311.631
299.135
298.878
298.872
298.84
298.824
298.805
298.749
298.841
310.914
310.333
310.114
310.19
310.331
310.501
310.674
310.815
310.908
310.967
311.029
311.113
311.212
311.264
310.709
310.639
310.489
310.193
300.362
299.562
298.734
297.799
297.645
297.601
297.658
298.132
309.682
310.052
310.143
310.2
310.268
310.381
310.535
310.698
310.833
310.944
311.085
311.307
311.593
311.751
310.671
310.638
310.541
310.213
300.193
299.722
299.469
299.295
299.165
299.076
299.046
299.32
309.724
310.058
310.102
310.13
310.181
310.277
310.416
310.576
310.727
310.87
311.081
311.457
311.997
312.334
310.646
310.6
310.495
310.129
299.615
299.293
299.184
299.067
298.955
298.861
298.801
299.03
309.733
310.07
310.1
310.116
310.153
310.225
310.331
310.46
310.593
310.742
311
311.516
312.342
312.937
310.61
310.557
310.458
310.078
299.137
298.855
298.833
298.796
298.749
298.703
298.662
298.892
309.722
310.059
310.084
310.106
310.144
310.2
310.274
310.362
310.458
310.585
310.85
311.441
312.493
313.401
310.562
310.514
310.434
310.094
299.906
299.621
299.618
299.613
299.6
299.58
299.555
299.777
309.791
310.102
310.123
310.143
310.174
310.214
310.263
310.322
310.39
310.491
310.726
311.304
312.444
313.509
310.538
310.515
310.468
310.217
302.376
302.124
302.109
302.106
302.105
302.098
302.083
302.259
309.979
310.216
310.223
310.232
310.247
310.269
310.302
310.347
310.399
310.465
310.621
311.064
312.076
313.123
310.557
310.56
310.544
310.398
305.719
305.544
305.519
305.514
305.517
305.518
305.509
305.612
310.223
310.365
310.362
310.36
310.363
310.373
310.394
310.431
310.479
310.53
310.615
310.861
311.54
312.349
310.606
310.624
310.627
310.57
308.65
308.554
308.525
308.513
308.517
308.524
308.524
308.563
310.443
310.503
310.494
310.489
310.488
310.49
310.499
310.521
310.561
310.615
310.684
310.786
311.03
311.261
310.659
310.681
310.696
310.696
310.427
310.387
310.356
310.334
310.329
310.338
310.347
310.352
310.6
310.614
310.606
310.604
310.604
310.602
310.599
310.6
310.617
310.66
310.732
310.804
310.809
310.421
310.704
310.725
310.747
310.778
311.107
311.094
311.063
311.03
311.013
311.016
311.028
311.024
310.698
310.7
310.695
310.694
310.694
310.686
310.673
310.663
310.673
310.713
310.781
310.854
310.903
310.597
310.746
310.761
310.787
310.831
311.163
311.161
311.133
311.094
311.063
311.053
311.06
311.059
310.754
310.762
310.76
310.756
310.751
310.736
310.715
310.701
310.713
310.761
310.828
310.878
310.876
310.51
310.792
310.799
310.823
310.868
311.034
311.04
311.022
310.985
310.945
310.919
310.914
310.915
310.793
310.813
310.81
310.8
310.786
310.764
310.739
310.725
310.745
310.802
310.875
310.92
310.908
310.553
310.844
310.841
310.856
310.896
310.936
310.95
310.949
310.923
310.881
310.842
310.82
310.815
310.826
310.854
310.852
310.837
310.815
310.787
310.761
310.753
310.78
310.844
310.916
310.954
310.931
310.624
310.899
310.887
310.888
310.915
310.903
310.927
310.946
310.938
310.903
310.855
310.817
310.798
310.855
310.887
310.889
310.873
310.848
310.817
310.794
310.793
310.828
310.89
310.951
310.976
310.945
310.716
310.955
310.933
310.917
310.929
310.907
310.938
310.977
310.99
310.968
310.92
310.869
310.832
310.882
310.914
310.92
310.911
310.888
310.86
310.842
310.85
310.887
310.94
310.984
310.992
310.954
310.804
311.009
310.978
310.946
310.942
310.919
310.955
311.008
311.041
311.037
310.996
310.938
310.885
310.912
310.937
310.947
310.946
310.932
310.912
310.903
310.919
310.955
310.996
311.021
311.013
310.969
310.876
311.06
311.022
310.977
310.96
310.935
310.969
311.03
311.078
311.091
311.064
311.009
310.945
310.949
310.961
310.969
310.976
310.975
310.969
310.974
310.997
311.03
311.058
311.065
311.042
310.992
310.929
311.111
311.067
311.015
310.988
310.96
310.988
311.047
311.102
311.131
311.121
311.077
311.012
310.997
310.991
310.992
311.004
311.018
311.032
311.053
311.082
311.109
311.122
311.11
311.074
311.019
310.969
311.162
311.115
311.061
311.03
310.998
311.017
311.067
311.121
311.16
311.168
311.14
311.08
311.054
311.031
311.02
311.033
311.062
311.099
311.137
311.169
311.186
311.181
311.151
311.102
311.047
311.004
311.211
311.162
311.111
311.08
311.048
311.056
311.093
311.139
311.181
311.202
311.191
311.143
311.113
311.076
311.054
311.067
311.109
311.165
311.217
311.25
311.254
311.228
311.181
311.125
311.075
311.04
311.254
311.206
311.16
311.133
311.103
311.101
311.122
311.157
311.195
311.224
311.227
311.193
311.163
311.122
311.094
311.106
311.156
311.225
311.286
311.314
311.303
311.26
311.2
311.144
311.104
311.079
311.291
311.246
311.206
311.183
311.156
311.147
311.155
311.177
311.208
311.236
311.247
311.227
311.203
311.165
311.138
311.152
311.206
311.279
311.337
311.357
311.332
311.276
311.213
311.162
311.134
311.119
311.329
311.288
311.254
311.236
311.212
311.199
311.198
311.209
311.229
311.252
311.265
311.254
311.238
311.211
311.195
311.213
311.266
311.331
311.378
311.384
311.347
311.286
311.226
311.188
311.173
311.166
311.383
311.348
311.32
311.305
311.284
311.27
311.263
311.265
311.276
311.289
311.298
311.293
311.288
311.278
311.277
311.302
311.349
311.398
311.423
311.411
311.365
311.306
311.257
311.233
311.229
311.228
311.466
311.437
311.413
311.399
311.381
311.367
311.358
311.355
311.356
311.36
311.362
311.36
311.366
311.375
311.394
311.426
311.463
311.488
311.487
311.455
311.402
311.349
311.315
311.304
311.309
311.314
)
;

boundaryField
{
    concrete_to_air
    {
        type            compressible::turbulentTemperatureRadCoupledMixed;
        refValue        nonuniform List<scalar> 
898
(
309.34
309.287
309.245
309.218
309.202
309.19
309.035
308.912
308.83
308.773
308.872
308.959
309.034
309.105
309.173
309.24
309.309
309.377
309.441
309.5
309.551
309.592
309.625
309.649
309.668
309.682
309.39
309.348
309.327
309.329
309.342
309.363
309.231
309.103
308.984
308.879
308.931
308.977
309.015
309.057
309.101
309.154
309.215
309.283
309.353
309.42
309.48
309.53
309.571
309.602
309.626
309.645
309.462
309.429
309.427
309.44
309.487
309.55
309.417
309.299
309.189
309.09
309.164
309.207
309.213
309.205
309.192
309.189
309.207
309.243
309.294
309.351
309.408
309.459
309.503
309.539
309.568
309.591
309.54
309.506
309.507
309.499
309.604
309.785
309.6
309.427
309.294
309.205
309.469
309.613
309.566
309.479
309.383
309.309
309.268
309.26
309.279
309.313
309.355
309.398
309.438
309.474
309.503
309.527
309.599
309.554
309.552
309.49
309.546
309.543
309.418
309.331
309.286
309.274
309.286
309.312
309.345
309.381
309.415
309.446
309.471
309.491
309.611
309.557
309.56
309.484
309.557
309.524
309.458
309.404
309.363
309.37
309.386
309.408
309.431
309.455
309.476
309.492
309.504
309.51
309.534
309.5
309.536
309.456
309.602
309.587
309.556
309.548
309.552
309.556
309.568
309.575
309.578
309.578
309.576
309.57
309.56
309.547
309.398
309.406
309.494
309.444
309.634
309.621
309.599
309.606
309.622
309.641
309.655
309.657
309.648
309.634
309.617
309.595
309.569
309.54
309.24
309.28
309.417
309.419
309.604
309.585
309.559
309.561
309.57
309.583
309.604
309.617
309.616
309.609
309.597
309.581
309.561
309.537
309.154
309.209
309.358
309.404
309.497
309.429
309.363
309.315
309.279
309.31
309.363
309.401
309.426
309.444
309.456
309.463
309.466
309.466
309.128
309.171
309.286
309.379
309.371
309.209
309.024
308.832
308.849
308.91
308.966
309.023
309.077
309.126
309.17
309.208
309.241
309.269
309.087
309.13
309.22
309.322
309.314
308.998
308.7
308.607
308.596
308.625
308.672
308.728
308.788
308.846
308.904
308.96
309.012
309.061
308.994
309.043
309.12
309.224
308.975
308.628
308.152
307.539
307.512
307.486
307.466
307.487
308.034
308.194
308.294
308.364
308.42
308.47
308.52
308.572
308.626
308.681
308.738
308.797
308.857
308.914
308.912
308.94
308.997
309.083
308.91
308.725
308.553
308.431
308.322
308.223
308.133
308.052
308.168
308.241
308.286
308.315
308.341
308.368
308.402
308.442
308.487
308.537
308.591
308.649
308.713
308.777
308.901
308.883
308.892
308.934
308.783
308.633
308.49
308.359
308.238
308.124
308.013
307.909
307.978
308.03
308.068
308.1
308.131
308.164
308.202
308.245
308.292
308.342
308.397
308.458
308.528
308.604
308.97
308.912
308.869
308.848
308.677
308.519
308.374
308.237
308.108
307.985
307.866
307.754
307.803
307.847
307.885
307.921
307.958
307.997
308.038
308.082
308.128
308.177
308.23
308.291
308.367
308.468
309.082
309.004
308.93
308.865
308.673
308.499
308.341
308.196
308.061
307.934
307.816
307.707
307.745
307.783
307.82
307.856
307.892
307.928
307.966
308.006
308.046
308.089
308.136
308.194
308.277
308.436
309.191
309.11
309.029
308.948
308.768
308.603
308.452
308.315
308.192
308.079
307.974
307.88
307.899
307.919
307.939
307.96
307.981
308.003
308.027
308.051
308.078
308.106
308.139
308.183
308.253
308.414
309.27
309.194
309.117
309.039
308.899
308.766
308.644
308.534
308.436
308.347
308.264
308.19
308.183
308.179
308.176
308.174
308.173
308.174
308.178
308.183
308.191
308.202
308.218
308.244
308.291
308.429
309.316
309.247
309.177
309.106
309.009
308.914
308.826
308.746
308.674
308.608
308.546
308.489
308.46
308.434
308.409
308.386
308.366
308.348
308.333
308.322
308.314
308.311
308.312
308.322
308.348
308.449
309.342
309.278
309.213
309.149
309.08
309.013
308.949
308.888
308.834
308.783
308.734
308.687
308.646
308.607
308.571
308.537
308.506
308.477
308.453
308.431
308.414
308.401
308.393
308.391
308.394
308.409
309.36
309.299
309.238
309.178
309.122
309.068
309.014
308.964
308.916
308.871
308.827
308.785
308.74
308.697
308.656
308.618
308.583
308.551
308.522
308.497
308.475
308.458
308.445
308.437
308.434
308.431
309.376
309.318
309.259
309.202
309.149
309.098
309.048
308.999
308.953
308.909
308.865
308.823
308.778
308.736
308.696
308.659
308.624
308.592
308.562
308.536
308.514
308.496
308.481
308.47
308.462
308.452
309.393
309.336
309.279
309.224
309.171
309.12
309.069
309.021
308.974
308.929
308.884
308.841
308.798
308.758
308.719
308.683
308.649
308.617
308.588
308.562
308.539
308.52
308.505
308.493
308.483
308.472
309.409
309.354
309.299
309.244
309.191
309.139
309.089
309.04
308.993
308.947
308.902
308.858
308.816
308.777
308.74
308.704
308.671
308.64
308.611
308.585
308.562
308.542
308.526
308.513
308.502
308.49
309.426
309.371
309.317
309.263
309.21
309.158
309.108
309.06
309.013
308.967
308.922
308.878
308.837
308.798
308.761
308.726
308.693
308.662
308.633
308.606
308.583
308.563
308.546
308.532
308.519
308.507
309.441
309.388
309.334
309.281
309.228
309.176
309.126
309.079
309.032
308.987
308.942
308.898
308.857
308.818
308.782
308.747
308.714
308.683
308.654
308.628
308.604
308.584
308.566
308.551
308.537
308.524
309.456
309.403
309.35
309.297
309.244
309.192
309.143
309.095
309.05
309.005
308.961
308.917
308.876
308.837
308.801
308.766
308.733
308.702
308.673
308.647
308.623
308.603
308.585
308.569
308.554
308.541
309.47
309.417
309.364
309.311
309.258
309.207
309.158
309.111
309.065
309.021
308.978
308.935
308.894
308.855
308.818
308.783
308.75
308.719
308.691
308.665
308.642
308.621
308.603
308.586
308.571
308.557
309.483
309.431
309.378
309.326
309.273
309.221
309.172
309.125
309.08
309.036
308.994
308.951
308.91
308.871
308.835
308.8
308.767
308.737
308.709
308.683
308.66
308.64
308.621
308.604
308.589
308.574
309.496
309.445
309.392
309.34
309.287
309.236
309.187
309.14
309.095
309.052
309.009
308.968
308.928
308.889
308.852
308.817
308.784
308.754
308.727
308.702
308.68
308.66
308.641
308.623
308.607
308.591
309.51
309.459
309.407
309.355
309.303
309.252
309.203
309.156
309.111
309.068
309.027
308.986
308.946
308.908
308.871
308.836
308.804
308.774
308.748
308.723
308.701
308.681
308.661
308.643
308.626
308.611
309.525
309.474
309.423
309.371
309.32
309.269
309.22
309.173
309.129
309.086
309.044
309.004
308.965
308.927
308.891
308.856
308.824
308.796
308.77
308.746
308.724
308.703
308.684
308.665
308.648
308.633
309.54
309.489
309.438
309.387
309.337
309.287
309.238
309.191
309.147
309.104
309.063
309.023
308.985
308.948
308.912
308.878
308.846
308.818
308.793
308.769
308.748
308.727
308.707
308.688
308.671
308.656
309.555
309.505
309.454
309.404
309.354
309.305
309.257
309.21
309.166
309.123
309.083
309.043
309.005
308.969
308.933
308.9
308.87
308.842
308.817
308.794
308.772
308.751
308.731
308.713
308.696
308.681
309.571
309.521
309.471
309.422
309.373
309.324
309.277
309.231
309.187
309.145
309.104
309.065
309.028
308.992
308.957
308.925
308.895
308.868
308.843
308.82
308.798
308.777
308.757
308.739
308.722
308.707
309.59
309.54
309.491
309.442
309.394
309.346
309.299
309.254
309.21
309.168
309.128
309.089
309.052
309.017
308.983
308.952
308.923
308.896
308.871
308.847
308.825
308.803
308.783
308.764
308.748
308.734
)
;
        refGradient     nonuniform List<scalar> 
898
(
44.4446
45.373
46.8276
47.6713
50.2948
53.3647
-17.9851
-18.3736
-20.2269
-22.7416
53.6156
50.6751
47.7992
46.3926
43.452
41.4219
40.3897
40.2375
40.753
41.5403
42.1049
42.1616
41.7855
41.2846
40.9467
40.8863
44.2706
46.013
48.7631
50.3985
55.3346
60.7655
-8.18999
-6.83418
-7.41025
-10.1035
58.7271
53.6354
49.1455
47.3918
43.4375
40.8106
39.6841
39.7105
40.5009
41.5929
42.4358
42.6749
42.3354
41.7254
41.1971
40.9685
44.3448
46.8516
51.2437
54.0244
63.1206
68.896
-4.86387
-3.99484
-3.96837
-5.34769
67.1768
60.5221
50.9637
48.3914
43.4018
40.4465
39.456
39.697
40.6365
41.8482
42.8321
43.2187
42.9732
42.3495
41.7044
41.3347
44.5565
47.4763
53.1178
57.5871
78.2864
81.1302
14.8768
15.0345
15.35
15.3605
77.9188
73.3602
50.6131
47.7077
42.825
40.134
39.538
40.051
41.0556
42.2224
43.1988
43.6781
43.5796
43.0613
42.4167
41.9714
44.0421
46.6047
51.7503
57.4141
49.2308
45.0155
41.3484
39.5327
39.6926
40.685
41.8406
42.9433
43.8285
44.3151
44.323
43.9272
43.3314
42.8334
43.8929
46.3878
51.2407
56.6691
49.6969
45.4629
41.6691
40.111
40.5238
41.5916
42.6881
43.6545
44.4219
44.8711
44.9344
44.647
44.1363
43.631
43.072
45.9437
50.9786
56.6801
50.03
45.3723
41.5004
40.2849
41.0681
42.2823
43.2102
43.9888
44.6019
44.9913
45.1114
44.9731
44.6427
44.2548
41.9684
45.3377
50.596
56.5383
50.1007
45.0871
41.2302
40.4157
41.6539
43.0839
43.9687
44.4917
44.8552
45.0912
45.1937
45.1567
45.0149
44.8333
40.8246
44.381
49.9644
56.5502
49.8084
44.3511
40.7517
40.5063
42.2116
43.917
44.8406
45.1967
45.3168
45.3637
45.3882
45.3687
45.3404
45.3602
40.0914
42.8329
48.3742
56.3513
49.16
43.2134
40.392
40.8779
42.8098
44.5761
45.537
45.924
45.9717
45.9579
45.9943
46.0388
46.118
46.2894
40.1789
41.0951
45.2067
54.6169
47.6638
41.7836
40.4649
41.4906
43.1475
44.7029
45.7962
46.3389
46.52
46.6467
46.8924
47.2157
47.573
47.8844
40.8492
40.5537
41.9227
49.9465
44.9094
41.0223
41.5429
42.5861
43.6719
44.7589
45.676
46.2678
46.6159
46.9744
47.5802
48.4472
49.4074
49.9348
42.0592
41.9362
41.4984
41.0112
-41.3133
-40.9922
-39.2397
-36.6296
-36.4539
-36.2852
-35.7186
-34.9269
42.8149
43.1499
43.7392
43.9874
44.3197
44.8167
45.353
45.8225
46.2539
46.8273
47.8472
49.4539
51.3658
52.249
42.0278
42.0964
42.342
43.0074
-36.0495
-36.1549
-36.5482
-36.6205
-36.3712
-35.7543
-34.5878
-33.789
44.4616
43.9413
44.0308
44.1048
44.3051
44.5926
44.8809
45.1812
45.5986
46.3227
47.7307
50.1317
53.2544
54.6803
42.2408
42.2763
42.5566
43.7444
-33.223
-33.1443
-33.668
-33.8171
-33.4826
-32.7068
-31.6753
-31.5901
45.2937
44.524
44.5105
44.5594
44.705
44.8488
44.9026
44.9551
45.2053
45.889
47.4519
50.4013
54.6815
56.814
42.7868
42.8226
43.1577
44.5361
-30.2066
-29.8806
-30.4799
-30.9306
-30.8011
-30.1069
-29.2941
-29.6223
46.2769
45.4073
45.2981
45.3679
45.5563
45.6765
45.5996
45.4109
45.3469
45.7043
47.0147
50.0062
54.9915
57.7349
43.6068
43.5688
43.8298
45.0535
-21.8599
-21.3291
-21.714
-22.117
-22.0503
-21.5092
-20.9509
-21.4249
46.8692
46.1243
46.0471
46.173
46.4178
46.5791
46.5005
46.1996
45.8489
45.7292
46.4017
48.7523
53.4429
56.763
44.4912
44.3939
44.542
45.4171
-5.09746
-4.48767
-4.4856
-4.56671
-4.46181
-4.1691
-3.92807
-4.39088
47.15
46.666
46.6349
46.752
46.9586
47.1047
47.0654
46.8174
46.4267
46.0392
46.04
47.2689
50.7981
54.7639
45.2499
45.1463
45.2096
45.7247
16.2801
16.8038
17.085
17.2832
17.4201
17.4957
17.5046
17.1716
47.2258
47.0126
46.9968
47.0399
47.119
47.1628
47.1184
46.9775
46.7515
46.4246
46.042
46.0839
47.7725
51.5231
45.8037
45.7246
45.7409
45.9812
34.7173
35.0892
35.4812
35.808
35.9503
35.9078
35.8026
35.6164
47.1961
47.1906
47.1726
47.1406
47.1046
47.0551
46.9901
46.9247
46.8659
46.7475
46.4063
45.825
45.5425
47.4123
46.1696
46.1121
46.0974
46.1645
45.4804
45.7222
46.1317
46.5025
46.6594
46.5887
46.4432
46.3368
47.1524
47.2433
47.2038
47.1237
47.0421
46.9814
46.9492
46.9399
46.9352
46.8921
46.7288
46.3686
45.6374
45.6906
46.4134
46.3676
46.3289
46.309
49.0537
49.2223
49.6251
50.0174
50.2108
50.1674
50.0188
49.9173
47.183
47.2768
47.2094
47.1145
47.0489
47.0432
47.0887
47.1285
47.0859
46.9162
46.6596
46.4739
46.4987
47.6971
46.6072
46.5732
46.5277
46.4874
48.771
48.9123
49.2968
49.6907
49.9214
49.9351
49.8166
49.694
47.3544
47.4086
47.3199
47.2339
47.2066
47.2624
47.3723
47.4392
47.3523
47.0852
46.7495
46.534
46.5311
47.6799
46.8016
46.7887
46.762
46.7489
47.6595
47.7877
48.1269
48.4804
48.7206
48.7948
48.7342
48.6096
47.6309
47.6505
47.5571
47.4924
47.5029
47.5976
47.7289
47.7818
47.6383
47.2972
46.9202
46.7319
46.8402
48.0628
47.012
47.0319
47.0492
47.0925
47.1036
47.2099
47.4754
47.7478
47.9632
48.0825
48.0912
47.997
47.9515
47.964
47.8761
47.8292
47.8599
47.958
48.0685
48.0823
47.8992
47.5383
47.1713
47.0142
47.1732
48.2853
47.2275
47.2895
47.3675
47.4775
47.1957
47.2666
47.445
47.6222
47.7898
47.9299
47.9973
47.9513
48.257
48.288
48.2071
48.1648
48.1898
48.2597
48.3213
48.289
48.0988
47.7886
47.5089
47.4283
47.6268
48.5013
47.4377
47.5462
47.6877
47.8565
47.5822
47.6064
47.7064
47.8015
47.9186
48.0566
48.1586
48.1576
48.5135
48.5765
48.502
48.4489
48.4468
48.4702
48.4736
48.4034
48.2355
48.0178
47.8601
47.8679
48.0808
48.6762
47.6358
47.7893
47.9837
48.1904
47.9711
47.9428
47.985
48.0258
48.1041
48.2259
48.3375
48.3659
48.7034
48.8051
48.7392
48.6714
48.6364
48.6096
48.5593
48.4627
48.3262
48.1972
48.1454
48.2223
48.4336
48.8117
47.8115
48.0011
48.2272
48.4462
48.2367
48.1562
48.1609
48.1759
48.2318
48.3343
48.4401
48.4805
48.8177
48.9571
48.9044
48.8298
48.7687
48.7002
48.6082
48.4934
48.3801
48.3111
48.3275
48.4474
48.6566
48.9191
47.9468
48.1565
48.3903
48.5974
48.36
48.2323
48.2144
48.2222
48.2699
48.3581
48.4537
48.4955
48.8487
49.0154
48.9777
48.9044
48.8298
48.7372
48.6214
48.4985
48.4019
48.37
48.4272
48.5739
48.7856
49.0074
48.028
48.2389
48.4598
48.6395
48.3696
48.2056
48.1733
48.1811
48.2284
48.3095
48.398
48.4395
48.801
48.9781
48.9492
48.8798
48.8047
48.7092
48.5931
48.4788
48.4037
48.4019
48.4887
48.6548
48.8689
49.0797
48.065
48.262
48.4568
48.6041
48.3217
48.1383
48.0948
48.1016
48.1484
48.2263
48.3125
48.3554
48.7038
48.8722
48.8422
48.7749
48.7082
48.6293
48.5364
48.4502
48.4063
48.4351
48.5467
48.726
48.9374
49.1407
48.103
48.2776
48.443
48.5598
48.2943
48.1101
48.0575
48.0575
48.0979
48.1704
48.2551
48.3003
48.6126
48.7567
48.72
48.654
48.6005
48.5499
48.4954
48.4504
48.4434
48.5007
48.6302
48.8152
49.0192
49.2133
48.2085
48.3592
48.4983
48.5898
48.3666
48.1982
48.1388
48.1262
48.1521
48.2123
48.2892
48.3345
48.593
48.7063
48.6666
48.6061
48.5685
48.5482
48.535
48.5329
48.561
48.6407
48.78
48.9639
49.158
49.3434
48.4395
48.5701
48.6874
48.759
48.5915
48.4507
48.3875
48.3598
48.3646
48.4031
48.462
48.501
48.6959