/*--------------------------------*- C++ -*----------------------------------*\
| =========                 |                                                 |
| \\      /  F ield         | OpenFOAM: The Open Source CFD Toolbox           |
|  \\    /   O peration     | Version:  v2012                                 |
|   \\  /    A nd           | Website:  www.openfoam.com                      |
|    \\/     M anipulation  |                                                 |
\*---------------------------------------------------------------------------*/
FoamFile
{
    version     2.0;
    format      ascii;
    class       volScalarField;
    location    "500/soil1";
    object      p;
}
// * * * * * * * * * * * * * * * * * * * * * * * * * * * * * * * * * * * * * //

dimensions      [1 -1 -2 0 0 0 0];


internalField   uniform 100000;

boundaryField
{
    inlet
    {
        type            calculated;
        value           uniform 0;
    }
    outlet
    {
        type            calculated;
        value           uniform 0;
    }
    side
    {
        type            calculated;
        value           uniform 0;
    }
    ground
    {
        type            calculated;
        value           uniform 0;
    }
    soil1_to_asphalt
    {
        type            calculated;
        value           uniform 0;
    }
    soil1_to_soil2
    {
        type            calculated;
        value           uniform 0;
    }
    soil1_to_concrete
    {
        type            calculated;
        value           uniform 0;
    }
}


// ************************************************************************* //
