/*--------------------------------*- C++ -*----------------------------------*\
| =========                 |                                                 |
| \\      /  F ield         | OpenFOAM: The Open Source CFD Toolbox           |
|  \\    /   O peration     | Version:  v2012                                 |
|   \\  /    A nd           | Website:  www.openfoam.com                      |
|    \\/     M anipulation  |                                                 |
\*---------------------------------------------------------------------------*/
FoamFile
{
    version     2.0;
    format      ascii;
    class       volScalarField;
    location    "500/soil1";
    object      T;
}
// * * * * * * * * * * * * * * * * * * * * * * * * * * * * * * * * * * * * * //

dimensions      [0 0 0 1 0 0 0];


internalField   nonuniform List<scalar> 
57600
(
303.138
303.185
303.245
303.301
303.351
303.395
303.434
303.468
303.498
303.525
303.549
303.571
303.591
303.61
303.627
303.642
303.657
303.671
303.683
303.695
303.706
303.717
303.727
303.736
303.746
303.754
303.762
303.77
303.778
303.785
303.792
303.799
303.805
303.812
303.818
303.824
303.83
303.835
303.841
303.846
303.852
303.857
303.862
303.867
303.872
303.876
303.881
303.886
303.89
303.895
303.899
303.904
303.908
303.912
303.917
303.921
303.925
303.929
303.933
303.937
303.941
303.945
303.949
303.952
303.956
303.96
303.963
303.967
303.97
303.974
303.977
303.981
303.984
303.988
303.991
303.994
303.998
304.001
304.004
304.007
304.011
304.014
304.018
304.022
304.026
304.03
304.037
304.046
304.064
304.087
303.118
303.165
303.223
303.279
303.328
303.371
303.409
303.442
303.472
303.498
303.522
303.544
303.563
303.581
303.598
303.613
303.627
303.64
303.653
303.664
303.675
303.685
303.695
303.704
303.713
303.721
303.729
303.736
303.744
303.751
303.757
303.764
303.77
303.776
303.782
303.787
303.793
303.798
303.804
303.809
303.814
303.819
303.823
303.828
303.833
303.837
303.842
303.846
303.85
303.855
303.859
303.863
303.867
303.871
303.875
303.879
303.883
303.887
303.89
303.894
303.898
303.901
303.905
303.908
303.912
303.915
303.919
303.922
303.925
303.929
303.932
303.935
303.938
303.941
303.944
303.948
303.951
303.954
303.957
303.96
303.963
303.966
303.97
303.973
303.977
303.982
303.988
303.998
304.016
304.04
303.091
303.137
303.194
303.249
303.298
303.34
303.377
303.41
303.439
303.465
303.488
303.509
303.528
303.546
303.562
303.577
303.591
303.603
303.615
303.627
303.637
303.647
303.656
303.665
303.674
303.682
303.689
303.697
303.704
303.71
303.717
303.723
303.729
303.735
303.74
303.746
303.751
303.756
303.761
303.766
303.771
303.775
303.78
303.784
303.789
303.793
303.797
303.801
303.805
303.809
303.813
303.817
303.821
303.825
303.828
303.832
303.836
303.839
303.843
303.846
303.85
303.853
303.857
303.86
303.863
303.866
303.87
303.873
303.876
303.879
303.882
303.885
303.888
303.891
303.894
303.897
303.9
303.902
303.905
303.908
303.911
303.914
303.918
303.921
303.925
303.929
303.935
303.945
303.963
303.988
303.062
303.107
303.164
303.218
303.266
303.308
303.344
303.376
303.405
303.43
303.453
303.474
303.493
303.51
303.526
303.541
303.554
303.567
303.578
303.589
303.6
303.609
303.618
303.627
303.635
303.643
303.651
303.658
303.665
303.671
303.677
303.683
303.689
303.695
303.7
303.705
303.71
303.715
303.72
303.725
303.73
303.734
303.738
303.743
303.747
303.751
303.755
303.759
303.763
303.767
303.771
303.774
303.778
303.782
303.785
303.789
303.792
303.796
303.799
303.802
303.806
303.809
303.812
303.815
303.818
303.821
303.824
303.827
303.83
303.833
303.836
303.839
303.842
303.845
303.847
303.85
303.853
303.856
303.858
303.861
303.864
303.867
303.87
303.873
303.877
303.881
303.887
303.897
303.916
303.94
303.033
303.077
303.133
303.187
303.234
303.275
303.311
303.343
303.371
303.396
303.419
303.439
303.458
303.475
303.49
303.505
303.518
303.53
303.542
303.553
303.563
303.572
303.581
303.59
303.598
303.606
303.613
303.62
303.627
303.633
303.639
303.645
303.651
303.656
303.662
303.667
303.672
303.677
303.681
303.686
303.69
303.694
303.699
303.703
303.707
303.711
303.715
303.719
303.722
303.726
303.73
303.733
303.737
303.74
303.744
303.747
303.75
303.754
303.757
303.76
303.763
303.766
303.769
303.772
303.775
303.778
303.781
303.784
303.786
303.789
303.792
303.794
303.797
303.8
303.802
303.805
303.807
303.81
303.812
303.815
303.818
303.82
303.823
303.826
303.83
303.834
303.84
303.849
303.867
303.89
303.004
303.047
303.103
303.156
303.202
303.243
303.278
303.31
303.337
303.362
303.384
303.404
303.422
303.439
303.455
303.469
303.482
303.494
303.506
303.517
303.527
303.536
303.545
303.553
303.561
303.569
303.576
303.583
303.59
303.596
303.602
303.608
303.613
303.619
303.624
303.629
303.634
303.638
303.643
303.647
303.651
303.656
303.66
303.664
303.667
303.671
303.675
303.678
303.682
303.685
303.689
303.692
303.695
303.699
303.702
303.705
303.708
303.711
303.714
303.717
303.72
303.722
303.725
303.728
303.73
303.733
303.736
303.738
303.74
303.743
303.745
303.747
303.75
303.752
303.754
303.756
303.758
303.76
303.763
303.765
303.767
303.769
303.772
303.775
303.778
303.781
303.786
303.795
303.811
303.832
302.975
303.018
303.073
303.125
303.171
303.211
303.246
303.277
303.304
303.328
303.349
303.368
303.386
303.402
303.418
303.432
303.445
303.457
303.469
303.48
303.49
303.499
303.508
303.517
303.525
303.532
303.539
303.546
303.553
303.559
303.565
303.57
303.576
303.581
303.586
303.591
303.595
303.6
303.604
303.608
303.612
303.616
303.62
303.623
303.627
303.63
303.634
303.637
303.64
303.643
303.646
303.649
303.652
303.655
303.657
303.66
303.663
303.665
303.668
303.67
303.673
303.675
303.677
303.679
303.681
303.683
303.685
303.687
303.689
303.691
303.692
303.694
303.696
303.697
303.699
303.7
303.702
303.703
303.705
303.706
303.708
303.71
303.712
303.714
303.716
303.719
303.724
303.731
303.744
303.763
302.947
302.989
303.043
303.095
303.14
303.18
303.214
303.244
303.27
303.292
303.31
303.327
303.343
303.359
303.374
303.389
303.403
303.415
303.427
303.439
303.449
303.459
303.469
303.477
303.485
303.493
303.5
303.507
303.513
303.519
303.525
303.531
303.536
303.541
303.546
303.55
303.554
303.558
303.562
303.566
303.569
303.573
303.576
303.58
303.582
303.585
303.588
303.591
303.594
303.596
303.599
303.601
303.604
303.606
303.608
303.61
303.612
303.614
303.616
303.618
303.619
303.621
303.622
303.624
303.625
303.626
303.627
303.628
303.629
303.63
303.631
303.632
303.633
303.634
303.634
303.635
303.635
303.636
303.637
303.638
303.641
303.643
303.645
303.648
303.65
303.653
303.657
303.663
303.674
303.689
302.919
302.961
303.014
303.065
303.11
303.149
303.183
303.212
303.235
303.25
303.256
303.264
303.276
303.292
303.308
303.325
303.34
303.355
303.369
303.383
303.395
303.406
303.417
303.426
303.435
303.443
303.451
303.458
303.464
303.47
303.476
303.481
303.486
303.491
303.495
303.499
303.503
303.507
303.51
303.513
303.516
303.52
303.523
303.525
303.528
303.531
303.533
303.535
303.538
303.54
303.542
303.544
303.545
303.547
303.549
303.55
303.552
303.553
303.554
303.555
303.556
303.557
303.558
303.559
303.559
303.56
303.56
303.561
303.561
303.561
303.561
303.561
303.561
303.561
303.561
303.56
303.56
303.56
303.561
303.564
303.57
303.577
303.583
303.588
303.592
303.596
303.6
303.607
303.617
303.629
302.891
302.933
302.985
303.035
303.08
303.118
303.151
303.178
303.195
303.191
303.157
303.141
303.145
303.161
303.181
303.204
303.226
303.247
303.266
303.284
303.301
303.316
303.33
303.342
303.352
303.362
303.37
303.377
303.384
303.39
303.395
303.4
303.404
303.409
303.413
303.417
303.42
303.423
303.426
303.429
303.432
303.436
303.439
303.441
303.444
303.446
303.449
303.451
303.453
303.456
303.458
303.46
303.461
303.463
303.465
303.466
303.467
303.468
303.469
303.47
303.471
303.471
303.471
303.471
303.471
303.471
303.471
303.47
303.47
303.469
303.468
303.467
303.466
303.464
303.463
303.461
303.46
303.459
303.46
303.468
303.489
303.511
303.528
303.541
303.551
303.558
303.566
303.574
303.586
303.599
302.864
302.905
302.957
303.006
303.05
303.088
303.12
303.144
303.15
303.11
302.989
302.927
302.92
302.941
302.972
303.006
303.04
303.071
303.1
303.126
303.15
303.17
303.187
303.202
303.215
303.225
303.234
303.241
303.247
303.251
303.256
303.259
303.263
303.266
303.269
303.273
303.276
303.278
303.28
303.283
303.286
303.29
303.294
303.296
303.299
303.302
303.305
303.308
303.311
303.314
303.317
303.32
303.322
303.325
303.327
303.329
303.331
303.332
303.334
303.335
303.336
303.337
303.337
303.337
303.337
303.337
303.336
303.335
303.334
303.332
303.331
303.329
303.326
303.324
303.321
303.318
303.315
303.313
303.315
303.333
303.384
303.437
303.478
303.508
303.528
303.543
303.556
303.569
303.585
303.602
302.837
302.878
302.929
302.978
303.021
303.058
303.089
303.112
303.112
303.055
302.898
302.816
302.804
302.826
302.862
302.901
302.94
302.977
303.01
303.04
303.066
303.088
303.108
303.124
303.137
303.148
303.157
303.163
303.168
303.173
303.176
303.179
303.181
303.184
303.187
303.19
303.193
303.195
303.197
303.2
303.204
303.209
303.213
303.217
303.22
303.224
303.229
303.233
303.238
303.242
303.247
303.252
303.256
303.261
303.265
303.269
303.273
303.277
303.281
303.284
303.288
303.291
303.294
303.297
303.299
303.301
303.303
303.304
303.305
303.305
303.306
303.305
303.305
303.303
303.302
303.3
303.298
303.297
303.302
303.323
303.38
303.438
303.483
303.516
303.539
303.555
303.57
303.586
303.606
303.628
302.811
302.851
302.901
302.949
302.992
303.029
303.059
303.081
303.079
303.017
302.852
302.765
302.75
302.772
302.809
302.85
302.89
302.928
302.962
302.993
303.02
303.043
303.062
303.079
303.092
303.103
303.111
303.117
303.122
303.126
303.128
303.13
303.132
303.134
303.136
303.139
303.142
303.143
303.145
303.148
303.151
303.156
303.161
303.164
303.167
303.171
303.176
303.18
303.185
303.19
303.195
303.2
303.204
303.209
303.214
303.218
303.223
303.227
303.231
303.235
303.24
303.244
303.247
303.251
303.255
303.258
303.262
303.265
303.268
303.271
303.274
303.276
303.279
303.281
303.283
303.284
303.286
303.289
303.297
303.321
303.378
303.434
303.478
303.51
303.533
303.55
303.566
303.584
303.609
303.635
302.785
302.824
302.874
302.921
302.963
303
303.03
303.051
303.048
302.985
302.821
302.733
302.717
302.739
302.776
302.817
302.857
302.895
302.929
302.959
302.986
303.009
303.029
303.045
303.059
303.069
303.077
303.083
303.088
303.091
303.093
303.094
303.095
303.097
303.099
303.102
303.104
303.105
303.106
303.109
303.112
303.117
303.121
303.124
303.127
303.131
303.135
303.14
303.145
303.149
303.154
303.158
303.163
303.167
303.171
303.175
303.179
303.183
303.186
303.19
303.193
303.197
303.2
303.203
303.206
303.209
303.212
303.214
303.217
303.219
303.221
303.223
303.225
303.227
303.229
303.23
303.232
303.235
303.243
303.266
303.321
303.376
303.419
303.449
303.471
303.488
303.505
303.525
303.551
303.577
302.759
302.798
302.847
302.894
302.935
302.971
303.001
303.022
303.019
302.956
302.793
302.706
302.691
302.713
302.749
302.789
302.829
302.866
302.9
302.93
302.957
302.98
302.999
303.015
303.028
303.039
303.047
303.053
303.057
303.06
303.062
303.063
303.064
303.065
303.067
303.07
303.072
303.073
303.074
303.076
303.079
303.084
303.089
303.092
303.094
303.098
303.103
303.107
303.112
303.117
303.122
303.126
303.131
303.135
303.139
303.143
303.147
303.151
303.155
303.158
303.162
303.165
303.168
303.171
303.174
303.177
303.18
303.183
303.185
303.188
303.19
303.192
303.194
303.196
303.198
303.2
303.202
303.205
303.212
303.235
303.289
303.342
303.383
303.411
303.431
303.448
303.463
303.482
303.507
303.534
302.734
302.772
302.82
302.867
302.908
302.943
302.973
302.993
302.99
302.929
302.768
302.682
302.667
302.688
302.724
302.764
302.803
302.84
302.873
302.903
302.929
302.952
302.971
302.987
302.999
303.01
303.018
303.024
303.028
303.031
303.033
303.034
303.034
303.035
303.037
303.04
303.042
303.043
303.043
303.045
303.049
303.054
303.059
303.062
303.064
303.069
303.074
303.079
303.084
303.09
303.094
303.099
303.103
303.108
303.112
303.117
303.121
303.125
303.129
303.133
303.137
303.141
303.145
303.149
303.152
303.156
303.16
303.163
303.167
303.17
303.174
303.177
303.181
303.184
303.187
303.19
303.194
303.199
303.208
303.233
303.287
303.34
303.38
303.408
303.428
303.444
303.459
303.478
303.504
303.533
302.709
302.746
302.794
302.84
302.88
302.915
302.945
302.965
302.962
302.902
302.744
302.659
302.645
302.666
302.701
302.74
302.779
302.815
302.848
302.877
302.903
302.925
302.943
302.959
302.971
302.981
302.989
302.995
302.999
303.002
303.004
303.004
303.005
303.005
303.007
303.01
303.012
303.013
303.013
303.015
303.018
303.023
303.029
303.032
303.035
303.04
303.045
303.051
303.057
303.063
303.068
303.073
303.077
303.082
303.087
303.091
303.096
303.1
303.105
303.109
303.113
303.117
303.121
303.125
303.129
303.133
303.136
303.14
303.144
303.148
303.152
303.155
303.159
303.163
303.166
303.169
303.173
303.178
303.187
303.211
303.265
303.318
303.358
303.386
303.405
303.421
303.435
303.453
303.478
303.505
302.684
302.721
302.769
302.814
302.854
302.888
302.917
302.937
302.935
302.877
302.723
302.642
302.628
302.649
302.683
302.722
302.759
302.794
302.826
302.854
302.879
302.9
302.917
302.932
302.943
302.952
302.959
302.965
302.969
302.973
302.974
302.975
302.975
302.975
302.975
302.978
302.98
302.981
302.98
302.982
302.985
302.991
302.996
303
303.003
303.008
303.015
303.022
303.029
303.034
303.039
303.044
303.048
303.053
303.057
303.062
303.066
303.07
303.074
303.077
303.08
303.084
303.087
303.09
303.093
303.095
303.098
303.101
303.103
303.106
303.108
303.11
303.112
303.114
303.115
303.116
303.118
303.12
303.127
303.149
303.202
303.254
303.294
303.322
303.342
303.357
303.371
303.386
303.407
303.43
302.66
302.696
302.743
302.788
302.827
302.861
302.89
302.91
302.911
302.858
302.716
302.641
302.63
302.651
302.683
302.719
302.754
302.787
302.816
302.842
302.864
302.883
302.898
302.911
302.92
302.928
302.934
302.939
302.943
302.945
302.947
302.947
302.947
302.946
302.946
302.948
302.95
302.95
302.949
302.95
302.953
302.959
302.965
302.968
302.972
302.979
302.986
302.994
303.001
303.007
303.012
303.016
303.021
303.025
303.029
303.033
303.036
303.039
303.041
303.043
303.045
303.046
303.048
303.049
303.05
303.051
303.051
303.052
303.052
303.053
303.053
303.053
303.053
303.052
303.051
303.051
303.05
303.05
303.054
303.073
303.125
303.177
303.218
303.247
303.267
303.283
303.296
303.31
303.327
303.346
302.636
302.672
302.718
302.762
302.801
302.835
302.863
302.885
302.891
302.855
302.747
302.692
302.687
302.706
302.734
302.764
302.793
302.82
302.843
302.864
302.881
302.896
302.908
302.917
302.925
302.93
302.935
302.939
302.943
302.947
302.949
302.95
302.95
302.949
302.95
302.951
302.953
302.953
302.952
302.953
302.956
302.961
302.967
302.971
302.974
302.981
302.989
302.997
303.004
303.009
303.014
303.018
303.022
303.026
303.03
303.033
303.036
303.038
303.039
303.039
303.04
303.04
303.039
303.039
303.039
303.038
303.037
303.037
303.036
303.035
303.034
303.033
303.031
303.03
303.028
303.027
303.025
303.024
303.026
303.042
303.087
303.133
303.169
303.194
303.213
303.226
303.237
303.249
303.263
303.278
302.613
302.648
302.693
302.737
302.775
302.809
302.837
302.861
302.876
302.872
302.844
302.831
302.837
302.852
302.87
302.889
302.908
302.925
302.94
302.954
302.966
302.977
302.986
302.994
303.001
303.007
303.012
303.018
303.023
303.029
303.034
303.038
303.04
303.041
303.042
303.045
303.048
303.049
303.048
303.049
303.052
303.056
303.061
303.064
303.066
303.071
303.077
303.083
303.087
303.089
303.091
303.094
303.096
303.1
303.103
303.106
303.108
303.109
303.111
303.112
303.113
303.113
303.114
303.114
303.114
303.114
303.114
303.114
303.114
303.113
303.113
303.113
303.112
303.111
303.111
303.11
303.109
303.109
303.11
303.117
303.135
303.154
303.169
303.181
303.189
303.196
303.202
303.209
303.219
303.232
302.589
302.624
302.669
302.712
302.75
302.783
302.812
302.836
302.856
302.869
302.874
302.882
302.894
302.907
302.922
302.936
302.949
302.962
302.973
302.984
302.993
303.002
303.01
303.017
303.024
303.03
303.036
303.042
303.048
303.055
303.061
303.067
303.07
303.072
303.074
303.078
303.081
303.083
303.082
303.083
303.085
303.089
303.093
303.095
303.097
303.101
303.106
303.109
303.112
303.112
303.113
303.115
303.117
303.12
303.123
303.126
303.128
303.131
303.132
303.134
303.135
303.137
303.138
303.139
303.14
303.14
303.141
303.142
303.142
303.142
303.142
303.143
303.143
303.143
303.143
303.142
303.142
303.142
303.143
303.146
303.151
303.157
303.162
303.166
303.17
303.173
303.177
303.182
303.191
303.204
302.566
302.6
302.645
302.687
302.724
302.757
302.786
302.811
302.832
302.85
302.865
302.88
302.894
302.907
302.92
302.933
302.944
302.955
302.965
302.974
302.983
302.991
302.999
303.006
303.013
303.019
303.025
303.031
303.037
303.044
303.051
303.057
303.062
303.065
303.067
303.071
303.074
303.075
303.074
303.075
303.076
303.079
303.083
303.084
303.085
303.089
303.093
303.095
303.097
303.097
303.098
303.1
303.102
303.105
303.109
303.111
303.114
303.116
303.119
303.121
303.123
303.124
303.126
303.127
303.129
303.13
303.131
303.132
303.133
303.133
303.134
303.135
303.135
303.135
303.136
303.136
303.137
303.137
303.138
303.139
303.141
303.143
303.145
303.147
303.149
303.152
303.155
303.16
303.17
303.184
302.543
302.577
302.62
302.662
302.699
302.731
302.76
302.785
302.807
302.826
302.843
302.859
302.874
302.887
302.9
302.912
302.923
302.933
302.943
302.952
302.96
302.968
302.976
302.983
302.99
302.996
303.002
303.008
303.014
303.021
303.028
303.035
303.04
303.043
303.046
303.049
303.052
303.053
303.051
303.05
303.049
303.05
303.052
303.052
303.052
303.054
303.057
303.059
303.059
303.059
303.059
303.061
303.064
303.067
303.069
303.072
303.074
303.077
303.079
303.081
303.083
303.085
303.086
303.088
303.089
303.09
303.091
303.092
303.093
303.094
303.095
303.096
303.097
303.097
303.098
303.099
303.1
303.101
303.102
303.103
303.104
303.106
303.108
303.11
303.112
303.115
303.119
303.125
303.136
303.15
302.52
302.554
302.596
302.638
302.674
302.706
302.734
302.759
302.781
302.8
302.818
302.834
302.849
302.862
302.875
302.886
302.897
302.907
302.916
302.925
302.934
302.942
302.949
302.956
302.963
302.97
302.976
302.982
302.989
302.995
303.002
303.009
303.015
303.018
303.021
303.024
303.026
303.025
303.02
303.015
303.009
303.005
303.003
302.999
302.997
302.997
302.998
302.998
302.997
302.996
302.996
302.998
302.999
303.001
303.003
303.005
303.007
303.009
303.011
303.013
303.014
303.016
303.018
303.019
303.021
303.022
303.024
303.025
303.027
303.028
303.03
303.031
303.033
303.034
303.036
303.037
303.039
303.041
303.043
303.045
303.047
303.049
303.052
303.055
303.058
303.062
303.066
303.073
303.085
303.099
302.498
302.531
302.573
302.613
302.649
302.681
302.709
302.733
302.755
302.774
302.792
302.808
302.822
302.836
302.848
302.86
302.87
302.88
302.89
302.898
302.907
302.914
302.922
302.929
302.936
302.943
302.95
302.956
302.963
302.97
302.977
302.984
302.99
302.993
302.996
302.998
302.999
302.994
302.982
302.966
302.949
302.934
302.923
302.914
302.908
302.906
302.905
302.903
302.901
302.9
302.901
302.902
302.903
302.905
302.907
302.91
302.912
302.915
302.918
302.921
302.924
302.928
302.931
302.934
302.937
302.94
302.943
302.946
302.948
302.951
302.954
302.957
302.96
302.963
302.966
302.969
302.972
302.975
302.978
302.981
302.984
302.987
302.991
302.995
302.999
303.003
303.009
303.016
303.028
303.042
302.476
302.508
302.55
302.59
302.626
302.657
302.684
302.708
302.73
302.749
302.766
302.782
302.797
302.81
302.822
302.833
302.844
302.854
302.863
302.872
302.88
302.888
302.896
302.903
302.91
302.917
302.924
302.931
302.938
302.946
302.953
302.96
302.966
302.97
302.973
302.973
302.97
302.955
302.921
302.88
302.84
302.81
302.794
302.783
302.777
302.776
302.777
302.778
302.78
302.783
302.787
302.791
302.795
302.8
302.806
302.812
302.818
302.824
302.83
302.835
302.841
302.846
302.851
302.856
302.861
302.866
302.871
302.875
302.88
302.884
302.889
302.893
302.897
302.901
302.905
302.909
302.913
302.916
302.92
302.924
302.928
302.932
302.936
302.94
302.945
302.95
302.956
302.964
302.975
302.988
302.456
302.488
302.529
302.568
302.603
302.634
302.661
302.685
302.706
302.725
302.742
302.758
302.772
302.785
302.798
302.809
302.82
302.829
302.839
302.847
302.856
302.864
302.871
302.878
302.885
302.892
302.899
302.907
302.915
302.923
302.93
302.938
302.945
302.949
302.952
302.95
302.939
302.902
302.829
302.745
302.679
302.641
302.628
302.628
302.632
302.642
302.652
302.663
302.674
302.684
302.694
302.703
302.713
302.722
302.732
302.741
302.75
302.758
302.766
302.774
302.781
302.788
302.794
302.801
302.807
302.812
302.818
302.823
302.829
302.834
302.839
302.844
302.848
302.853
302.857
302.862
302.866
302.87
302.874
302.879
302.883
302.887
302.891
302.896
302.901
302.906
302.912
302.92
302.931
302.943
302.438
302.469
302.51
302.549
302.583
302.614
302.64
302.664
302.685
302.704
302.721
302.736
302.751
302.764
302.776
302.787
302.798
302.807
302.817
302.826
302.834
302.842
302.849
302.856
302.863
302.87
302.877
302.885
302.893
302.901
302.909
302.918
302.925
302.931
302.933
302.928
302.897
302.795
302.586
302.434
302.358
302.36
302.441
302.492
302.522
302.546
302.568
302.588
302.607
302.624
302.639
302.652
302.665
302.677
302.689
302.7
302.71
302.719
302.728
302.736
302.744
302.751
302.758
302.764
302.771
302.777
302.783
302.789
302.794
302.799
302.804
302.809
302.814
302.819
302.824
302.828
302.832
302.837
302.841
302.845
302.85
302.854
302.858
302.863
302.868
302.873
302.88
302.888
302.898
302.91
302.423
302.454
302.494
302.533
302.567
302.597
302.623
302.647
302.668
302.686
302.703
302.719
302.733
302.746
302.758
302.769
302.78
302.789
302.799
302.808
302.816
302.824
302.832
302.839
302.846
302.852
302.859
302.867
302.874
302.883
302.891
302.9
302.908
302.915
302.918
302.906
302.847
302.652
302.237
302.01
301.942
302.021
302.275
302.406
302.463
302.497
302.524
302.548
302.569
302.589
302.606
302.623
302.637
302.651
302.664
302.676
302.686
302.696
302.706
302.714
302.722
302.73
302.737
302.744
302.75
302.756
302.762
302.768
302.773
302.778
302.784
302.789
302.793
302.798
302.803
302.807
302.811
302.816
302.82
302.825
302.829
302.833
302.838
302.843
302.847
302.853
302.859
302.868
302.878
302.89
302.411
302.442
302.482
302.52
302.554
302.584
302.611
302.634
302.655
302.673
302.69
302.705
302.72
302.733
302.745
302.756
302.766
302.776
302.785
302.794
302.803
302.811
302.819
302.826
302.833
302.84
302.846
302.853
302.861
302.869
302.878
302.886
302.894
302.901
302.903
302.886
302.803
302.525
301.929
301.644
301.59
301.746
302.165
302.369
302.446
302.483
302.508
302.53
302.551
302.569
302.587
302.603
302.619
302.634
302.647
302.66
302.672
302.683
302.694
302.703
302.712
302.72
302.728
302.735
302.741
302.747
302.753
302.759
302.764
302.77
302.775
302.78
302.785
302.789
302.794
302.799
302.803
302.808
302.812
302.817
302.822
302.826
302.831
302.836
302.842
302.848
302.855
302.863
302.875
302.886
302.404
302.434
302.474
302.512
302.546
302.576
302.602
302.625
302.646
302.665
302.682
302.697
302.711
302.724
302.736
302.748
302.758
302.768
302.778
302.787
302.795
302.803
302.811
302.819
302.826
302.833
302.839
302.846
302.853
302.861
302.869
302.876
302.881
302.887
302.887
302.864
302.765
302.443
301.753
301.438
301.399
301.61
302.14
302.392
302.477
302.509
302.526
302.54
302.554
302.568
302.582
302.596
302.61
302.624
302.638
302.651
302.664
302.677
302.691
302.702
302.712
302.721
302.729
302.736
302.743
302.749
302.755
302.761
302.767
302.772
302.778
302.783
302.788
302.793
302.798
302.803
302.808
302.813
302.818
302.823
302.829
302.834
302.84
302.846
302.852
302.859
302.867
302.877
302.89
302.902
302.4
302.43
302.47
302.508
302.542
302.572
302.598
302.621
302.642
302.66
302.677
302.693
302.707
302.72
302.733
302.744
302.755
302.765
302.775
302.784
302.792
302.801
302.809
302.817
302.824
302.831
302.838
302.844
302.851
302.858
302.864
302.867
302.864
302.863
302.858
302.828
302.721
302.386
301.676
301.358
301.334
301.59
302.203
302.487
302.571
302.589
302.59
302.59
302.591
302.595
302.601
302.609
302.618
302.629
302.64
302.651
302.663
302.678
302.698
302.712
302.722
302.731
302.739
302.747
302.754
302.761
302.767
302.773
302.78
302.786
302.791
302.797
302.803
302.809
302.814
302.82
302.826
302.832
302.838
302.844
302.851
302.857
302.864
302.871
302.879
302.887
302.897
302.909
302.924
302.939
302.399
302.429
302.469
302.507
302.54
302.57
302.596
302.619
302.64
302.659
302.676
302.692
302.706
302.719
302.732
302.743
302.754
302.765
302.775
302.784
302.793
302.802
302.811
302.819
302.826
302.833
302.84
302.845
302.851
302.855
302.859
302.857
302.845
302.836
302.819
302.777
302.66
302.324
301.623
301.313
301.303
301.588
302.257
302.573
302.671
302.691
302.685
302.675
302.666
302.66
302.656
302.656
302.658
302.662
302.668
302.675
302.684
302.697
302.718
302.731
302.741
302.75
302.758
302.766
302.773
302.781
302.788
302.795
302.802
302.809
302.816
302.823
302.829
302.836
302.843
302.85
302.856
302.863
302.871
302.878
302.885
302.893
302.901
302.91
302.919
302.929
302.94
302.955
302.972
302.99
302.399
302.429
302.469
302.507
302.541
302.571
302.597
302.62
302.64
302.659
302.676
302.692
302.706
302.719
302.732
302.743
302.755
302.765
302.775
302.785
302.795
302.804
302.813
302.822
302.83
302.837
302.842
302.845
302.846
302.846
302.844
302.835
302.813
302.79
302.752
302.677
302.517
302.172
301.5
301.208
301.206
301.498
302.181
302.535
302.693
302.743
302.745
302.734
302.721
302.71
302.703
302.698
302.697
302.697
302.699
302.704
302.71
302.722
302.742
302.756
302.766
302.774
302.783
302.791
302.8
302.808
302.817
302.825
302.833
302.841
302.849
302.857
302.865
302.873
302.88
302.888
302.896
302.904
302.912
302.92
302.928
302.936
302.945
302.953
302.962
302.972
302.983
302.997
303.014
303.032
302.4
302.431
302.47
302.508
302.542
302.572
302.598
302.621
302.642
302.66
302.677
302.692
302.707
302.72
302.732
302.744
302.755
302.766
302.776
302.786
302.796
302.806
302.815
302.824
302.832
302.837
302.838
302.834
302.828
302.82
302.809
302.791
302.759
302.718
302.641
302.466
302.109
301.718
301.156
300.918
300.921
301.173
301.778
302.211
302.597
302.755
302.784
302.772
302.754
302.738
302.727
302.721
302.719
302.719
302.722
302.727
302.735
302.749
302.77
302.785
302.796
302.805
302.815
302.824
302.834
302.843
302.852
302.862
302.871
302.879
302.888
302.896
302.904
302.912
302.92
302.927
302.935
302.942
302.949
302.956
302.962
302.968
302.974
302.979
302.985
302.99
302.996
303.004
303.015
303.028
302.401
302.431
302.471
302.509
302.543
302.573
302.599
302.622
302.643
302.661
302.678
302.694
302.708
302.721
302.734
302.745
302.756
302.767
302.777
302.788
302.798
302.807
302.817
302.825
302.831
302.828
302.814
302.793
302.771
302.752
302.738
302.718
302.684
302.632
302.497
302.098
301.195
300.652
300.301
300.161
300.164
300.317
300.702
301.302
302.293
302.701
302.794
302.793
302.774
302.756
302.745
302.739
302.738
302.741
302.747
302.755
302.765
302.78
302.803
302.819
302.829
302.839
302.847
302.856
302.864
302.873
302.881
302.889
302.896
302.904
302.91
302.917
302.923
302.929
302.934
302.938
302.942
302.946
302.949
302.952
302.955
302.957
302.958
302.96
302.961
302.963
302.966
302.971
302.979
302.989
302.401
302.432
302.471
302.509
302.543
302.573
302.599
302.622
302.643
302.662
302.679
302.694
302.708
302.722
302.734
302.746
302.757
302.768
302.778
302.789
302.799
302.809
302.818
302.825
302.823
302.803
302.759
302.707
302.664
302.64
302.631
302.624
302.606
302.565
302.414
301.905
300.743
300.11
299.837
299.743
299.746
299.85
300.149
300.841
302.112
302.661
302.8
302.812
302.794
302.776
302.764
302.757
302.756
302.759
302.764
302.772
302.782
302.797
302.818
302.831
302.839
302.846
302.852
302.858
302.864
302.87
302.875
302.881
302.886
302.891
302.895
302.899
302.903
302.906
302.909
302.911
302.913
302.915
302.916
302.917
302.918
302.919
302.919
302.92
302.921
302.923
302.926
302.931
302.938
302.947
302.401
302.431
302.471
302.509
302.543
302.573
302.599
302.622
302.643
302.661
302.678
302.694
302.708
302.722
302.734
302.746
302.757
302.768
302.779
302.789
302.799
302.809
302.817
302.819
302.797
302.715
302.542
302.421
302.367
302.385
302.477
302.53
302.544
302.524
302.38
301.84
300.589
299.92
299.663
299.582
299.585
299.674
299.954
300.681
302.042
302.643
302.804
302.822
302.805
302.786
302.771
302.762
302.759
302.759
302.763
302.769
302.777
302.789
302.808
302.818
302.825
302.829
302.833
302.837
302.841
302.845
302.848
302.852
302.855
302.859
302.862
302.864
302.867
302.869
302.871
302.872
302.874
302.875
302.876
302.877
302.879
302.88
302.881
302.882
302.884
302.887
302.89
302.896
302.903
302.912
302.401
302.431
302.471
302.509
302.542
302.572
302.598
302.621
302.642
302.661
302.678
302.693
302.708
302.721
302.733
302.745
302.757
302.767
302.778
302.789
302.799
302.809
302.815
302.808
302.756
302.577
302.189
301.985
301.935
302.035
302.316
302.458
302.506
302.503
302.367
301.821
300.545
299.864
299.609
299.532
299.534
299.619
299.896
300.635
302.023
302.641
302.809
302.827
302.809
302.787
302.77
302.759
302.753
302.751
302.752
302.756
302.762
302.773
302.79
302.799
302.804
302.807
302.809
302.812
302.814
302.817
302.819
302.822
302.824
302.826
302.829
302.831
302.833
302.835
302.837
302.838
302.84
302.842
302.843
302.845
302.847
302.849
302.851
302.853
302.856
302.859
302.863
302.869
302.877
302.886
302.4
302.43
302.47
302.508
302.542
302.572
302.598
302.621
302.641
302.66
302.677
302.692
302.707
302.72
302.733
302.744
302.756
302.767
302.777
302.788
302.798
302.807
302.811
302.797
302.716
302.446
301.862
301.587
301.547
301.727
302.189
302.413
302.486
302.49
302.356
301.81
300.535
299.855
299.602
299.526
299.528
299.612
299.888
300.631
302.027
302.651
302.821
302.839
302.819
302.794
302.774
302.761
302.753
302.75
302.749
302.751
302.756
302.764
302.78
302.788
302.792
302.794
302.795
302.796
302.797
302.799
302.8
302.801
302.803
302.805
302.806
302.808
302.81
302.811
302.813
302.815
302.817
302.819
302.821
302.823
302.825
302.828
302.83
302.833
302.837
302.84
302.845
302.851
302.86
302.869
302.4
302.43
302.47
302.508
302.541