/*--------------------------------*- C++ -*----------------------------------*\
| =========                 |                                                 |
| \\      /  F ield         | OpenFOAM: The Open Source CFD Toolbox           |
|  \\    /   O peration     | Version:  v2012                                 |
|   \\  /    A nd           | Website:  www.openfoam.com                      |
|    \\/     M anipulation  |                                                 |
\*---------------------------------------------------------------------------*/
FoamFile
{
    version     2.0;
    format      ascii;
    class       volScalarField;
    location    "150/asphalt";
    object      T;
}
// * * * * * * * * * * * * * * * * * * * * * * * * * * * * * * * * * * * * * //

dimensions      [0 0 0 1 0 0 0];


internalField   nonuniform List<scalar> 
1980
(
320.507
320.858
321.177
321.392
321.509
321.56
321.596
321.656
321.746
321.858
321.974
322.084
322.184
322.274
322.356
322.431
322.501
322.564
322.623
322.676
322.725
322.771
322.813
322.853
322.892
322.93
322.967
323.004
323.042
323.081
323.118
323.152
323.172
323.2
323.228
323.255
323.281
323.306
323.333
323.359
323.385
323.41
323.436
323.46
323.487
323.512
323.536
323.559
323.579
323.597
323.612
323.625
323.637
323.649
323.659
323.668
323.677
323.688
323.711
323.72
323.724
323.726
323.726
323.726
323.724
323.721
323.72
323.718
323.717
323.715
323.713
323.711
323.708
323.705
323.701
323.696
323.691
323.686
323.687
323.702
323.743
323.823
323.949
324.116
324.302
324.478
324.615
324.708
324.793
324.999
320.645
321.003
321.332
321.56
321.694
321.772
321.842
321.933
322.048
322.173
322.296
322.41
322.512
322.604
322.688
322.765
322.836
322.901
322.961
323.016
323.067
323.114
323.158
323.2
323.241
323.281
323.32
323.36
323.399
323.439
323.477
323.513
323.545
323.575
323.604
323.633
323.661
323.689
323.716
323.743
323.77
323.796
323.822
323.847
323.872
323.897
323.921
323.944
323.966
323.985
324.002
324.016
324.029
324.041
324.051
324.06
324.068
324.076
324.083
324.088
324.091
324.092
324.093
324.093
324.091
324.089
324.086
324.085
324.083
324.082
324.081
324.079
324.076
324.074
324.07
324.065
324.06
324.055
324.052
324.058
324.084
324.143
324.242
324.381
324.544
324.703
324.829
324.913
324.993
325.201
320.789
321.155
321.492
321.732
321.889
322.001
322.109
322.233
322.371
322.508
322.637
322.752
322.856
322.95
323.036
323.115
323.188
323.255
323.317
323.374
323.426
323.475
323.521
323.566
323.609
323.651
323.692
323.733
323.774
323.814
323.852
323.888
323.921
323.953
323.983
324.012
324.042
324.072
324.1
324.128
324.155
324.182
324.209
324.235
324.26
324.285
324.309
324.332
324.354
324.374
324.392
324.408
324.422
324.435
324.445
324.454
324.462
324.468
324.473
324.477
324.479
324.48
324.481
324.48
324.478
324.476
324.474
324.472
324.471
324.469
324.468
324.467
324.465
324.462
324.459
324.455
324.451
324.445
324.44
324.44
324.453
324.489
324.558
324.665
324.799
324.938
325.052
325.129
325.206
325.416
320.934
321.305
321.65
321.905
322.089
322.239
322.387
322.542
322.697
322.842
322.974
323.091
323.197
323.293
323.381
323.462
323.537
323.606
323.67
323.728
323.783
323.834
323.882
323.929
323.974
324.018
324.061
324.103
324.145
324.185
324.224
324.259
324.293
324.325
324.356
324.387
324.418
324.449
324.478
324.507
324.535
324.563
324.59
324.617
324.642
324.667
324.692
324.715
324.738
324.759
324.778
324.795
324.81
324.823
324.834
324.843
324.851
324.857
324.861
324.864
324.866
324.866
324.867
324.866
324.864
324.862
324.86
324.858
324.856
324.855
324.854
324.852
324.85
324.848
324.846
324.842
324.838
324.834
324.828
324.824
324.826
324.843
324.883
324.955
325.056
325.171
325.271
325.342
325.417
325.63
321.071
321.447
321.799
322.071
322.286
322.474
322.656
322.833
322.999
323.148
323.281
323.4
323.508
323.606
323.697
323.78
323.857
323.928
323.993
324.054
324.11
324.163
324.214
324.263
324.31
324.355
324.4
324.443
324.485
324.526
324.564
324.6
324.634
324.668
324.7
324.732
324.764
324.795
324.826
324.855
324.885
324.913
324.941
324.969
324.995
325.02
325.045
325.069
325.092
325.114
325.133
325.152
325.167
325.181
325.193
325.202
325.21
325.216
325.221
325.223
325.225
325.225
325.225
325.224
325.222
325.22
325.218
325.216
325.214
325.213
325.211
325.21
325.208
325.206
325.204
325.201
325.198
325.194
325.189
325.184
325.18
325.182
325.199
325.239
325.306
325.392
325.474
325.539
325.612
325.829
321.189
321.57
321.931
322.222
322.467
322.688
322.893
323.082
323.252
323.402
323.536
323.657
323.767
323.867
323.96
324.045
324.124
324.196
324.263
324.326
324.384
324.44
324.492
324.543
324.592
324.639
324.684
324.729
324.771
324.812
324.851
324.887
324.922
324.957
324.99
325.024
325.057
325.089
325.12
325.151
325.181
325.211
325.24
325.268
325.295
325.321
325.347
325.371
325.394
325.416
325.437
325.456
325.473
325.488
325.5
325.511
325.519
325.526
325.53
325.533
325.535
325.535
325.535
325.533
325.532
325.53
325.528
325.526
325.524
325.522
325.52
325.519
325.517
325.515
325.513
325.51
325.507
325.504
325.5
325.495
325.49
325.485
325.487
325.502
325.538
325.594
325.656
325.711
325.782
326.004
321.282
321.669
322.041
322.351
322.62
322.86
323.076
323.269
323.439
323.591
323.726
323.849
323.961
324.064
324.158
324.245
324.325
324.399
324.468
324.532
324.593
324.65
324.704
324.756
324.807
324.855
324.901
324.946
324.99
325.031
325.07
325.107
325.144
325.179
325.214
325.249
325.283
325.316
325.348
325.38
325.411
325.442
325.472
325.502
325.53
325.557
325.583
325.608
325.632
325.655
325.677
325.697
325.715
325.731
325.745
325.757
325.766
325.774
325.779
325.782
325.784
325.785
325.785
325.784
325.782
325.78
325.778
325.776
325.774
325.772
325.771
325.769
325.767
325.765
325.763
325.76
325.757
325.754
325.751
325.747
325.743
325.737
325.732
325.734
325.748
325.777
325.815
325.856
325.925
326.151
321.347
321.74
322.123
322.448
322.731
322.98
323.199
323.392
323.564
323.716
323.854
323.979
324.092
324.197
324.292
324.381
324.462
324.538
324.608
324.674
324.736
324.795
324.851
324.904
324.955
325.005
325.052
325.098
325.141
325.183
325.223
325.261
325.299
325.336
325.372
325.408
325.442
325.477
325.51
325.543
325.576
325.608
325.64
325.67
325.7
325.728
325.755
325.781
325.806
325.83
325.853
325.874
325.894
325.911
325.927
325.941
325.952
325.962
325.969
325.974
325.978
325.98
325.98
325.98
325.979
325.978
325.976
325.975
325.973
325.971
325.969
325.967
325.966
325.964
325.961
325.959
325.956
325.953
325.95
325.947
325.944
325.939
325.934
325.931
325.933
325.944
325.962
325.989
326.054
326.286
321.386
321.785
322.177
322.51
322.799
323.051
323.271
323.466
323.638
323.793
323.932
324.058
324.173
324.279
324.376
324.465
324.548
324.625
324.697
324.764
324.827
324.887
324.945
324.999
325.051
325.101
325.149
325.195
325.239
325.282
325.323
325.362
325.401
325.439
325.476
325.513
325.548
325.584
325.618
325.652
325.686
325.72
325.752
325.784
325.815
325.844
325.873
325.9
325.927
325.952
325.976
325.999
326.02
326.039
326.057
326.072
326.085
326.097
326.106
326.114
326.12
326.124
326.128
326.13
326.131
326.131
326.131
326.131
326.13
326.13
326.129
326.128
326.127
326.126
326.124
326.122
326.121
326.119
326.117
326.115
326.113
326.11
326.107
326.105
326.103
326.106
326.113
326.129
326.189
326.428
321.408
321.812
322.209
322.548
322.84
323.094
323.317
323.513
323.688
323.845
323.986
324.114
324.231
324.338
324.437
324.528
324.613
324.691
324.765
324.834
324.899
324.961
325.019
325.075
325.129
325.18
325.229
325.276
325.321
325.365
325.407
325.448
325.489
325.528
325.567
325.604
325.641
325.678
325.714
325.749
325.785
325.819
325.854
325.887
325.919
325.95
325.98
326.009
326.037
326.064
326.09
326.115
326.138
326.159
326.179
326.196
326.211
326.225
326.237
326.246
326.255
326.262
326.267
326.271
326.275
326.277
326.279
326.281
326.283
326.284
326.285
326.286
326.286
326.287
326.287
326.287
326.287
326.287
326.287
326.286
326.286
326.285
326.285
326.284
326.284
326.285
326.288
326.301
326.36
326.603
321.428
321.84
322.246
322.593
322.893
323.154
323.383
323.586
323.767
323.929
324.076
324.21
324.332
324.444
324.548
324.644
324.733
324.816
324.894
324.968
325.037
325.103
325.166
325.225
325.283
325.337
325.39
325.44
325.489
325.537
325.583
325.627
325.671
325.714
325.756
325.797
325.838
325.878
325.917
325.956
325.994
326.032
326.07
326.106
326.142
326.176
326.209
326.24
326.271
326.301
326.329
326.357
326.383
326.407
326.429
326.449
326.466
326.482
326.496
326.507
326.518
326.526
326.533
326.539
326.544
326.548
326.552
326.555
326.558
326.56
326.562
326.564
326.566
326.567
326.569
326.57
326.571
326.572
326.573
326.574
326.574
326.574
326.574
326.574
326.574
326.575
326.578
326.588
326.64
326.854
321.848
322.26
322.637
322.911
323.077
323.16
323.213
323.281
323.381
323.504
323.633
323.755
323.867
323.968
324.059
324.143
324.22
324.291
324.356
324.416
324.471
324.522
324.569
324.614
324.658
324.7
324.742
324.783
324.825
324.868
324.91
324.948
324.977
325.009
325.041
325.071
325.1
325.129
325.159
325.189
325.219
325.248
325.277
325.306
325.337
325.368
325.396
325.423
325.449
325.472
325.492
325.511
325.529
325.546
325.562
325.576
325.589
325.603
325.623
325.634
325.64
325.644
325.646
325.647
325.645
325.643
325.641
325.639
325.636
325.633
325.631
325.627
325.624
325.62
325.616
325.61
325.604
325.599
325.599
325.616
325.664
325.754
325.891
326.062
326.241
326.395
326.502
326.568
326.638
326.866
321.988
322.406
322.792
323.076
323.258
323.369
323.457
323.561
323.687
323.826
323.963
324.089
324.202
324.305
324.398
324.483
324.562
324.635
324.702
324.764
324.82
324.873
324.922
324.969
325.015
325.059
325.103
325.146
325.19
325.234
325.277
325.316
325.352
325.386
325.419
325.451
325.482
325.513
325.544
325.575
325.605
325.636
325.666
325.695
325.725
325.755
325.783
325.811
325.838
325.863
325.885
325.906
325.925
325.943
325.958
325.972
325.984
325.995
326.004
326.011
326.016
326.02
326.023
326.023
326.022
326.02
326.017
326.015
326.013
326.01
326.008
326.005
326.001
325.998
325.994
325.989
325.983
325.977
325.973
325.98
326.01
326.075
326.182
326.323
326.478
326.616
326.714
326.773
326.84
327.071
322.132
322.556
322.948
323.242
323.445
323.589
323.718
323.858
324.01
324.162
324.304
324.432
324.547
324.651
324.746
324.833
324.914
324.989
325.058
325.121
325.179
325.234
325.285
325.335
325.383
325.429
325.475
325.52
325.565
325.609
325.652
325.692
325.728
325.763
325.797
325.829
325.863
325.896
325.928
325.959
325.991
326.022
326.053
326.083
326.113
326.142
326.171
326.199
326.227
326.253
326.277
326.299
326.32
326.338
326.354
326.368
326.379
326.389
326.396
326.402
326.406
326.409
326.412
326.412
326.411
326.409
326.407
326.404
326.402
326.4
326.397
326.394
326.391
326.388
326.385
326.381
326.376
326.369
326.364
326.363
326.377
326.417
326.49
326.596
326.722
326.842
326.931
326.986
327.05
327.286
322.272
322.702
323.099
323.403
323.63
323.812
323.982
324.154
324.325
324.486
324.63
324.76
324.876
324.982
325.079
325.169
325.252
325.328
325.399
325.464
325.524
325.581
325.635
325.686
325.736
325.785
325.832
325.879
325.925
325.969
326.011
326.051
326.088
326.123
326.158
326.192
326.227
326.261
326.294
326.326
326.359
326.391
326.422
326.454
326.483
326.513
326.542
326.571
326.599
326.626
326.652
326.676
326.697
326.716
326.732
326.746
326.758
326.768
326.775
326.78
326.784
326.786
326.788
326.788
326.787
326.785
326.782
326.78
326.777
326.775
326.773
326.77
326.767
326.764
326.761
326.758
326.753
326.748
326.742
326.737
326.739
326.756
326.797
326.867
326.96
327.058
327.136
327.189
327.253
327.493
322.398
322.832
323.233
323.551
323.805
324.024
324.228
324.423
324.604
324.768
324.913
325.044
325.162
325.27
325.369
325.461
325.545
325.623
325.695
325.762
325.825
325.883
325.94
325.993
326.045
326.095
326.144
326.192
326.238
326.283
326.325
326.364
326.402
326.439
326.474
326.51
326.546
326.58
326.615
326.648
326.681
326.714
326.747
326.779
326.809
326.839
326.869
326.898
326.927
326.955
326.982
327.006
327.029
327.048
327.066
327.08
327.092
327.102
327.109
327.114
327.118
327.119
327.121
327.121
327.119
327.117
327.115
327.113
327.11
327.108
327.105
327.103
327.1
327.097
327.094
327.091
327.087
327.083
327.078
327.071
327.067
327.069
327.084
327.12
327.18
327.252
327.318
327.367
327.432
327.677
322.501
322.939
323.345
323.677
323.957
324.204
324.43
324.636
324.821
324.984
325.13
325.262
325.382
325.492
325.593
325.686
325.773
325.852
325.926
325.994
326.059
326.12
326.178
326.233
326.287
326.338
326.388
326.437
326.483
326.528
326.57
326.61
326.649
326.687
326.724
326.76
326.797
326.833
326.868
326.902
326.936
326.97
327.004
327.037
327.068
327.099
327.13
327.16
327.189
327.218
327.245
327.271
327.294
327.315
327.333
327.349
327.362
327.372
327.38
327.385
327.388
327.39
327.391
327.391
327.39
327.388
327.386
327.383
327.38
327.378
327.375
327.373
327.37
327.367
327.364
327.361
327.358
327.354
327.35
327.345
327.338
327.333
327.333
327.345
327.375
327.421
327.469
327.513
327.579
327.829
322.576
323.017
323.431
323.776
324.074
324.338
324.573
324.781
324.966
325.13
325.277
325.41
325.532
325.644
325.746
325.841
325.928
326.009
326.084
326.154
326.221
326.283
326.343
326.4
326.454
326.507
326.558
326.607
326.654
326.699
326.741
326.782
326.822
326.861
326.899
326.937
326.974
327.011
327.047
327.083
327.118
327.153
327.188
327.222
327.255
327.287
327.318
327.349
327.38
327.409
327.437
327.464
327.488
327.511
327.53
327.548
327.562
327.574
327.583
327.589
327.593
327.595
327.597
327.596
327.595
327.594
327.591
327.589
327.586
327.584
327.581
327.578
327.575
327.572
327.569
327.566
327.563
327.559
327.556
327.552
327.547
327.54
327.534
327.533
327.543
327.566
327.595
327.629
327.694
327.951
322.622
323.068
323.49
323.845
324.152
324.422
324.658
324.866
325.051
325.216
325.365
325.5
325.623
325.736
325.84
325.935
326.024
326.106
326.182
326.254
326.322
326.386
326.446
326.504
326.56
326.613
326.665
326.714
326.761
326.807
326.85
326.892
326.933
326.973
327.012
327.051
327.089
327.127
327.164
327.201
327.238
327.274
327.31
327.345
327.379
327.413
327.446
327.478
327.509
327.54
327.569
327.597
327.622
327.646
327.668
327.687
327.704
327.718
327.73
327.739
327.745
327.749
327.752
327.753
327.752
327.751
327.75
327.748
327.745
327.743
327.74
327.738
327.735
327.732
327.729
327.726
327.722
327.719
327.716
327.713
327.709
327.704
327.698
327.694
327.694
327.701
327.714
327.736
327.798
328.063
322.647
323.097
323.525
323.885
324.196
324.466
324.703
324.912
325.097
325.264
325.414
325.55
325.675
325.788
325.893
325.99
326.079
326.162
326.24
326.313
326.382
326.447
326.509
326.568
326.624
326.678
326.73
326.779
326.827
326.873
326.917
326.96
327.002
327.043
327.083
327.123
327.162
327.2
327.239
327.276
327.314
327.351
327.388
327.425
327.46
327.495
327.53
327.563
327.596
327.628
327.659
327.688
327.715
327.74
327.764
327.784
327.803
327.819
327.833
327.845
327.854
327.862
327.867
327.871
327.874
327.875
327.876
327.876
327.875
327.874
327.873
327.871
327.87
327.868
327.866
327.864
327.861
327.859
327.857
327.855
327.853
327.85
327.847
327.844
327.842
327.843
327.847
327.861
327.921
328.195
322.66
323.113
323.545
323.909
324.222
324.494
324.732
324.943
325.131
325.299
325.451
325.589
325.715
325.83
325.937
326.035
326.126
326.211
326.29
326.365
326.435
326.502
326.565
326.625
326.683
326.738
326.79
326.841
326.89
326.937
326.982
327.026
327.07
327.112
327.154
327.195
327.235
327.275
327.314
327.353
327.392
327.431
327.47
327.507
327.545
327.581
327.617
327.652
327.686
327.72
327.752
327.784
327.813
327.84
327.866
327.889
327.91
327.928
327.945
327.959
327.971
327.981
327.989
327.996
328.001
328.005
328.008
328.011
328.013
328.014
328.016
328.016
328.017
328.017
328.017
328.017
328.017
328.017
328.017
328.017
328.017
328.017
328.016
328.016
328.016
328.017
328.02
328.032
328.093
328.373
322.675
323.138
323.578
323.951
324.272
324.552
324.798
325.015
325.21
325.385
325.543
325.687
325.818
325.94
326.051
326.155
326.251
326.341
326.426
326.505
326.581
326.652
326.72
326.784
326.846
326.905
326.962
327.016
327.069
327.12
327.17
327.218
327.266
327.312
327.358
327.402
327.446
327.49
327.533
327.576
327.619
327.662
327.704
327.745
327.786
327.826
327.865
327.904
327.941
327.978
328.013
328.048
328.08
328.111
328.14
328.166
328.189
328.211
328.23
328.246
328.261
328.273
328.283
328.292
328.299
328.305
328.31
328.314
328.318
328.321
328.323
328.326
328.328
328.329
328.331
328.333
328.334
328.335
328.337
328.338
328.339
328.34
328.34
328.341
328.341
328.343
328.346
328.357
328.411
328.654
)
;

boundaryField
{
    inlet
    {
        type            zeroGradient;
    }
    outlet
    {
        type            zeroGradient;
    }
    side
    {
        type            zeroGradient;
    }
    asphalt_to_soil1
    {
        type            compressible::turbulentTemperatureRadCoupledMixed;
        refValue        nonuniform List<scalar> 
990
(
319.197
319.495
319.762
319.93
320.008
320.036
320.06
320.112
320.194
320.295
320.399
320.498
320.588
320.669
320.742
320.809
320.871
320.928
320.98
321.028
321.072
321.112
321.15
321.186
321.22
321.254
321.288
321.321
321.355
321.39
321.424
321.452
321.465
321.489
321.514
321.538
321.561
321.584
321.607
321.63
321.652
321.674
321.696
321.717
321.739
321.761
321.78
321.798
321.814
321.827
321.838
321.847
321.854
321.861
321.867
321.872
321.878
321.888
321.911
321.919
321.923
321.923
321.922
321.921
321.918
321.916
321.915
321.914
321.913
321.913
321.912
321.911
321.909
321.906
321.902
321.897
321.893
321.889
321.89
321.903
321.938
322.009
322.126
322.287
322.477
322.667
322.826
322.938
323.035
323.224
319.331
319.636
319.914
320.095
320.193
320.247
320.302
320.382
320.486
320.599
320.71
320.812
320.904
320.986
321.062
321.131
321.194
321.253
321.307
321.356
321.401
321.443
321.483
321.52
321.557
321.593
321.628
321.664
321.699
321.735
321.769
321.801
321.829
321.856
321.883
321.908
321.933
321.958
321.982
322.005
322.028
322.051
322.073
322.094
322.116
322.137
322.157
322.175
322.192
322.206
322.218
322.227
322.236
322.242
322.249
322.254
322.259
322.264
322.27
322.273
322.275
322.275
322.275
322.273
322.271
322.269
322.267
322.266
322.266
322.265
322.265
322.264
322.262
322.26
322.256
322.252
322.248
322.243
322.241
322.246
322.269
322.321
322.414
322.549
322.717
322.891
323.036
323.14
323.231
323.42
319.473
319.786
320.074
320.27
320.391
320.477
320.569
320.679
320.803
320.927
321.043
321.147
321.241
321.326
321.403
321.475
321.54
321.601
321.656
321.707
321.754
321.798
321.839
321.879
321.918
321.956
321.993
322.03
322.067
322.103
322.138
322.17
322.2
322.228
322.255
322.282
322.308
322.334
322.359
322.384
322.407
322.431
322.453
322.476
322.497
322.517
322.537
322.556
322.573
322.588
322.601
322.612
322.621
322.628
322.635
322.64
322.644
322.648
322.651
322.653
322.654
322.654
322.654
322.652
322.65
322.648
322.646
322.645
322.644
322.644
322.644
322.643
322.642
322.64
322.637
322.634
322.629
322.624
322.62
322.62
322.631
322.664
322.73
322.836
322.976
323.129
323.261
323.355
323.441
323.631
319.62
319.939
320.237
320.45
320.599
320.723
320.852
320.991
321.131
321.263
321.382
321.489
321.585
321.672
321.752
321.825
321.893
321.955
322.012
322.065
322.114
322.16
322.203
322.245
322.286
322.326
322.365
322.403
322.441
322.477
322.512
322.544
322.575
322.604
322.632
322.66
322.688
322.715
322.741
322.766
322.79
322.814
322.838
322.86
322.882
322.903
322.923
322.942
322.959
322.975
322.988
323
323.01
323.018
323.025
323.03
323.035
323.038
323.041
323.042
323.043
323.042
323.041
323.04
323.038
323.036
323.034
323.032
323.031
323.031
323.031
323.03
323.029
323.028
323.025
323.022
323.019
323.014
323.01
323.006
323.008
323.024
323.063
323.137
323.244
323.371
323.487
323.573
323.655
323.846
319.762
320.088
320.396
320.629
320.811
320.974
321.136
321.297
321.448
321.584
321.705
321.813
321.911
322.001
322.083
322.159
322.228
322.293
322.352
322.406
322.457
322.505
322.551
322.595
322.638
322.679
322.72
322.759
322.797
322.834
322.869
322.902
322.933
322.963
322.992
323.021
323.05
323.078
323.105
323.131
323.156
323.181
323.205
323.229
323.251
323.272
323.292
323.311
323.329
323.345
323.359
323.372
323.382
323.391
323.399
323.404
323.409
323.413
323.415
323.416
323.416
323.415
323.415
323.413
323.411
323.409
323.407
323.405
323.404
323.404
323.403
323.403
323.402
323.401
323.399
323.396
323.393
323.389
323.385
323.38
323.377
323.38
323.398
323.44
323.513
323.609
323.704
323.781
323.86
324.054
319.892
320.223
320.543
320.799
321.014
321.211
321.397
321.569
321.725
321.863
321.986
322.096
322.197
322.289
322.373
322.451
322.523
322.589
322.65
322.706
322.759
322.81
322.858
322.903
322.948
322.991
323.032
323.073
323.112
323.149
323.184
323.217
323.249
323.28
323.311
323.341
323.371
323.4
323.427
323.455
323.481
323.507
323.532
323.556
323.579
323.601
323.622
323.641
323.659
323.675
323.69
323.704
323.715
323.725
323.733
323.74
323.745
323.748
323.751
323.752
323.752
323.751
323.75
323.749
323.747
323.745
323.743
323.741
323.74
323.739
323.738
323.738
323.737
323.736
323.734
323.731
323.729
323.726
323.722
323.718
323.713
323.71
323.713
323.73
323.771
323.835
323.905
323.969
324.045
324.242
319.999
320.338
320.671
320.949
321.192
321.41
321.609
321.786
321.944
322.083
322.208
322.321
322.423
322.517
322.604
322.683
322.757
322.825
322.887
322.946
323.001
323.053
323.103
323.151
323.196
323.241
323.283
323.325
323.364
323.402
323.438
323.472
323.505
323.538
323.57
323.601
323.631
323.661
323.69
323.718
323.746
323.773
323.799
323.824
323.848
323.871
323.892
323.912
323.93
323.947
323.963
323.978
323.991
324.002
324.011
324.018
324.024
324.028
324.031
324.033
324.033
324.033
324.032
324.03
324.029
324.027
324.025
324.023
324.022
324.021
324.02
324.019
324.018
324.017
324.015
324.013
324.01
324.008
324.005
324.001
323.997
323.993
323.989
323.992
324.009
324.043
324.088
324.136
324.207
324.407
320.078
320.424
320.771
321.068
321.327
321.556
321.759
321.938
322.097
322.238
322.365
322.48
322.584
322.68
322.768
322.85
322.925
322.994
323.058
323.119
323.176
323.23
323.281
323.33
323.377
323.422
323.466
323.508
323.548
323.586
323.623
323.659
323.693
323.727
323.76
323.792
323.824
323.855
323.885
323.914
323.943
323.971
323.999
324.025
324.05
324.074
324.096
324.117
324.136
324.154
324.171
324.187
324.202
324.214
324.225
324.234
324.242
324.247
324.252
324.255
324.256
324.256
324.256
324.255
324.254
324.252
324.251
324.25
324.248
324.247
324.246
324.245
324.244
324.243
324.241
324.239
324.237
324.234
324.232
324.229
324.226
324.222
324.218
324.216
324.219
324.233
324.255
324.287
324.352
324.556
320.129
320.481
320.839
321.147
321.415
321.648
321.853
322.033
322.193
322.336
322.465
322.582
322.688
322.785
322.875
322.957
323.034
323.105
323.171
323.233
323.291
323.346
323.399
323.449
323.497
323.543
323.588
323.63
323.671
323.71
323.748
323.785
323.82
323.855
323.889
323.923
323.955
323.987
324.018
324.049
324.079
324.109
324.138
324.165
324.192
324.216
324.239
324.261
324.282
324.302
324.32
324.338
324.354
324.368
324.38
324.391
324.4
324.408
324.414
324.419
324.422
324.425
324.426
324.427
324.427
324.427
324.427
324.426
324.426
324.426
324.425
324.425
324.424
324.423
324.422
324.421
324.42
324.418
324.416
324.415
324.413
324.41
324.408
324.405
324.405
324.408
324.418
324.437
324.496
324.705
320.159
320.517
320.882
321.197
321.468
321.705
321.911
322.094
322.256
322.402
322.533
322.651
322.76
322.859
322.95
323.035
323.113
323.186
323.254
323.317
323.378
323.434
323.489
323.54
323.59
323.637
323.683
323.726
323.768
323.809
323.848
323.886
323.923
323.96
323.995
324.03
324.064
324.097
324.13
324.162
324.193
324.224
324.255
324.284
324.311
324.337
324.362
324.385
324.408
324.429
324.45
324.469
324.487
324.503
324.517
324.53
324.541
324.55
324.558
324.565
324.57
324.575
324.578
324.581
324.583
324.585
324.586
324.587
324.588
324.589
324.59
324.591
324.592
324.593
324.593
324.593
324.593
324.593
324.593
324.592
324.592
324.591
324.59
324.589
324.589
324.59
324.594
324.608
324.665
324.876
320.183
320.548
320.922
321.245
321.523
321.766
321.979
322.167
322.335
322.486
322.622
322.745
322.858
322.962
323.058
323.147
323.229
323.306
323.378
323.446
323.51
323.57
323.628
323.683
323.736
323.786
323.835
323.882
323.927
323.97
324.013
324.054
324.095
324.134
324.173
324.21
324.247
324.283
324.319
324.354
324.389
324.422
324.455
324.487
324.518
324.546
324.573
324.599
324.624
324.647
324.67
324.692
324.712
324.731
324.747
324.762
324.775
324.786
324.796
324.804
324.811
324.817
324.821
324.825
324.829
324.831
324.834
324.836
324.838
324.84
324.842
324.844
324.846
324.847
324.848
324.849
324.85
324.851
324.851
324.851
324.852
324.851
324.851
324.85
324.85
324.85
324.853
324.864
324.914
325.102
)
;
        refGradient     uniform 0;
        valueFraction   nonuniform List<scalar> 
990
(
0.495766
0.495766
0.495766
0.495766
0.495766
0.495766
0.495766
0.495766
0.495766
0.495766
0.495766
0.495766
0.495766
0.495766
0.495766
0.495766
0.495766
0.495766
0.495766
0.495766
0.495766
0.495766
0.495766
0.495766
0.495766
0.495766
0.495766
0.495766
0.495766
0.495766
0.495766
0.495766
0.495766
0.495766
0.495766
0.495766
0.495766
0.495766
0.495766
0.495766
0.495766
0.495766
0.495766
0.495766
0.495766
0.495766
0.495766
0.495766
0.495766
0.495766
0.495766
0.495766
0.495766
0.495766
0.495766
0.495766
0.495766
0.495766
0.495766
0.495766
0.495766
0.495766
0.495766
0.495766
0.495766
0.495766
0.495766
0.495766
0.495766
0.495766
0.495766
0.495766
0.495766
0.495766
0.495766
0.495766
0.495766
0.495766
0.495766
0.495766
0.495766
0.495766
0.495766
0.495766
0.495766
0.495766
0.495766
0.495766
0.495766
0.495766
0.495766
0.495766
0.495766
0.495766
0.495766
0.495766
0.495766
0.495766
0.495766
0.495766
0.495766
0.495766
0.495766
0.495766
0.495766
0.495766
0.495766
0.495766
0.495766
0.495766
0.495766
0.495766
0.495766
0.495766
0.495766
0.495766
0.495766
0.495766
0.495766
0.495766
0.495766
0.495766
0.495766
0.495766
0.495766
0.495766
0.495766
0.495766
0.495766
0.495766
0.495766
0.495766
0.495766
0.495766
0.495766
0.495766
0.495766
0.495766
0.495766
0.495766
0.495766
0.495766
0.495766
0.495766
0.495766
0.495766
0.495766
0.495766
0.495766
0.495766
0.495766
0.495766
0.495766
0.495766
0.495766
0.495766
0.495766
0.495766
0.495766
0.495766
0.495766
0.495766
0.495766
0.495766
0.495766
0.495766
0.495766
0.495766
0.495766
0.495766
0.495766
0.495766
0.495766
0.495766
0.495766
0.495766
0.495766
0.495766
0.495766
0.495766
0.495766
0.495766
0.495766
0.495766
0.495766
0.495766
0.495766
0.495766
0.495766
0.495766
0.495766
0.495766
0.495766
0.495766
0.495766
0.495766
0.495766
0.495766
0.495766
0.495766
0.495766
0.495766
0.495766
0.495766
0.495766
0.495766
0.495766
0.495766
0.495766
0.495766
0.495766
0.495766
0.495766
0.495766
0.495766
0.495766
0.495766
0.495766
0.495766
0.495766
0.495766
0.495766
0.495766
0.495766
0.495766
0.495766
0.495766
0.495766
0.495766
0.495766
0.495766
0.495766
0.495766
0.495766
0.495766
0.495766
0.495766
0.495766
0.495766
0.495766
0.495766
0.495766
0.495766
0.495766
0.495766
0.495766
0.495766
0.495766
0.495766
0.495766
0.495766
0.495766
0.495766
0.495766
0.495766
0.495766
0.495766
0.495766
0.495766
0.495766
0.495766
0.495766
0.495766
0.495766
0.495766
0.495766
0.495766
0.495766
0.495766
0.495766
0.495766
0.495766
0.495766
0.495766
0.495766
0.495766
0.495766
0.495766
0.495766
0.495766
0.495766
0.495766
0.495766
0.495766
0.495766
0.495766
0.495766
0.495766
0.495766
0.495766
0.495766
0.495766
0.495766
0.495766
0.495766
0.495766
0.495766
0.495766
0.495766
0.495766
0.495766
0.495766
0.495766
0.495766
0.495766
0.495766
0.495766
0.495766
0.495766
0.495766
0.495766
0.495766
0.495766
0.495766
0.495766
0.495766
0.495766
0.495766
0.495766
0.495766
0.495766
0.495766
0.495766
0.495766
0.495766
0.495766
0.495766
0.495766
0.495766
0.495766
0.495766
0.495766
0.495766
0.495766
0.495766
0.495766
0.495766
0.495766
0.495766
0.495766
0.495766
0.495766
0.495766
0.495766
0.495766
0.495766
0.495766
0.495766
0.495766
0.495766
0.495766
0.495766
0.495766
0.495766
0.495766
0.495766
0.495766
0.495766
0.495766
0.495766
0.495766
0.495766
0.495766
0.495766
0.495766
0.495766
0.495766
0.495766
0.495766
0.495766
0.495766
0.495766
0.495766
0.495766
0.495766
0.495766
0.495766
0.495766
0.495766
0.495766
0.495766
0.495766
0.495766
0.495766
0.495766
0.495766
0.495766
0.495766
0.495766
0.495766
0.495766
0.495766
0.495766
0.495766
0.495766
0.495766
0.495766
0.495766
0.495766
0.495766
0.495766
0.495766
0.495766
0.495766
0.495766
0.495766
0.495766
0.495766
0.495766
0.495766
0.495766
0.495766
0.495766
0.495766
0.495766
0.495766
0.495766
0.495766
0.495766
0.495766
0.495766
0.495766
0.495766
0.495766
0.495766
0.495766
0.495766
0.495766
0.495766
0.495766
0.495766
0.495766
0.495766
0.495766
0.495766
0.495766
0.495766
0.495766
0.495766
0.495766
0.495766
0.495766
0.495766
0.495766
0.495766
0.495766
0.495766
0.495766
0.495766
0.495766
0.495766
0.495766
0.495766
0.495766
0.495766
0.495766
0.495766
0.495766
0.495766
0.495766
0.495766
0.495766
0.495766
0.495766
0.495766
0.495766
0.495766
0.495766
0.495766
0.495766
0.495766
0.495766
0.495766
0.495766
0.495766
0.495766
0.495766
0.495766
0.495766
0.495766
0.495766
0.495766
0.495766
0.495766
0.495766
0.495766
0.495766
0.495766
0.495766
0.495766
0.495766
0.495766
0.495766
0.495766
0.495766
0.495766
0.495766
0.495766
0.495766
0.495766
0.495766
0.495766
0.495766
0.495766
0.495766
0.495766
0.495766
0.495766
0.495766
0.495766
0.495766
0.495766
0.495766
0.495766
0.495766
0.495766
0.495766
0.495766
0.495766
0.495766
0.495766
0.495766
0.495766
0.495766
0.495766
0.495766
0.495766
0.495766
0.495766
0.495766
0.495766
0.495766
0.495766
0.495766
0.495766
0.495766
0.495766
0.495766
0.495766
0.495766
0.495766
0.495766
0.495766
0.495766
0.495766
0.495766
0.495766
0.495766
0.495766
0.495766
0.495766
0.495766
0.495766
0.495766
0.495766
0.495766
0.495766
0.495766
0.495766
0.495766
0.495766
0.495766
0.495766
0.495766
0.495766
0.495766
0.495766
0.495766
0.495766
0.495766
0.495766
0.495766
0.495766
0.495766
0.495766
0.495766
0.495766
0.495766
0.495766
0.495766
0.495766
0.495766
0.495766