/*--------------------------------*- C++ -*----------------------------------*\
| =========                 |                                                 |
| \\      /  F ield         | OpenFOAM: The Open Source CFD Toolbox           |
|  \\    /   O peration     | Version:  v2012                                 |
|   \\  /    A nd           | Website:  www.openfoam.com                      |
|    \\/     M anipulation  |                                                 |
\*---------------------------------------------------------------------------*/
FoamFile
{
    version     2.0;
    format      ascii;
    class       volScalarField;
    location    "100/air";
    object      alphat;
}
// * * * * * * * * * * * * * * * * * * * * * * * * * * * * * * * * * * * * * //

dimensions      [1 -1 -1 0 0 0 0];


internalField   nonuniform List<scalar> 
287104
(
0.00647954
0.0060027
0.00563587
0.00534321
0.00510416
0.00490534
0.00473762
0.00459441
0.00447088
0.00436334
0.00426898
0.0041856
0.00411144
0.00404509
0.00398539
0.00393139
0.0038823
0.00383743
0.00379619
0.00375807
0.00372261
0.00368942
0.00365813
0.00362843
0.00360003
0.0035727
0.00354626
0.00352057
0.00349554
0.00347115
0.0034474
0.00342437
0.00340215
0.00338089
0.00336072
0.00334181
0.00332431
0.00330837
0.00329409
0.00328155
0.0032708
0.00326182
0.00325458
0.00324898
0.0032449
0.0032422
0.00324071
0.00324024
0.00324061
0.00324164
0.00324317
0.00324503
0.00324711
0.00324929
0.00325149
0.00325364
0.00325568
0.00325761
0.00325939
0.00326104
0.00326257
0.003264
0.00326536
0.00326669
0.00326802
0.0032694
0.00327086
0.00327246
0.00327422
0.00327618
0.00327838
0.00328083
0.00328355
0.00328656
0.00328988
0.0032935
0.0032974
0.00330157
0.003306
0.00331066
0.00331553
0.00332058
0.00332579
0.00333114
0.00333661
0.00334212
0.00334759
0.0033528
0.00335739
0.00335754
0.00647947
0.00600266
0.00563567
0.00534299
0.00510386
0.00490502
0.00473726
0.00459403
0.00447047
0.00436292
0.00426856
0.00418518
0.00411103
0.00404469
0.00398501
0.00393104
0.00388197
0.00383712
0.00379589
0.00375778
0.00372232
0.00368912
0.00365781
0.00362808
0.00359965
0.00357229
0.00354583
0.00352015
0.00349515
0.00347083
0.0034472
0.00342433
0.00340234
0.00338135
0.00336151
0.00334298
0.0033259
0.00331041
0.00329659
0.00328451
0.0032742
0.00326564
0.00325876
0.00325348
0.00324965
0.00324713
0.00324574
0.0032453
0.00324562
0.00324653
0.00324786
0.00324949
0.00325128
0.00325312
0.00325495
0.0032567
0.00325833
0.00325983
0.00326117
0.00326237
0.00326345
0.00326443
0.00326534
0.00326623
0.00326712
0.00326807
0.00326911
0.00327029
0.00327164
0.00327319
0.00327498
0.00327703
0.00327937
0.00328202
0.00328496
0.0032882
0.00329173
0.00329555
0.00329962
0.00330392
0.00330843
0.00331314
0.00331801
0.00332302
0.00332814
0.00333331
0.00333844
0.00334332
0.00334761
0.00334753
0.00647955
0.00600263
0.00563573
0.005343
0.00510389
0.00490502
0.00473725
0.00459401
0.00447043
0.00436287
0.00426851
0.00418513
0.00411099
0.00404467
0.00398501
0.00393107
0.00388202
0.0038372
0.003796
0.00375791
0.00372248
0.0036893
0.00365801
0.0036283
0.00359989
0.00357256
0.00354613
0.00352049
0.00349555
0.0034713
0.00344776
0.00342502
0.00340316
0.00338234
0.0033627
0.00334439
0.00332755
0.00331232
0.00329879
0.00328701
0.00327701
0.00326877
0.00326222
0.00325727
0.00325378
0.00325159
0.0032505
0.00325033
0.00325087
0.00325196
0.00325344
0.00325517
0.00325703
0.00325894
0.0032608
0.00326258
0.00326424
0.00326575
0.00326712
0.00326836
0.00326947
0.0032705
0.00327147
0.00327242
0.00327339
0.00327441
0.00327553
0.00327679
0.00327823
0.00327987
0.00328176
0.00328391
0.00328634
0.00328906
0.00329208
0.00329539
0.00329899
0.00330284
0.00330693
0.00331124
0.00331574
0.00332042
0.00332523
0.00333016
0.00333519
0.00334027
0.00334531
0.00335011
0.00335434
0.00335444
0.00647955
0.0060027
0.00563573
0.00534299
0.00510383
0.00490492
0.00473711
0.00459382
0.00447021
0.00436261
0.00426822
0.00418483
0.00411069
0.00404438
0.00398474
0.00393081
0.00388178
0.00383697
0.00379579
0.00375772
0.0037223
0.00368913
0.00365785
0.00362814
0.00359973
0.00357241
0.003546
0.00352037
0.00349545
0.00347124
0.00344776
0.00342509
0.00340333
0.00338262
0.00336311
0.00334496
0.00332831
0.00331328
0.00329996
0.00328843
0.00327869
0.00327072
0.00326448
0.00325988
0.00325674
0.00325488
0.00325409
0.00325418
0.00325493
0.00325618
0.00325777
0.00325957
0.00326148
0.00326342
0.00326533
0.00326717
0.00326891
0.00327055
0.00327208
0.0032735
0.00327483
0.00327609
0.00327732
0.00327854
0.00327979
0.00328111
0.00328255
0.00328413
0.0032859
0.00328787
0.00329009
0.00329257
0.00329532
0.00329836
0.00330169
0.00330529
0.00330916
0.00331326
0.00331759
0.00332211
0.00332679
0.00333161
0.00333655
0.00334161
0.00334676
0.00335197
0.00335715
0.00336215
0.00336661
0.00336734
0.00647961
0.00600273
0.00563577
0.00534301
0.00510382
0.00490488
0.00473702
0.00459369
0.00447003
0.0043624
0.00426798
0.00418458
0.00411043
0.00404413
0.0039845
0.00393059
0.00388159
0.00383681
0.00379565
0.0037576
0.0037222
0.00368904
0.00365777
0.00362808
0.00359969
0.00357239
0.00354599
0.00352039
0.00349552
0.00347136
0.00344794
0.00342534
0.00340368
0.0033831
0.00336374
0.00334575
0.00332929
0.00331447
0.0033014
0.00329012
0.00328068
0.00327311
0.00326728
0.00326307
0.0032603
0.00325876
0.00325824
0.00325854
0.00325947
0.00326085
0.00326255
0.00326444
0.00326641
0.0032684
0.00327034
0.0032722
0.00327396
0.0032756
0.00327714
0.00327858
0.00327995
0.00328129
0.00328261
0.00328395
0.00328536
0.00328685
0.00328848
0.00329026
0.00329223
0.00329441
0.00329684
0.00329951
0.00330245
0.00330565
0.00330912
0.00331283
0.00331678
0.00332095
0.00332531
0.00332982
0.00333448
0.00333925
0.00334413
0.00334911
0.00335418
0.00335931
0.00336442
0.00336938
0.00337387
0.003375
0.00647964
0.00600278
0.00563579
0.005343
0.00510377
0.00490477
0.00473686
0.00459347
0.00446975
0.00436207
0.00426762
0.00418421
0.00411008
0.00404381
0.00398421
0.00393034
0.00388136
0.00383659
0.00379545
0.00375741
0.00372201
0.00368885
0.00365758
0.00362789
0.0035995
0.0035722
0.00354581
0.00352024
0.0034954
0.00347128
0.00344793
0.00342543
0.00340388
0.00338342
0.00336422
0.00334641
0.00333015
0.00331556
0.00330273
0.00329174
0.00328267
0.00327543
0.00326993
0.00326603
0.00326353
0.00326221
0.00326188
0.00326232
0.00326336
0.00326483
0.00326658
0.00326851
0.0032705
0.0032725
0.00327444
0.0032763
0.00327804
0.00327967
0.00328119
0.00328261
0.00328397
0.00328529
0.0032866
0.00328793
0.00328933
0.00329082
0.00329245
0.00329424
0.00329622
0.00329843
0.00330089
0.00330361
0.0033066
0.00330986
0.00331339
0.00331718
0.00332122
0.00332548
0.00332992
0.00333451
0.00333922
0.00334403
0.00334895
0.00335396
0.00335905
0.00336423
0.00336942
0.0033745
0.00337915
0.00338078
0.00647968
0.00600281
0.00563581
0.00534299
0.00510371
0.00490465
0.00473666
0.00459317
0.00446934
0.00436154
0.004267
0.00418355
0.00410941
0.00404315
0.00398358
0.00392973
0.00388078
0.00383604
0.00379492
0.00375689
0.0037215
0.00368834
0.00365707
0.00362738
0.00359899
0.0035717
0.00354533
0.00351979
0.00349499
0.00347094
0.00344768
0.00342527
0.00340385
0.00338355
0.00336451
0.0033469
0.00333087
0.00331653
0.00330399
0.00329338
0.00328466
0.00327777
0.00327259
0.00326894
0.00326664
0.00326547
0.00326523
0.00326573
0.00326678
0.00326824
0.00326997
0.00327185
0.00327379
0.00327571
0.00327758
0.00327935
0.00328101
0.00328256
0.003284
0.00328535
0.00328663
0.00328788
0.00328913
0.00329041
0.00329177
0.00329323
0.00329484
0.00329662
0.00329861
0.00330083
0.00330331
0.00330606
0.0033091
0.00331242
0.00331604
0.00331993
0.00332408
0.00332846
0.00333303
0.00333775
0.00334257
0.00334748
0.00335247
0.00335755
0.00336273
0.003368
0.00337329
0.00337852
0.00338335
0.00338544
0.00647971
0.00600285
0.00563583
0.00534297
0.00510363
0.0049045
0.00473641
0.0045928
0.00446885
0.00436094
0.00426636
0.00418295
0.00410888
0.00404268
0.00398316
0.00392934
0.00388039
0.00383561
0.00379443
0.00375631
0.00372081
0.00368754
0.00365614
0.00362631
0.0035978
0.00357039
0.00354392
0.00351829
0.00349345
0.00346937
0.00344612
0.00342377
0.00340245
0.00338229
0.00336345
0.0033461
0.00333039
0.00331649
0.00330446
0.00329434
0.0032861
0.00327965
0.00327482
0.00327146
0.00326936
0.00326833
0.00326818
0.00326873
0.0032698
0.00327124
0.00327292
0.00327474
0.00327661
0.00327845
0.00328023
0.00328191
0.00328347
0.00328492
0.00328627
0.00328753
0.00328873
0.0032899
0.00329108
0.0032923
0.0032936
0.00329501
0.00329658
0.00329833
0.0033003
0.00330252
0.00330502
0.00330782
0.00331094
0.00331437
0.00331813
0.00332219
0.00332653
0.00333113
0.00333593
0.00334087
0.00334586
0.0033509
0.00335602
0.00336124
0.00336657
0.00337201
0.00337749
0.00338296
0.00338802
0.00339064
0.00647975
0.00600288
0.00563584
0.00534292
0.00510351
0.00490426
0.004736
0.00459216
0.00446785
0.00435949
0.00426508
0.00418253
0.00410963
0.00404456
0.00398588
0.00393248
0.00388354
0.00383838
0.0037965
0.00375745
0.00372087
0.00368643
0.00365385
0.00362287
0.00359327
0.00356486
0.00353752
0.00351114
0.00348568
0.00346113
0.00343755
0.003415
0.00339364
0.0033736
0.00335506
0.00333819
0.00332312
0.00330994
0.0032987
0.00328937
0.00328189
0.00327613
0.00327195
0.00326916
0.00326757
0.003267
0.00326726
0.00326818
0.00326962
0.00327143
0.00327349
0.00327569
0.00327795
0.00328019
0.00328237
0.00328445
0.00328642
0.00328827
0.00329
0.00329164
0.00329319
0.0032947
0.0032962
0.0032977
0.00329924
0.00330085
0.00330253
0.00330441
0.00330656
0.00330901
0.00331176
0.00331485
0.00331827
0.00332203
0.00332613
0.00333057
0.00333536
0.00334048
0.00334589
0.00335144
0.00335695
0.00336242
0.00336795
0.00337359
0.00337934
0.00338521
0.00339112
0.00339699
0.00340233
0.00340535
0.00647978
0.00600292
0.00563584
0.00534288
0.00510339
0.00490403
0.00473561
0.00459155
0.00446691
0.00435833
0.00432145
0.00430069
0.00427235
0.00423204
0.00418171
0.00412491
0.0040649
0.0040042
0.00394461
0.00388728
0.00383293
0.00378192
0.00373438
0.00369027
0.00364942
0.0036116
0.00357653
0.00354391
0.00351345
0.00348488
0.00345794
0.00343245
0.00340826
0.00338534
0.00336383
0.00334369
0.00332485
0.00330999
0.00329849
0.00328995
0.00328399
0.00328028
0.0032785
0.00327834
0.00327953
0.00328201
0.00328554
0.00328988
0.00329477
0.00329999
0.00330537
0.00331075
0.00331603
0.00332113
0.00332599
0.00333059
0.00333492
0.00333899
0.00334283
0.00334647
0.00334994
0.00335329
0.00335657
0.00335981
0.00336306
0.00336637
0.00336977
0.00337319
0.00337659
0.00337995
0.00338331
0.00338694
0.00339084
0.00339493
0.00339893
0.00340298
0.00340769
0.00341416
0.00342217
0.00343099
0.00343631
0.00344048
0.00344458
0.00344892
0.0034535
0.00345823
0.00346295
0.00346731
0.00347053
0.00347135
0.00647982
0.00600295
0.00563584
0.00534282
0.00510321
0.00490367
0.00473491
0.0045902
0.00446378
0.00436168
0.00767524
0.00839251
0.00837705
0.00811646
0.00778954
0.00746399
0.00716448
0.00689866
0.00666737
0.0064689
0.0063006
0.00615955
0.00604278
0.00594729
0.00587016
0.00580851
0.00575961
0.00572098
0.0056904
0.00566602
0.00564637
0.00563035
0.00561721
0.00560646
0.00559783
0.0055912
0.00558651
0.0055833
0.00558317
0.00558615
0.00559189
0.0055999
0.00560955
0.00562039
0.00563194
0.00564356
0.00565491
0.00566571
0.00567569
0.00568464
0.00569236
0.00569871
0.00570362
0.00570708
0.00570915
0.00570993
0.00570956
0.00570819
0.005706
0.00570317
0.00569994
0.00569649
0.00569307
0.00568992
0.00568725
0.00568532
0.00568433
0.00568454
0.00568606
0.00568919
0.00569393
0.00570024
0.00570824
0.00571804
0.00572989
0.00574409
0.00576117
0.00578161
0.00581038
0.0058624
0.00499416
0.00451579
0.00423592
0.00406329
0.00395155
0.00387602
0.00382263
0.00378314
0.00374875
0.00371961
0.00647985
0.00600298
0.00563585
0.00534278
0.0051031
0.00490345
0.00473453
0.00458961
0.00446289
0.00436048
0.00767597
0.00839506
0.00837789
0.00811303
0.00778032
0.00744803
0.0071413
0.0068681
0.00662955
0.00642413
0.0062494
0.00610263
0.005981
0.00588165
0.00580174
0.0057384
0.00568889
0.00565057
0.00562111
0.00559846
0.00558097
0.00556737
0.00555676
0.00554852
0.00554228
0.00553778
0.00553485
0.0055333
0.00553296
0.00553364
0.00553515
0.00553732
0.00554005
0.00554314
0.00554642
0.00554981
0.00555314
0.00555629
0.00555917
0.00556173
0.00556393
0.00556578
0.00556732
0.00556859
0.00556967
0.00557062
0.00557153
0.0055725
0.00557363
0.00557499
0.00557671
0.00557888
0.00558159
0.00558497
0.0055891
0.00559402
0.00559983
0.00560664
0.00561459
0.00562359
0.0056336
0.00564461
0.00565665
0.00566978
0.00568414
0.00569994
0.00571777
0.00573846
0.00576615
0.00581473
0.00497653
0.00451715
0.00425008
0.004086
0.0039796
0.00390702
0.00385486
0.00381524
0.00378021
0.00374954
0.00647989
0.00600302
0.00563586
0.00534274
0.00510299
0.00490322
0.00473414
0.00458899
0.00446191
0.00435902
0.00766942
0.00838915
0.00837368
0.00811039
0.0077788
0.0074471
0.00714046
0.00686696
0.00662785
0.00642177
0.00624642
0.00609921
0.00597745
0.00587839
0.00579925
0.00573723
0.00568956
0.0056536
0.00562692
0.00560739
0.00559325
0.00558314
0.00557606
0.00557132
0.00556845
0.00556714
0.00556713
0.0055682
0.00557008
0.00557254
0.00557536
0.00557834
0.00558134
0.00558468
0.00558802
0.00559093
0.00559316
0.00559462
0.00559534
0.00559546
0.00559511
0.00559447
0.0055937
0.00559295
0.00559235
0.00559202
0.00559207
0.00559256
0.0055936
0.00559523
0.00559753
0.00560055
0.00560435
0.00560892
0.00561431
0.00562051
0.00562752
0.00563534
0.00564398
0.00565344
0.00566377
0.00567502
0.0056873
0.00570076
0.00571564
0.00573237
0.00575188
0.00577571
0.00581014
0.00586193
0.00501364
0.0045484
0.00427748
0.00411066
0.00400224
0.00392814
0.00387482
0.00383436
0.00379887
0.0037645
0.00647992
0.00600305
0.00563588
0.00534273
0.00510292
0.00490309
0.00473392
0.00458866
0.00446147
0.00435847
0.00766778
0.00838789
0.0083729
0.00810987
0.00777831
0.00744645
0.00713952
0.00686566
0.00662619
0.00641978
0.00624416
0.00609679
0.00597499
0.00587605
0.00579721
0.00573568
0.0056887
0.00565362
0.00562802
0.00560976
0.00559706
0.00558854
0.00558318
0.00558026
0.00557927
0.00557984
0.00558166
0.00558442
0.00558779
0.0055915
0.00559587
0.00560052
0.00560491
0.00560864
0.00561162
0.00561371
0.00561483
0.00561503
0.00561444
0.00561324
0.00561162
0.00560978
0.00560791
0.00560615
0.00560466
0.00560353
0.00560287
0.00560275
0.00560323
0.00560436
0.00560618
0.00560871
0.00561202
0.00561614
0.0056211
0.00562689
0.00563352
0.00564101
0.00564939
0.00565869
0.00566894
0.0056802
0.00569257
0.00570621
0.00572137
0.00573848
0.00575844
0.00578273
0.00581755
0.00586941
0.00501867
0.00455207
0.00428044
0.00411328
0.00400473
0.00393064
0.00387743
0.00383721
0.0038022
0.00376891
0.00647995
0.00600309
0.00563591
0.00534273
0.00510289
0.004903
0.00473376
0.00458842
0.00446112
0.00435801
0.00766555
0.00838541
0.00837055
0.00810774
0.00777638
0.00744464
0.00713776
0.00686389
0.00662435
0.00641784
0.00624216
0.00609476
0.00597301
0.00587423
0.00579566
0.00573454
0.00568811
0.00565374
0.00562897
0.00561169
0.0056001
0.00559283
0.00558883
0.00558738
0.00558795
0.00559014
0.00559358
0.00559789
0.00560268
0.00560757
0.00561296
0.00561825
0.00562285
0.00562638
0.00562875
0.00562984
0.00562967
0.00562837
0.00562622
0.00562344
0.00562034
0.00561712
0.00561399
0.00561114
0.00560868
0.00560674
0.00560539
0.0056047
0.00560473
0.00560549
0.00560703
0.00560937
0.00561253
0.00561656
0.0056215
0.00562732
0.00563402
0.00564162
0.00565012
0.00565957
0.00566999
0.00568147
0.00569409
0.00570802
0.00572353
0.00574105
0.00576149
0.00578633
0.00582178
0.00587422
0.0050219
0.00455442
0.00428232
0.00411494
0.00400633
0.00393228
0.00387922
0.00383926
0.00380474
0.00377245
0.00647999
0.00600313
0.00563594
0.00534275
0.00510288
0.00490297
0.0047337
0.00458832
0.00446098
0.00435781
0.00766427
0.00838376
0.00836867
0.00810565
0.0077741
0.00744219
0.00713516
0.00686117
0.00662156
0.00641503
0.00623939
0.00609211
0.00597057
0.00587207
0.00579388
0.00573324
0.00568738
0.00565366
0.00562966
0.00561324
0.00560264
0.00559647
0.00559372
0.00559366
0.00559576
0.00559959
0.00560473
0.00561073
0.00561709
0.00562329
0.00562901
0.00563456
0.0056393
0.00564278
0.00564475
0.00564508
0.00564384
0.00564127
0.00563769
0.00563348
0.00562892
0.00562433
0.00561992
0.00561592
0.00561246
0.00560965
0.00560759
0.00560633
0.0056059
0.00560634
0.00560764
0.00560983
0.0056129
0.00561687
0.00562179
0.00562767
0.0056345
0.00564225
0.00565095
0.00566063
0.00567131
0.00568308
0.00569603
0.0057103
0.00572619
0.00574411
0.00576499
0.00579028
0.00582623
0.00587917
0.00502518
0.00455671
0.00428401
0.00411629
0.00400752
0.00393344
0.00388045
0.0038407
0.0038066
0.00377523
0.00648002
0.00600317
0.00563598
0.00534278
0.00510291
0.004903
0.00473373
0.00458836
0.00446103
0.00435789
0.00766405
0.00838309
0.00836743
0.00810382
0.0077717
0.00743929
0.00713184
0.00685756
0.00661777
0.00641123
0.00623571
0.0060887
0.00596756
0.00586959
0.00579205
0.00573214
0.00568707
0.0056542
0.00563109
0.00561559
0.00560598
0.00560088
0.00559932
0.00560059
0.00560419
0.00560967
0.00561659
0.00562442
0.00563254
0.00564023
0.00564685
0.00565186
0.00565557
0.00565835
0.00565957
0.00565885
0.00565626
0.00565218
0.00564704
0.0056413
0.00563532
0.00562945
0.00562396
0.00561905
0.00561487
0.00561153
0.0056091
0.00560762
0.00560709
0.00560754
0.00560895
0.00561131
0.00561462
0.00561886
0.00562405
0.00563021
0.00563737
0.00564548
0.00565453
0.00566454
0.00567557
0.00568765
0.00570091
0.00571548
0.00573162
0.00574976
0.00577084
0.00579632
0.00583248
0.00588569
0.00502939
0.00455943
0.00428576
0.00411742
0.00400825
0.00393395
0.00388089
0.00384122
0.00380746
0.00377688
0.00648006
0.00600322
0.00563603
0.00534283
0.00510296
0.00490306
0.00473381
0.00458846
0.00446117
0.00435802
0.00766296
0.00838081
0.00836417
0.00809992
0.00776745
0.00743494
0.00712761
0.00685358
0.00661421
0.00640821
0.0062334
0.00608728
0.00596723
0.00587056
0.00579449
0.00573617
0.00569277
0.00566157
0.00564008
0.00562615
0.00561802
0.00561436
0.00561421
0.00561688
0.00562186
0.00562868
0.00563681
0.0056456
0.00565422
0.00566177
0.00566743
0.00567065
0.0056713
0.00566972
0.00566625
0.00566234
0.00565799
0.00565297
0.00564734
0.0056413
0.00563514
0.0056291
0.00562347
0.00561846
0.00561423
0.00561092
0.00560858
0.00560729
0.00560705
0.00560785
0.00560969
0.00561254
0.00561636
0.00562115
0.00562688
0.00563357
0.00564124
0.00564988
0.00565949
0.00567004
0.00568158
0.00569416
0.00570787
0.00572285
0.00573936
0.00575784
0.00577919
0.00580496
0.00584149
0.00589529
0.00503548
0.00456307
0.00428761
0.00411791
0.00400773
0.00393267
0.00387909
0.00383912
0.00380538
0.0037753
0.00648009
0.00600327
0.00563609
0.0053429
0.00510307
0.00490321
0.00473406
0.00458888
0.00446186
0.0043591
0.00766713
0.00838372
0.00836502
0.00809883
0.00776491
0.00743162
0.00712437
0.00685147
0.0066144
0.00641205
0.00624229
0.00610261
0.00599021
0.00590211
0.00583514
0.00578604
0.00575159
0.00572877
0.00571488
0.0057077
0.00570547
0.00570686
0.00571093
0.00571696
0.00572436
0.00573249
0.0057405
0.00574735
0.00575171
0.00575214
0.00574746
0.00573726
0.0057222
0.00570403
0.00568597
0.0056681
0.00565112
0.00563568
0.0056222
0.00561159
0.00560364
0.00559755
0.00559286
0.00558938
0.00558703
0.00558579
0.00558567
0.00558665
0.00558871
0.00559181
0.00559591
0.00560096
0.00560693
0.00561376
0.00562144
0.00562996
0.00563944
0.00564987
0.0056612
0.00567346
0.00568664
0.00570073
0.00571575
0.00573184
0.00574921
0.00576827
0.00578988
0.00581559
0.00585177
0.00590562
0.00503954
0.0045611
0.00428037
0.00410633
0.00399272
0.00391509
0.00385967
0.00381855
0.00378432
0.00375452
0.00648013
0.00600331
0.00563614
0.00534298
0.00510317
0.00490336
0.00473429
0.00458923
0.0044624
0.00435979
0.00766257
0.00837628
0.00835891
0.00809704
0.00776935
0.0074467
0.00715593
0.00690592
0.00669796
0.00652996
0.00639823
0.0062983
0.00622532
0.00617444
0.00614103
0.00612093
0.00611058
0.00610709
0.00610825
0.00611247
0.00611868
0.00612621
0.00613462
0.00614361
0.00615278
0.00616147
0.00616855
0.00617219
0.00616966
0.00615733
0.0061312
0.00608806
0.00602693
0.00594826
0.00586207
0.0057799
0.00570941
0.00565315
0.00561097
0.00558144
0.00556241
0.00555252
0.00555116
0.00555505
0.00556161
0.00556933
0.00557753
0.00558597
0.00559458
0.00560343
0.0056126
0.00562217
0.00563219
0.00564272
0.00565381
0.00566556
0.00567708
0.00569093
0.00570704
0.00572522
0.00574512
0.00576624
0.00578819
0.00581096
0.00583482
0.00586022
0.00588818
0.00592055
0.00596398
0.00602478
0.00508108
0.00455411
0.00424218
0.00404822
0.00392235
0.00383769
0.00377888
0.00373691
0.00370404
0.00367751
0.00648016
0.00600336
0.00563621
0.00534307
0.00510332
0.00490364
0.00473484
0.00459035
0.00446524
0.00435608
0.00428218
0.0042191
0.00415455
0.00408702
0.00402433
0.00396602
0.00391182
0.00386153
0.00381491
0.00377171
0.00373166
0.00369448
0.00365987
0.00362757
0.00359731
0.00356889
0.0035421
0.00351683
0.003493
0.0034706
0.00344968
0.00343035
0.00341276
0.00339711
0.00338361
0.00337245
0.00336379
0.00335767
0.00335397
0.00335233
0.00335216
0.00335274
0.0033533
0.00335312
0.00336236
0.00338217
0.00340593
0.00342911
0.00344905
0.00346448
0.00347517
0.00348151
0.0034843
0.00348433
0.00348229
0.00347928
0.00347598
0.0034725
0.00346884
0.00346489
0.00346053
0.00345564
0.00345014
0.00344401
0.00343727
0.00342995
0.00342413
0.00342148
0.00342083
0.00342155
0.00342319
0.00342558
0.00342864
0.00343231
0.00343653
0.00344123
0.00344638
0.00345195
0.00345794
0.0034643
0.00346659
0.00346774
0.00346903
0.00347089
0.0034734
0.00347657
0.00348031
0.00348464
0.00348856
0.00349267
0.00648019
0.00600341
0.00563626
0.00534314
0.00510341
0.00490377
0.00473505
0.00459067
0.00446575
0.00435672
0.00426108
0.00417674
0.00410177
0.00403463
0.00397413
0.00391926
0.00386922
0.00382333
0.00378103
0.00374182
0.00370529
0.00367105
0.0036388
0.00360826
0.00357922
0.00355151
0.00352501
0.00349969
0.00347555
0.00345266
0.00343115
0.00341119
0.00339303
0.00337693
0.00336318
0.00335207
0.00334387
0.0033387
0.0033365
0.00333685
0.00333895
0.00334186
0.00334469
0.00334668
0.00334765
0.00334763
0.00334671
0.00334493
0.00334225
0.00333859
0.00333392
0.00332831
0.0033219
0.00331497
0.00330782
0.00330082
0.00329431
0.00328857
0.0032838
0.00328014
0.00327761
0.00327622
0.00327589
0.00327655
0.00327809
0.00328041
0.00328343
0.00328707
0.0032915
0.00329647
0.00330189
0.00330771
0.00331394
0.00332056
0.00332757
0.00333498
0.00334278
0.00335097
0.00335954
0.00336842
0.00337743
0.00338645
0.00339556
0.00340483
0.00341431
0.00342401
0.00343391
0.00344406
0.00345377
0.00346342
0.00648022
0.00600345
0.00563631
0.0053432
0.0051035
0.00490391
0.00473527
0.00459103
0.00446636
0.00435767
0.00426222
0.00417784
0.00410273
0.00403542
0.00397471
0.00391965
0.00386941
0.00382333
0.00378082
0.00374138
0.0037046
0.00367008
0.00363752
0.00360664
0.00357723
0.00354913
0.00352224
0.00349653
0.00347201
0.00344877
0.00342696
0.0034068
0.00338856
0.00337254
0.00335913
0.00334871
0.00334169
0.00333835
0.00333877
0.00334236
0.00334797
0.00335413
0.00335948
0.00336308
0.00336463
0.00336408
0.00336155
0.00335729
0.00335157
0.00334471
0.00333699
0.00332869
0.00332007
0.00331139
0.00330289
0.0032948
0.00328736
0.00328074
0.00327511
0.00327057
0.00326718
0.00326496
0.00326389
0.00326393
0.00326501
0.00326709
0.00327009
0.00327395
0.00327873
0.00328441
0.00329098
0.00329843
0.00330677
0.00331602
0.00332617
0.00333723
0.00334914
0.00336186
0.00337528
0.00338929
0.00340372
0.00341844
0.00343336
0.00344841
0.00346352
0.00347865
0.00349368
0.00350867
0.00352288
0.00353685
0.00648025
0.00600348
0.00563635
0.00534323
0.00510353
0.00490394
0.0047353
0.00459107
0.00446639
0.00435765
0.00426207
0.00417747
0.00410209
0.0040345
0.0039735
0.00391815
0.00386763
0.00382125
0.00377844
0.00373871
0.00370161
0.00366677
0.00363388
0.00360266
0.00357291
0.00354447
0.00351725
0.00349121
0.0034664
0.0034429
0.00342088
0.00340058
0.0033823
0.0033664
0.00335335
0.00334368
0.00333801
0.00333695
0.00334096
0.00334943
0.00336053
0.00337188
0.00338118
0.0033871
0.00338963
0.00338897
0.00338546
0.00337954
0.00337172
0.00336251
0.00335238
0.00334177
0.00333108
0.00332064
0.00331077
0.00330171
0.0032937
0.00328691
0.00328148
0.00327755
0.00327521
0.00327453
0.00327556
0.0032785
0.00328334
0.00329002
0.00329847
0.00330887
0.00332136
0.00333578
0.00335195
0.00336976
0.00338905
0.0034096
0.00343118
0.00345349
0.00347625
0.00349915
0.00352191
0.00354425
0.00356592
0.00358675
0.00360663
0.00362551
0.00364338
0.00366031
0.00367628
0.00369151
0.0037053
0.00371868
0.00648028
0.00600352
0.00563639
0.00534326
0.00510355
0.00490395
0.0047353
0.00459105
0.00446636
0.00435759
0.00426193
0.0041772
0.00410162
0.00403378
0.00397251
0.00391684
0.00386597
0.00381922
0.00377602
0.00373587
0.00369834
0.00366307
0.00362973
0.00359806
0.00356786
0.00353899
0.00351134
0.0034849
0.00345971
0.00343586
0.00341354
0.00339298
0.0033745
0.00335851
0.00334553
0.0033363
0.00333171
0.00333305
0.00334239
0.00336007
0.00338337
0.00340711
0.003426
0.00343747
0.00344274
0.00344342
0.00344022
0.00343397
0.00342556
0.00341579
0.00340545
0.0033952
0.00338568
0.00337742
0.00337089
0.00336647
0.00336452
0.00336529
0.00336901
0.00337585
0.00338574
0.00339961
0.00341711
0.0034378
0.00346117
0.00348673
0.00351397
0.00354317
0.00357328
0.00360367
0.00363387
0.00366343
0.00369195
0.0037191
0.00374462
0.00376833
0.00379014
0.00381001
0.00382798
0.00384412
0.00385854
0.00387138
0.0038828
0.00389301
0.00390218
0.00391053
0.00391817
0.0039254
0.00393161
0.00393821
0.00648032
0.00600357
0.00563643
0.00534329
0.00510355
0.00490391
0.00473522
0.00459091
0.00446614
0.00435725
0.00426143
0.00417649
0.00410067
0.00403254
0.00397095
0.00391493
0.00386369
0.00381655
0.00377293
0.00373234
0.00369435
0.0036586
0.00362478
0.00359262
0.00356192
0.00353255
0.00350442
0.00347751
0.00345187
0.00342759
0.00340484
0.00338387
0.00336499
0.00334863
0.00333535
0.00332609
0.00332207
0.00332616
0.00334925
0.00339967
0.00347181
0.00354631
0.00360583
0.00364585
0.00366639
0.00368292
0.00369628
0.00370711
0.00371595
0.00372329
0.00372963
0.00373556
0.00374171
0.00374872
0.00375718
0.00376758
0.00378035
0.00379536
0.00381459
0.0038369
0.00386126
0.00388678
0.00391273
0.00393852
0.00396367
0.00398779
0.00401057
0.00403133
0.00405051
0.00406792
0.00408343
0.00409699
0.0041086
0.00411833
0.00412626
0.00413253
0.00413729
0.00414072
0.00414299
0.00414428
0.00414476
0.00414459
0.00414395
0.00414299
0.00414185
0.0041407
0.00413958
0.0041388
0.00413763
0.00413777
0.00648037
0.00600362
0.00563647
0.00534331
0.00510354
0.00490386
0.00473511
0.00459073
0.00446586
0.00435686
0.00426089
0.00417576
0.0040997
0.0040313
0.00396939
0.00391302
0.00386138
0.0038138
0.00376971
0.0037286
0.00369007
0.00365375
0.00361932
0.00358655
0.00355524
0.00352526
0.00349652
0.00346902
0.00344279
0.00341792
0.00339458
0.00337299
0.00335341
0.00333625
0.00332195
0.00331161
0.00330664
0.00331476
0.00340312
0.00361571
0.00390568
0.00418074
0.00438931
0.0045344
0.00462532
0.00466886
0.0046906
0.00469323
0.00468099
0.00465866
0.00463085
0.00460153
0.00457377
0.00454994
0.00453124
0.00451963
0.00451307
0.00451006
0.00450946
0.00451034
0.00451197
0.00451378
0.00451533
0.00451628
0.00451639
0.0045155
0.00451349
0.00451008
0.00450501
0.00449886
0.00449172
0.00448363
0.00447468
0.00446497
0.00445465
0.00444385
0.00443271
0.00442137
0.00440997
0.00439863
0.00438747
0.00437658
0.00436608
0.00435604
0.00434656
0.00433771
0.0043295
0.00432219
0.00431499
0.00430986
0.00648042
0.00600368
0.00563652
0.00534333
0.00510352
0.00490378
0.00473496
0.00459049
0.00446551
0.00435636
0.00426021
0.00417486
0.00409854
0.00402984
0.00396758
0.00391082
0.00385875
0.00381069
0.00376606
0.00372438
0.00368522
0.00364823
0.00361311
0.00357962
0.00354757
0.00351685
0.00348739
0.00345916
0.0034322
0.00340661
0.00338252
0.00336015
0.00333973
0.0033216
0.00330599
0.00329407
0.0032869
0.00331043
0.00373328
0.00452348
0.0052849
0.00580478
0.00607671
0.00617944
0.00617232
0.00609834
0.00598268
0.00585518
0.00572941
0.00561415
0.00551476
0.00543527
0.00537241
0.00532116
0.00527813
0.00524093
0.00520778
0.00517736
0.00514874
0.00512125
0.0050944
0.00506789
0.0050415
0.00501511
0.00498863
0.00496205
0.00493538
0.00490864
0.00488188
0.00485492
0.00482787
0.00480101
0.00477453
0.00474851
0.00472305
0.00469823
0.00467415
0.00465086
0.00462846
0.00460698
0.0045865
0.00456703
0.00454863
0.00453132
0.00451511
0.00450006
0.00448611
0.00447351
0.0044614
0.00445198
0.00648047
0.00600374
0.00563657
0.00534335
0.00510349
0.00490369
0.00473479
0.00459022
0.00446512
0.00435581
0.00425948
0.0041739
0.00409732
0.0040283
0.00396568
0.0039085
0.00385595
0.00380735
0.00376212
0.00371976
0.00367987
0.00364207
0.0036061
0.00357171
0.00353876
0.00350712
0.00347674
0.00344761
0.00341974
0.00339322
0.00336818
0.00334484
0.0033234
0.00330412
0.00328682
0.00327234
0.00325971
0.00333677
0.0048062
0.00634245
0.0072951
0.0076977
0.0076992
0.00749053
0.00720047
0.00690208
0.00663421
0.00641101
0.00623944
0.00611914
0.00603888
0.00597918
0.00592902
0.00588256
0.00583687
0.0057907
0.00574359
0.00569557
0.00564681
0.00559757
0.00554813
0.00549875
0.00544964
0.00540099
0.00535299
0.00530576
0.00525942
0.00521407
0.0051698
0.00512669
0.0050848
0.00504409
0.00500457
0.00496632
0.00492952
0.00489421
0.00486042
0.00482817
0.00479747
0.00476835
0.0047408
0.0047148
0.00469035
0.00466745
0.00464605
0.00462619
0.00460776
0.00459102
0.00457507
0.00456233
0.00648051
0.00600379
0.0056366
0.00534335
0.00510345
0.00490358
0.0047346
0.00458991
0.00446467
0.0043552
0.00425867
0.00417285
0.00409597
0.00402661
0.00396359
0.00390595
0.00385286
0.00380365
0.00375772
0.00371458
0.00367381
0.00363506
0.00359806
0.0035626
0.00352853
0.00349578
0.0034643
0.00343408
0.00340512
0.00337749
0.00335138
0.00332711
0.00330509
0.00328597
0.00326988
0.00325815
0.00324846
0.00333124
0.00490255
0.00652038
0.00751167
0.00788545
0.00787443
0.00765468
0.00735399
0.00705165
0.00679022
0.00659055
0.00646291
0.00639073
0.00634722
0.0063147
0.00628291
0.00624675
0.00620444
0.00615594
0.0061021
0.00604404
0.00598295
0.00591988
0.00585574
0.00579127
0.00572706