/*--------------------------------*- C++ -*----------------------------------*\
| =========                 |                                                 |
| \\      /  F ield         | OpenFOAM: The Open Source CFD Toolbox           |
|  \\    /   O peration     | Version:  v2012                                 |
|   \\  /    A nd           | Website:  www.openfoam.com                      |
|    \\/     M anipulation  |                                                 |
\*---------------------------------------------------------------------------*/
FoamFile
{
    version     2.0;
    format      ascii;
    class       volScalarField;
    location    "100/air";
    object      epsilon;
}
// * * * * * * * * * * * * * * * * * * * * * * * * * * * * * * * * * * * * * //

dimensions      [0 2 -3 0 0 0 0];


internalField   nonuniform List<scalar> 
287104
(
0.0965017
0.0768968
0.0637638
0.0544285
0.0475145
0.0422314
0.0380918
0.0347797
0.0320824
0.0298519
0.0279828
0.0263982
0.0250406
0.0238666
0.0228424
0.0219418
0.0211436
0.0204307
0.0197891
0.019207
0.0186747
0.018184
0.0177278
0.0173006
0.0168975
0.016515
0.0161505
0.0158022
0.015469
0.015151
0.0148484
0.0145622
0.0142935
0.0140436
0.0138138
0.0136053
0.0134189
0.0132553
0.0131145
0.0129963
0.0129
0.0128244
0.012768
0.0127291
0.0127056
0.0126955
0.0126965
0.0127065
0.0127234
0.0127453
0.0127707
0.012798
0.0128261
0.0128542
0.0128814
0.0129073
0.0129316
0.0129543
0.0129754
0.0129952
0.0130139
0.013032
0.0130498
0.0130678
0.0130866
0.0131066
0.0131283
0.0131521
0.0131785
0.0132078
0.0132403
0.0132761
0.0133156
0.0133588
0.0134057
0.013456
0.0135096
0.0135664
0.013626
0.0136883
0.0137529
0.0138197
0.0138886
0.0139596
0.0140324
0.0141069
0.014182
0.0142552
0.0143219
0.0143371
0.096496
0.0768865
0.0637505
0.0544133
0.0474982
0.0422143
0.0380742
0.0347619
0.0320644
0.0298339
0.027965
0.0263805
0.0250233
0.0238496
0.0228259
0.0219256
0.0211278
0.0204151
0.0197735
0.0191914
0.0186589
0.0181677
0.0177112
0.0172834
0.01688
0.0164973
0.0161328
0.0157849
0.0154528
0.0151364
0.014836
0.0145527
0.0142874
0.0140416
0.0138163
0.0136127
0.0134314
0.0132729
0.0131371
0.0130237
0.0129317
0.0128598
0.0128066
0.0127701
0.0127483
0.012739
0.01274
0.0127491
0.0127645
0.0127842
0.0128067
0.0128306
0.0128549
0.0128786
0.0129011
0.0129221
0.0129414
0.0129589
0.0129747
0.0129892
0.0130025
0.0130152
0.0130277
0.0130405
0.013054
0.0130688
0.0130854
0.0131041
0.0131255
0.0131498
0.0131773
0.0132084
0.0132432
0.0132817
0.0133239
0.0133696
0.0134188
0.0134711
0.0135263
0.0135841
0.0136444
0.0137069
0.0137714
0.0138379
0.0139062
0.0139763
0.014047
0.0141159
0.0141786
0.0141911
0.0964935
0.076882
0.0637447
0.0544064
0.0474904
0.0422059
0.0380653
0.0347525
0.0320547
0.029824
0.027955
0.0263706
0.0250135
0.0238401
0.0228167
0.0219168
0.0211193
0.0204069
0.0197656
0.0191837
0.0186514
0.0181605
0.017704
0.0172765
0.0168732
0.0164908
0.0161268
0.0157795
0.0154482
0.0151328
0.0148337
0.014552
0.0142886
0.0140449
0.0138221
0.0136211
0.0134427
0.0132872
0.0131547
0.0130446
0.012956
0.0128877
0.012838
0.012805
0.0127865
0.0127802
0.0127838
0.012795
0.0128119
0.0128328
0.0128561
0.0128806
0.0129052
0.0129291
0.0129518
0.012973
0.0129923
0.0130099
0.013026
0.0130406
0.0130543
0.0130674
0.0130804
0.0130937
0.0131077
0.0131231
0.0131403
0.0131596
0.0131816
0.0132066
0.0132348
0.0132666
0.0133019
0.0133408
0.0133833
0.0134293
0.0134785
0.0135307
0.0135855
0.0136428
0.0137023
0.0137637
0.0138269
0.013892
0.0139588
0.0140273
0.0140965
0.0141641
0.0142258
0.0142404
0.0964912
0.0768772
0.0637379
0.054398
0.0474806
0.0421949
0.0380533
0.0347396
0.0320411
0.0298099
0.0279405
0.0263561
0.0249991
0.023826
0.0228029
0.0219033
0.0211061
0.020394
0.019753
0.0191713
0.0186391
0.0181482
0.0176918
0.0172643
0.016861
0.0164787
0.0161149
0.0157679
0.015437
0.0151222
0.014824
0.0145433
0.0142813
0.0140392
0.0138182
0.0136192
0.0134432
0.0132902
0.0131604
0.0130533
0.0129679
0.012903
0.0128569
0.0128275
0.0128124
0.012809
0.0128152
0.0128285
0.012847
0.012869
0.0128931
0.0129181
0.0129431
0.0129675
0.0129909
0.013013
0.0130336
0.0130528
0.0130707
0.0130876
0.0131036
0.0131193
0.013135
0.0131512
0.0131683
0.0131868
0.0132072
0.0132299
0.0132552
0.0132834
0.0133149
0.0133498
0.0133882
0.0134301
0.0134756
0.0135242
0.0135759
0.0136303
0.0136872
0.0137463
0.0138072
0.0138698
0.0139342
0.0140003
0.0140681
0.0141377
0.0142082
0.0142779
0.0143421
0.0143637
0.096489
0.0768729
0.063732
0.0543906
0.047472
0.0421852
0.0380425
0.0347279
0.0320285
0.0297966
0.0279268
0.0263423
0.0249854
0.0238125
0.0227898
0.0218907
0.0210938
0.0203821
0.0197414
0.01916
0.0186281
0.0181374
0.0176811
0.0172537
0.0168506
0.0164685
0.0161049
0.0157583
0.015428
0.0151139
0.0148166
0.014537
0.0142763
0.0140358
0.0138167
0.01362
0.0134463
0.0132962
0.0131694
0.0130657
0.0129843
0.0129237
0.0128816
0.0128558
0.0128439
0.0128432
0.0128515
0.0128665
0.0128863
0.0129094
0.0129342
0.0129598
0.0129852
0.0130097
0.0130331
0.0130551
0.0130756
0.0130948
0.0131127
0.0131298
0.0131464
0.0131629
0.0131796
0.013197
0.0132156
0.0132358
0.0132579
0.0132823
0.0133094
0.0133393
0.0133724
0.0134087
0.0134484
0.0134913
0.0135374
0.0135864
0.0136383
0.0136927
0.0137493
0.0138077
0.0138677
0.0139293
0.0139925
0.0140573
0.0141239
0.0141925
0.0142624
0.0143321
0.0143976
0.0144249
0.0964869
0.0768685
0.0637256
0.0543826
0.0474625
0.0421742
0.0380301
0.0347142
0.0320137
0.029781
0.0279109
0.0263265
0.0249702
0.0237979
0.0227759
0.0218773
0.021081
0.0203696
0.0197291
0.0191478
0.0186158
0.0181251
0.0176687
0.0172412
0.0168381
0.016456
0.0160926
0.0157463
0.0154165
0.0151032
0.0148069
0.0145286
0.0142694
0.0140306
0.0138135
0.013619
0.0134479
0.0133005
0.013177
0.0130768
0.0129991
0.0129418
0.0129029
0.0128799
0.0128703
0.0128715
0.0128813
0.0128975
0.0129182
0.0129419
0.0129671
0.0129929
0.0130182
0.0130427
0.0130658
0.0130875
0.0131076
0.0131263
0.0131438
0.0131604
0.0131765
0.0131925
0.0132088
0.0132258
0.013244
0.0132639
0.0132857
0.01331
0.013337
0.0133671
0.0134004
0.013437
0.013477
0.0135204
0.0135671
0.0136169
0.0136696
0.0137248
0.0137821
0.0138411
0.0139017
0.0139635
0.0140268
0.0140916
0.0141584
0.0142273
0.0142978
0.0143688
0.0144368
0.0144707
0.0964847
0.0768641
0.0637194
0.0543747
0.0474529
0.0421628
0.0380168
0.0346989
0.0319963
0.0297616
0.0278902
0.0263054
0.0249492
0.0237776
0.0227562
0.0218584
0.0210627
0.0203519
0.0197119
0.0191308
0.018599
0.0181084
0.0176521
0.0172246
0.0168216
0.0164397
0.0160765
0.0157307
0.0154016
0.0150892
0.014794
0.0145171
0.0142595
0.0140226
0.0138075
0.0136155
0.0134471
0.0133028
0.0131829
0.0130864
0.013012
0.0129578
0.0129214
0.0129005
0.0128924
0.0128947
0.0129051
0.0129216
0.0129424
0.0129658
0.0129905
0.0130156
0.0130402
0.0130637
0.0130859
0.0131065
0.0131256
0.0131432
0.0131597
0.0131753
0.0131904
0.0132055
0.013221
0.0132374
0.013255
0.0132744
0.013296
0.0133201
0.0133471
0.0133772
0.0134107
0.0134476
0.0134882
0.0135323
0.0135799
0.0136309
0.0136849
0.0137415
0.0138003
0.0138609
0.0139226
0.0139853
0.0140493
0.014115
0.0141825
0.0142522
0.0143238
0.0143964
0.0144667
0.0145064
0.0964826
0.0768598
0.0637131
0.0543665
0.0474428
0.0421507
0.0380025
0.0346822
0.0319773
0.0297409
0.0278692
0.0262855
0.024931
0.0237608
0.0227406
0.0218433
0.0210477
0.0203365
0.0196955
0.0191132
0.0185799
0.0180876
0.0176295
0.0172003
0.0167956
0.0164122
0.0160479
0.0157012
0.0153716
0.0150591
0.0147644
0.0144884
0.0142323
0.0139975
0.0137851
0.0135965
0.0134325
0.0132931
0.013178
0.0130863
0.0130162
0.0129657
0.0129323
0.0129136
0.0129071
0.0129106
0.0129217
0.0129385
0.0129593
0.0129824
0.0130067
0.0130311
0.0130549
0.0130776
0.0130987
0.0131183
0.0131363
0.0131528
0.0131683
0.0131829
0.013197
0.0132112
0.0132259
0.0132416
0.0132586
0.0132774
0.0132986
0.0133225
0.0133494
0.0133797
0.0134137
0.0134515
0.0134932
0.0135388
0.0135883
0.0136414
0.0136978
0.0137571
0.0138188
0.0138819
0.0139456
0.0140098
0.0140751
0.0141422
0.0142113
0.014283
0.0143567
0.014432
0.0145048
0.014551
0.0964805
0.0768554
0.0637066
0.0543579
0.0474317
0.0421367
0.0379847
0.0346595
0.0319477
0.0297031
0.0278359
0.0262694
0.0249367
0.0237861
0.0227794
0.0218884
0.0210919
0.0203738
0.0197213
0.0191245
0.0185748
0.0180655
0.0175906
0.0171455
0.0167263
0.01633
0.0159547
0.015599
0.0152625
0.0149451
0.0146475
0.0143705
0.0141156
0.0138838
0.0136766
0.0134947
0.0133385
0.0132075
0.0131011
0.0130177
0.0129554
0.0129121
0.0128854
0.0128728
0.012872
0.0128805
0.0128964
0.0129175
0.0129424
0.0129697
0.0129981
0.0130266
0.0130547
0.0130816
0.0131071
0.013131
0.0131533
0.0131741
0.0131937
0.0132122
0.01323
0.0132477
0.0132655
0.0132838
0.0133032
0.0133242
0.0133477
0.0133744
0.0134045
0.0134384
0.0134762
0.0135181
0.0135644
0.0136149
0.01367
0.0137294
0.0137931
0.0138604
0.0139305
0.0140015
0.0140712
0.0141403
0.01421
0.0142815
0.0143551
0.0144313
0.0145095
0.0145891
0.0146644
0.014716
0.0964785
0.0768511
0.0637002
0.0543493
0.0474207
0.0421229
0.0379673
0.0346377
0.0319196
0.0296713
0.0289456
0.0285515
0.0280117
0.0272467
0.0263057
0.0252662
0.0241957
0.0231422
0.0221361
0.0211943
0.0203244
0.0195278
0.0188025
0.0181438
0.0175464
0.0170042
0.0165116
0.0160631
0.0156541
0.0152801
0.0149378
0.0146241
0.014337
0.0140766
0.013842
0.0136315
0.0134428
0.0132844
0.0131714
0.0130961
0.0130518
0.013033
0.0130349
0.0130534
0.013085
0.0131279
0.0131801
0.0132393
0.013303
0.013369
0.0134354
0.0135009
0.0135643
0.013625
0.0136825
0.0137366
0.0137876
0.0138356
0.0138809
0.0139242
0.0139658
0.0140062
0.0140461
0.0140858
0.0141257
0.014166
0.0142063
0.0142467
0.0142877
0.0143303
0.0143765
0.0144273
0.014484
0.0145488
0.0146252
0.0147155
0.0148181
0.0149259
0.0150363
0.0151466
0.0152035
0.0152425
0.0152803
0.0153222
0.0153693
0.0154213
0.0154766
0.0155346
0.0155804
0.0156016
0.0964765
0.0768469
0.0636937
0.0543403
0.0474084
0.042106
0.0379427
0.0345995
0.0318447
0.0297326
0.162207
0.212385
0.211536
0.192687
0.170567
0.150254
0.133032
0.118878
0.107394
0.0981313
0.0906878
0.0847286
0.0799797
0.0762172
0.0732564
0.0709442
0.069153
0.0677769
0.0667294
0.0659405
0.0653552
0.0649307
0.0646353
0.0644456
0.0643452
0.0643218
0.0643667
0.0644591
0.0646163
0.0648533
0.0651653
0.0655394
0.065957
0.0664025
0.066861
0.0673145
0.0677478
0.0681489
0.068509
0.0688218
0.069083
0.0692903
0.0694439
0.0695458
0.0696
0.0696114
0.0695861
0.0695311
0.0694532
0.0693604
0.0692606
0.0691619
0.0690734
0.0690036
0.0689611
0.0689539
0.0689894
0.0690739
0.069214
0.0694136
0.0696743
0.0699998
0.070392
0.0708514
0.0713752
0.0719602
0.0726169
0.0733776
0.0744747
0.0764246
0.0472053
0.034851
0.02872
0.0253098
0.0232437
0.021906
0.0209878
0.020319
0.0197544
0.019268
0.0964745
0.0768428
0.0636876
0.054332
0.0473978
0.0420926
0.0379258
0.0345784
0.031818
0.0297003
0.162202
0.212501
0.211512
0.192356
0.169879
0.149216
0.131675
0.117241
0.105517
0.0960526
0.0884433
0.0823525
0.0775051
0.0736763
0.0706805
0.0683629
0.0665934
0.0652627
0.06428
0.0635706
0.0630746
0.0627448
0.0625448
0.0624473
0.0624322
0.0624843
0.0625911
0.0627403
0.0629201
0.0631198
0.0633297
0.0635416
0.0637529
0.0639572
0.0641504
0.0643314
0.064495
0.0646373
0.0647575
0.0648557
0.0649345
0.0649966
0.0650459
0.0650859
0.0651202
0.0651525
0.0651863
0.0652255
0.0652737
0.0653341
0.0654104
0.0655056
0.0656236
0.0657676
0.0659398
0.0661428
0.0663799
0.0666536
0.0669627
0.0673059
0.0676827
0.0680935
0.0685397
0.069024
0.0695519
0.0701339
0.0707944
0.071567
0.0726705
0.0745362
0.0466183
0.0347789
0.0289
0.0256258
0.0236326
0.02233
0.0214236
0.0207542
0.0201817
0.0196742
0.0964726
0.0768387
0.0636815
0.0543239
0.0473874
0.0420793
0.0379089
0.0345566
0.0317892
0.0296628
0.161739
0.21198
0.211112
0.192086
0.1697
0.149084
0.131556
0.117114
0.105371
0.0958839
0.088256
0.0821547
0.0773085
0.0734953
0.0705312
0.0682619
0.0665568
0.0653053
0.0644143
0.0638065
0.0634194
0.0632029
0.0631176
0.0631333
0.0632264
0.0633784
0.0635736
0.0637983
0.0640399
0.0642878
0.0645332
0.0647703
0.0649969
0.0652053
0.0653856
0.0655319
0.06564
0.0657096
0.0657447
0.0657526
0.0657413
0.0657191
0.0656925
0.0656679
0.06565
0.0656431
0.0656511
0.0656766
0.0657229
0.0657917
0.065885
0.0660052
0.0661541
0.0663323
0.0665399
0.066776
0.0670406
0.0673344
0.0676577
0.068011
0.0683961
0.0688155
0.0692725
0.0697732
0.0703274
0.0709519
0.0716825
0.0725791
0.0738845
0.0758605
0.0473497
0.0352719
0.0292766
0.0259374
0.0239042
0.0225754
0.021651
0.02097
0.020393
0.0198619
0.0964707
0.0768348
0.0636759
0.0543167
0.0473785
0.0420686
0.0378962
0.0345417
0.0317723
0.0296439
0.161587
0.211812
0.210972
0.191967
0.169588
0.148969
0.131431
0.116978
0.105225
0.0957308
0.0880984
0.0819967
0.0771545
0.0733502
0.0704003
0.0681509
0.0664717
0.065252
0.0643984
0.0638338
0.0634954
0.0633329
0.0633067
0.0633852
0.0635432
0.0637598
0.0640168
0.0642987
0.0645932
0.0648929
0.0651869
0.0654596
0.0656995
0.0658992
0.0660574
0.0661706
0.066237
0.06626
0.0662464
0.0662058
0.0661476
0.066081
0.0660135
0.0659514
0.0659
0.0658631
0.0658445
0.0658467
0.0658718
0.0659218
0.0659977
0.0661011
0.0662339
0.0663971
0.0665909
0.0668154
0.0670705
0.067357
0.0676757
0.0680276
0.0684141
0.0688374
0.0693013
0.0698118
0.070379
0.0710197
0.0717694
0.072686
0.07401
0.0759938
0.0474011
0.0352934
0.0292865
0.0259433
0.0239096
0.0225822
0.0216605
0.0209838
0.0204146
0.0198996
0.0964689
0.0768311
0.0636706
0.0543099
0.0473703
0.042059
0.0378849
0.0345288
0.0317574
0.029627
0.161398
0.211554
0.210715
0.191735
0.169384
0.148786
0.131263
0.11682
0.105072
0.0955821
0.0879534
0.0818563
0.0770208
0.073226
0.0702892
0.0680568
0.0663989
0.0652046
0.0643808
0.06385
0.0635495
0.0634295
0.0634503
0.0635801
0.0637927
0.0640656
0.0643786
0.064714
0.0650572
0.0653995
0.0657264
0.0660196
0.0662651
0.0664561
0.0665905
0.0666655
0.0666831
0.0666505
0.0665794
0.0664818
0.0663698
0.0662532
0.0661409
0.066039
0.0659528
0.0658867
0.0658431
0.0658251
0.0658338
0.0658708
0.065937
0.0660331
0.0661602
0.0663201
0.0665129
0.0667382
0.0669958
0.0672857
0.0676085
0.0679655
0.0683583
0.0687892
0.0692622
0.0697835
0.0703639
0.07102
0.071788
0.0727259
0.0740742
0.0760816
0.047433
0.0353051
0.0292904
0.0259446
0.0239108
0.0225848
0.0216659
0.0209935
0.0204318
0.0199315
0.0964671
0.0768275
0.0636656
0.0543038
0.0473632
0.0420509
0.0378761
0.034519
0.0317469
0.0296155
0.161271
0.211358
0.210494
0.191507
0.169157
0.148565
0.13105
0.116614
0.104876
0.0953954
0.0877773
0.0816918
0.0768694
0.0730895
0.0701697
0.0679569
0.0663213
0.0651522
0.0643565
0.0638569
0.0635911
0.0635098
0.063574
0.0637525
0.0640191
0.0643501
0.0647233
0.0651172
0.0655127
0.0658936
0.0662508
0.0665671
0.0668246
0.0670145
0.0671322
0.0671754
0.0671492
0.0670652
0.0669387
0.0667847
0.0666175
0.0664488
0.0662881
0.0661431
0.0660191
0.0659208
0.0658509
0.0658112
0.0658033
0.0658275
0.0658844
0.0659743
0.0660972
0.0662538
0.0664458
0.0666731
0.0669347
0.0672302
0.0675601
0.0679252
0.0683271
0.0687684
0.0692528
0.0697863
0.07038
0.0710508
0.0718345
0.0727894
0.0741568
0.0761839
0.0474709
0.0353178
0.0292919
0.025941
0.0239053
0.0225795
0.0216623
0.0209934
0.0204385
0.0199519
0.0964653
0.076824
0.0636609
0.0542983
0.0473571
0.0420445
0.0378695
0.0345126
0.0317407
0.0296096
0.16121
0.211238
0.210322
0.191298
0.168924
0.148318
0.130797
0.116364
0.104634
0.0951661
0.0875643
0.0814982
0.0766979
0.0729426
0.0700496
0.0678655
0.0662603
0.0651231
0.0643605
0.0638951
0.0636649
0.0636215
0.0637272
0.0639525
0.0642721
0.0646629
0.0651012
0.0655619
0.0660196
0.0664496
0.06683
0.0671493
0.0674083
0.0675927
0.0676873
0.0676888
0.0676066
0.06746
0.0672688
0.0670528
0.0668277
0.0666078
0.0664029
0.0662211
0.066068
0.065947
0.0658608
0.0658105
0.0657963
0.0658188
0.0658771
0.0659709
0.0661001
0.066264
0.0664632
0.066699
0.0669708
0.0672777
0.0676189
0.0679952
0.068408
0.0688599
0.0693548
0.0698984
0.070501
0.0711799
0.0719711
0.0729332
0.0743091
0.076348
0.0475344
0.0353397
0.0292938
0.0259324
0.0238912
0.022563
0.0216456
0.0209786
0.0204293
0.019955
0.0964636
0.0768207
0.0636565
0.0542932
0.0473517
0.042039
0.0378642
0.0345077
0.0317363
0.029605
0.161095
0.210996
0.209998
0.190943
0.16857
0.147985
0.130495
0.116097
0.104404
0.0949737
0.0874112
0.0813869
0.0766318
0.0729257
0.0700856
0.0679575
0.06641
0.0653307
0.0646244
0.0642128
0.0640331
0.064037
0.0641879
0.0644575
0.0648216
0.0652571
0.0657382
0.0662348
0.0667142
0.0671436
0.067493
0.0677436
0.0678909
0.0679496
0.0679423
0.0678817
0.067761
0.0675872
0.0673737
0.0671367
0.0668913
0.0666511
0.0664275
0.0662293
0.0660632
0.0659336
0.0658426
0.0657922
0.065782
0.0658116
0.0658804
0.065987
0.0661304
0.06631
0.066525
0.0667757
0.0670631
0.0673868
0.0677461
0.0681405
0.0685711
0.06904
0.0695507
0.0701093
0.0707258
0.0714169
0.0722191
0.0731931
0.0745855
0.0766509
0.0476606
0.0353892
0.0293026
0.0259167
0.0238596
0.0225208
0.0215969
0.0209269
0.0203793
0.0199137
0.0964619
0.0768175
0.0636525
0.0542888
0.0473476
0.042036
0.0378631
0.0345098
0.0317437
0.0296194
0.161312
0.211146
0.209983
0.190787
0.168327
0.147713
0.130248
0.115924
0.104351
0.0950848
0.0877283
0.0819472
0.0774658
0.0740545
0.0715196
0.0696955
0.0684403
0.0676333
0.0671738
0.0669801
0.0669881
0.0671493
0.0674276
0.0677943
0.0682235
0.0686872
0.0691505
0.0695687
0.0698903
0.0700628
0.0700455
0.0698261
0.0694306
0.0689361
0.0684195
0.0678906
0.0673786
0.066911
0.066512
0.0661858
0.0659153
0.0656887
0.0655023
0.0653563
0.0652517
0.06519
0.0651711
0.0651943
0.0652587
0.0653625
0.0655041
0.0656819
0.0658939
0.0661389
0.0664161
0.0667249
0.0670691
0.0674481
0.0678609
0.0683074
0.0687881
0.0693032
0.0698544
0.0704464
0.0710883
0.0717956
0.0726024
0.0735694
0.0749452
0.077011
0.047751
0.0353304
0.02915
0.0257002
0.0235988
0.0222296
0.0212861
0.0206057
0.0200573
0.0196009
0.0964603
0.0768143
0.0636485
0.0542846
0.0473436
0.0420327
0.0378615
0.0345105
0.0317481
0.0296262
0.160979
0.210519
0.209451
0.190586
0.168542
0.148537
0.131906
0.118625
0.108266
0.100333
0.0943704
0.0899847
0.086846
0.084679
0.0832564
0.0823929
0.0819404
0.0817839
0.0818375
0.0820388
0.0823451
0.0827283
0.0831695
0.0836528
0.0841585
0.084655
0.0850886
0.0853743
0.0853916
0.0849872
0.0840034
0.0823293
0.0799622
0.0770255
0.073931
0.0711279
0.068815
0.0670271
0.0657233
0.0648342
0.0642913
0.0640735
0.0640943
0.0642507
0.0644729
0.0647251
0.0649917
0.0652679
0.065554
0.0658532
0.0661681
0.0665012
0.0668539
0.0672277
0.0676232
0.0680425
0.0684879
0.0689444
0.0694772
0.070092
0.0707797
0.0715277
0.0723203
0.0731547
0.0740385
0.0749901
0.07605
0.0772942
0.0789919
0.0814092
0.0488409
0.0351596
0.0284047
0.0246671
0.0224201
0.0209844
0.0200223
0.0193542
0.0188452
0.0184517
0.0964587
0.0768114
0.063645
0.0542812
0.0473413
0.0420331
0.0378678
0.0345287
0.0318017
0.029543
0.0280812
0.0268738
0.0256729
0.0244515
0.0233529
0.0223607
0.0214635
0.0206519
0.019917
0.0192503
0.0186438
0.0180904
0.0175834
0.0171171
0.0166867
0.0162885
0.0159196
0.015578
0.0152625
0.0149729
0.0147095
0.014473
0.0142649
0.0140867
0.0139401
0.0138264
0.0137464
0.0136992
0.0136823
0.0136905
0.0137158
0.0137488
0.0137796
0.0137994
0.0139948
0.0143036
0.0146486
0.0149769
0.0152563
0.0154717
0.0156209
0.0157106
0.0157512
0.0157532
0.0157265
0.015688
0.0156453
0.0155999
0.0155515
0.0154986
0.0154395
0.015373
0.0152984
0.0152155
0.0151252
0.0150284
0.014926
0.0148706
0.0148436
0.0148364
0.0148435
0.0148617
0.0148904
0.0149283
0.0149744
0.0150279
0.0150882
0.0151548
0.0152276
0.0153057
0.0153297
0.0153387
0.0153502
0.0153699
0.0153994
0.0154394
0.0154887
0.0155482
0.0156051
0.0156709
0.0964572
0.0768085
0.0636413
0.0542773
0.0473376
0.0420302
0.0378663
0.0345294
0.0318059
0.0295495
0.0276604
0.0260629
0.024696
0.0235131
0.0224797
0.0215689
0.0207594
0.0200343
0.01938
0.018785
0.0182401
0.0177372
0.0172702
0.0168341
0.0164252
0.016041
0.0156798
0.0153412
0.0150252
0.0147326
0.0144648
0.0142236
0.0140113
0.0138302
0.0136828
0.0135716
0.0134984
0.0134635
0.0134652
0.0134972
0.0135494
0.0136099
0.0136669
0.0137113
0.0137415
0.0137578
0.0137611
0.0137514
0.013728
0.0136899
0.0136372
0.013571
0.0134938
0.0134095
0.0133222
0.0132369
0.013158
0.0130888
0.0130319
0.0129885
0.0129591
0.0129432
0.0129401
0.0129485
0.0129673
0.0129952
0.0130312
0.0130745
0.0131259
0.0131843
0.0132485
0.0133179
0.0133922
0.0134714
0.0135554
0.0136444
0.0137383
0.0138371
0.0139407
0.0140482
0.0141574
0.0142672
0.0143788
0.0144934
0.0146117
0.0147346
0.0148619
0.014995
0.0151251
0.0152603
0.0964557
0.0768058
0.0636379
0.0542736
0.0473342
0.0420276
0.0378654
0.0345314
0.0318127
0.0295622
0.027676
0.0260772
0.0247068
0.0235201
0.0224829
0.0215684
0.0207554
0.020027
0.0193693
0.018771
0.0182225
0.0177159
0.0172448
0.0168043
0.0163908
0.0160019
0.0156361
0.0152929
0.0149728
0.0146767
0.0144063
0.0141638
0.0139518
0.0137731
0.0136312
0.0135296
0.0134718
0.0134601
0.0134943
0.0135665
0.0136619
0.0137624
0.0138506
0.0139149
0.0139513
0.0139591
0.0139397
0.0138961
0.0138322
0.013752
0.0136596
0.0135588
0.0134533
0.0133467
0.0132422
0.013143
0.0130518
0.0129711
0.0129027
0.0128479
0.0128072
0.0127807
0.0127681
0.0127689
0.0127822
0.0128074
0.0128437
0.0128904
0.012948
0.0130166
0.0130961
0.0131864
0.0132877
0.0134004
0.0135244
0.0136597
0.0138059
0.0139622
0.0141278
0.0143012
0.0144807
0.0146646
0.0148524
0.0150434
0.0152374
0.0154342
0.0156328
0.0158343
0.016029
0.0162273
0.0964543
0.076803
0.0636341
0.0542691
0.0473293
0.0420224
0.0378601
0.034526
0.0318071
0.0295556
0.0276668
0.0260638
0.0246888
0.0234975
0.0224557
0.0215369
0.0207198
0.0199873
0.0193258
0.0187236
0.0181712
0.0176608
0.017186
0.0167417
0.0163245
0.0159318
0.0155625
0.0152162
0.0148932
0.0145948
0.0143229
0.0140797
0.0138684
0.0136924
0.013556
0.0134648
0.0134245
0.0134413
0.01352
0.0136519
0.0138149
0.013979
0.0141157
0.0142078
0.0142557
0.0142608
0.0142274
0.0141614
0.0140697
0.0139589
0.0138355
0.0137055
0.0135741
0.0134459
0.0133249
0.0132142
0.0131166
0.0130344
0.0129692
0.0129226
0.0128957
0.0128895
0.0129052
0.0129436
0.0130042
0.0130865
0.0131901
0.0133164
0.013469
0.0136464
0.0138471
0.0140703
0.0143141
0.0145762
0.0148536
0.0151428
0.0154402
0.0157417
0.0160436
0.0163425
0.016635
0.0169187
0.0171921
0.0174548
0.0177068
0.0179492
0.0181821
0.0184082
0.0186176
0.0188277
0.0964527
0.0767998
0.0636297
0.0542639
0.0473233
0.0420159
0.0378532
0.0345188
0.0317994
0.0295472
0.0276569
0.0260515
0.024673
0.0234777
0.0224315
0.0215078
0.0206855
0.0199477
0.0192806
0.0186728
0.0181149
0.0175991
0.0171189
0.0166695
0.0162472
0.0158498
0.0154761
0.0151257
0.014799
0.0144974
0.0142228
0.0139776
0.013765
0.013589
0.0134548
0.01337
0.0133442
0.0133909
0.0135347
0.0137791
0.0140916
0.0144085
0.0146628
0.0148205
0.0149019
0.014921
0.0148873
0.0148122
0.0147073
0.014584
0.0144526
0.0143225
0.014202
0.0140979
0.0140165
0.0139628
0.0139411
0.0139552
0.0140083
0.0141033
0.0142447
0.0144358
0.0146731
0.0149521
0.0152679
0.0156153
0.015989
0.0163898
0.0168093
0.0172384
0.0176705
0.0180983
0.018515
0.018915
0.0192937
0.0196477
0.0199752
0.0202751
0.0205476
0.0207937
0.0210149
0.0212132
0.0213915
0.0215528
0.0217002
0.0218374
0.0219664
0.022092
0.0222037
0.0223279
0.0964509
0.0767961
0.0636245
0.0542573
0.0473156
0.042007
0.0378431
0.0345073
0.0317862
0.0295319
0.0276388
0.0260297
0.0246472
0.0234474
0.0223964
0.0214677
0.0206402
0.0198969
0.0192242
0.0186107
0.018047
0.0175253
0.0170394
0.0165843
0.0161566
0.0157539
0.0153752
0.0150201
0.0146891
0.0143834
0.0141048
0.0138559
0.0136398
0.0134606
0.0133239
0.0132401
0.0132225
0.0133035
0.013615
0.0142656
0.0152065
0.0162034
0.0170159
0.0175628
0.0178649
0.0181083
0.0183051
0.0184657
0.0185986
0.0187123
0.0188152
0.0189168
0.0190268
0.0191552
0.0193107
0.0195011
0.0197337
0.020018
0.0203615
0.0207487
0.0211654
0.0215995
0.0220406
0.0224797
0.0229092
0.0233225
0.0237143
0.0240721
0.0244026
0.024702
0.0249677
0.0251984
0.0253942
0.0255561
0.025686
0.0257866
0.0258609
0.0259121
0.0259435
0.0259587
0.0259607
0.0259527
0.0259379
0.0259193
0.0258999
0.0258828
0.025869
0.0258638
0.0258534
0.0258728
0.0964488
0.0767917
0.0636183
0.0542496
0.0473064
0.0419964
0.037831
0.0344935
0.0317706
0.0295141
0.0276183
0.026006
0.0246197
0.0234156
0.0223599
0.0214261
0.020593
0.0198438
0.0191647
0.0185444
0.0179736
0.0174448
0.0169517
0.0164896
0.016055
0.0156457
0.0152605
0.0148994
0.0145627
0.0142513
0.0139671
0.0137121
0.013489
0.0133016
0.0131543
0.0130593
0.0130321
0.0131626
0.0142866
0.0171681
0.0216378
0.0264983
0.0305996
0.0336656
0.035631
0.0366756
0.0372172
0.0373085
0.0370511
0.0365654
0.0359649
0.0353433
0.0347729
0.0342979
0.0339598
0.0337567
0.0336481
0.0336045
0.0336031
0.0336259
0.0336587
0.0336902
0.033712
0.0337175
0.0337022
0.0336631
0.0335984
0.0335067
0.0333771
0.0332215
0.0330456
0.0328509
0.0326398
0.0324154
0.0321808
0.0319393
0.031694
0.0314479
0.0312036
0.0309638
0.0307305
0.0305057
0.0302913
0.0300891
0.0299007
0.0297282
0.0295712
0.0294348
0.0293023
0.0292171
0.0964464
0.0767868
0.0636114
0.0542409
0.047296
0.0419843
0.037817
0.0344775
0.0317523
0.0294931
0.0275942
0.0259783
0.0245878
0.0233791
0.0223184
0.021379
0.0205401
0.0197844
0.0190983
0.0184705
0.0178918
0.0173547
0.0168533
0.0163828
0.0159399
0.0155226
0.0151298
0.0147612
0.0144172
0.0140988
0.0138074
0.013545
0.0133137
0.0131166
0.0129556
0.0128439
0.0127934
0.0131137
0.0189335
0.0337726
0.0538252
0.0712223
0.081581
0.0856912
0.0853132
0.0821502
0.0775772
0.072764
0.068247
0.0643152
0.0610647
0.0585978
0.0566632
0.055096
0.0537855
0.0526542
0.0516467
0.0507244
0.0498597
0.0490341
0.0482348
0.0474535
0.0466851
0.0459262
0.0451755
0.0444326
0.0436978
0.0429721
0.0422569
0.0415494
0.0408498
0.0401646
0.0394992
0.038855
0.0382339
0.0376371
0.037066
0.0365213
0.0360038
0.0355139
0.0350518
0.0346177
0.0342116
0.0338337
0.0334841
0.0331636
0.0328704
0.0326097
0.0323614
0.0321778
0.096444
0.076782
0.0636045
0.0542321
0.0472854
0.0419718
0.0378026
0.0344609
0.0317333
0.0294714
0.0275692
0.0259496
0.0245549
0.0233414
0.0222754
0.0213302
0.0204847
0.0197219
0.0190279
0.0183915
0.0178036
0.0172566
0.0167448
0.0162639
0.0158108
0.0153835
0.014981
0.0146031
0.01425
0.0139224
0.0136218
0.0133501
0.0131089
0.0129006
0.0127222
0.0125834
0.0124724
0.0134511
0.0406605
0.0933408
0.141779
0.166391
0.166345
0.153101
0.135973
0.119795
0.106439
0.0962236
0.0889139
0.084128
0.0809486
0.0785613
0.0765381
0.0746635
0.0728381
0.0710222
0.0692062
0.0673946
0.0655964
0.0638224
0.0620822
0.0603836
0.0587329
0.0571348
0.0555924
0.0541079
0.0526824
0.0513166
0.0500105
0.048764
0.0475764
0.0464449
0.0453667
0.0443426
0.043374
0.0424602
0.0415999
0.0407914
0.0400332
0.0393237
0.0386609
0.0380433
0.0374693
0.0369375
0.0364466
0.0359965
0.0355841
0.0352144
0.0348653
0.0345965
0.096442
0.0767776
0.0635982
0.054224
0.0472754
0.04196
0.0377887
0.0344448
0.0317146
0.0294496
0.0275441
0.0259205
0.0245213
0.0233026
0.0222307
0.0212789
0.0204262
0.0196554
0.0189525
0.0183062
0.0177073
0.0171487
0.0166246
0.0161312
0.0156656
0.0152262
0.0148122
0.0144233
0.0140593
0.013721
0.0134101
0.01313
0.0128847
0.012681
0.0125197
0.0124155
0.0123417
0.0133871
0.0431408
0.101309
0.154542
0.178536
0.177768
0.163351
0.144979
0.12804
0.114631
0.105182
0.0996095
0.0964746
0.0945038
0.0929329
0.0913494
0.0895715
0.0875533
0.0853191
0.0829222
0.0804227
0.0778755
0.0753267
0.0728121
0.0703581
0.0679836
0.0657009
0.0635175
0.0614376
0.0594623
0.057591
0.055822
0.0541525
0.0525793
0.0510988
0.0497075
0.0484015
0.0471753
0.0460257
0.0449493
0.043943
0.0430038
0.0421287
0.0413144
0.0405577
0.0398561
0.039207
0.0386081
0.0380586
0.0375547
0.0371012
0.0366747
0.0363407
0.0964404
0.0767743
0.0635932
0.0542174
0.0472672
0.0419498
0.0377766
0.0344303
0.0316974
0.0294294
0.0275203
0.0258926
0.0244887
0.0232645
0.0221863
0.0212273
0.0203664
0.0195864
0.0188732
0.0182153
0.0176037
0.017031
0.0164921
0.0159833
0.0155023
0.0150483
0.0146208
0.014219
0.0138422
0.0134909
0.0131674
0.0128783
0.0126341
0.012456
0.0123633
0.0124002
0.0124884
0.0134957
0.0409928
0.0970633
0.149998
0.174441
0.174572
0.161226
0.143981
0.12814
0.115673
0.107085
0.102503
0.100267
0.0991894
0.0984573
0.0975787
0.0963158
0.094606
0.0924874
0.0900445
0.0873745
0.0845681
0.0817018
0.0788363
0.0760168
0.0732758
0.0706352
0.0681088
0.0657044
0.0634251
0.0612713
0.0592409
0.0573305
0.0555359
0.0538524
0.0522747
0.0507981
0.0494171
0.0481268
0.0469224
0.045799
0.044752
0.0437771
0.0428704
0.0420283
0.0412475
0.0405251
0.0398584
0.0392461
0.0386839
0.0381772
0.0377013
0.0373262
0.0964395
0.0767722
0.0635899
0.0542127
0.047261
0.0419419
0.0377666
0.034418
0.0316824
0.0294113
0.0274985
0.0258666
0.0244577
0.0232277
0.0221427
0.0211759
0.0203059
0.0195154
0.0187903
0.018119
0.0174923
0.016903
0.0163463
0.0158189
0.0153197
0.0148485
0.0144055
0.0139897
0.013599
0.013233
0.0128952
0.0125994
0.0123713
0.0122713
0.0123815
0.0128384
0.0133362
0.0143125
0.0355353
0.0823684
0.129549
0.153104
0.153643
0.14305
0.129814
0.118191
0.108652
0.10152
0.0972771
0.0951519
0.09432
0.0940981
0.0939517
0.0935281
0.092652
0.0912856
0.0894758
0.0873111
0.0848905
0.0823069
0.0796395
0.0769511
0.0742897
0.0716899
0.0691756
0.0667627
0.0644603
0.062273
0.0602024
0.0582475
0.0564058
0.054674
0.0530479
0.051523
0.0500947
0.0487583
0.0475091
0.0463426
0.0452544
0.0442405
0.043297
0.04242
0.0416065
0.0408534
0.0401579
0.0395189
0.0389321
0.0384027
0.037906
0.0375135
0.0964392
0.0767714
0.0635882
0.05421
0.0472569
0.0419362
0.037759
0.0344081
0.0316699
0.0293956
0.0274792
0.025843
0.024429
0.0231931
0.022101
0.0211257
0.0202458
0.0194437
0.018705
0.0180181
0.0173736
0.0167644
0.0161859
0.0156359
0.0151143
0.0146224
0.0141625
0.0137328
0.0133292
0.0129507
0.0126043
0.0123194
0.0121602
0.0122877
0.0129723
0.014551
0.0158906
0.0167059
0.0177672
0.020648
0.0270864
0.0362627
0.0456154
0.0535984
0.0597288
0.0646177
0.0683485
0.0712277
0.0733529
0.0750288
0.076575
0.0781298
0.0796131
0.0808277
0.081586
0.0817825
0.0814028
0.080501
0.0791663
0.0774999
0.0755978
0.0735428
0.0714031
0.0692318
0.0670691
0.0649442
0.0628777
0.0608838
0.0589713
0.0571457
0.0554096
0.0537636
0.052207
0.0507383
0.0493552
0.0480547
0.0468341
0.04569
0.0446194
0.0436191
0.0426861