/*--------------------------------*- C++ -*----------------------------------*\
| =========                 |                                                 |
| \\      /  F ield         | OpenFOAM: The Open Source CFD Toolbox           |
|  \\    /   O peration     | Version:  v2012                                 |
|   \\  /    A nd           | Website:  www.openfoam.com                      |
|    \\/     M anipulation  |                                                 |
\*---------------------------------------------------------------------------*/
FoamFile
{
    version     2.0;
    format      ascii;
    class       volScalarField;
    location    "100/air";
    object      GLeaf;
}
// * * * * * * * * * * * * * * * * * * * * * * * * * * * * * * * * * * * * * //

dimensions      [1 0 -3 0 0 0 0];


internalField   nonuniform List<scalar> 
287104
(
624.313
643.257
633.527
617.267
601.438
589.391
581.513
576.836
574.254
572.909
572.204
571.768
571.404
571.021
570.579
570.056
569.435
568.697
567.818
566.768
565.512
564.017
562.262
560.256
558.048
555.731
553.443
551.33
549.513
548.051
546.923
546.047
545.324
544.671
544.038
543.41
542.794
542.192
541.577
540.946
540.32
539.707
539.139
538.646
538.204
537.809
537.474
537.189
536.964
536.815
536.767
536.843
537.064
537.449
538.014
538.77
539.724
540.872
542.202
543.694
545.32
547.048
548.843
550.672
552.512
554.357
556.217
558.124
560.116
562.222
564.446
566.739
568.995
571.057
572.756
573.967
574.667
574.98
575.194
575.727
577.085
579.859
584.809
592.939
605.157
621.041
637.316
649.289
656.892
651.11
631.324
652.258
641.76
624.446
607.701
594.975
586.635
581.64
578.82
577.272
576.378
575.754
575.196
574.609
573.954
573.211
572.367
571.408
570.314
569.059
567.609
565.927
563.994
561.813
559.43
556.936
554.464
552.175
550.211
548.66
547.512
546.67
545.989
545.336
544.63
543.865
543.098
542.373
541.646
540.898
540.156
539.427
538.761
538.204
537.689
537.188
536.727
536.311
535.969
535.737
535.638
535.678
535.858
536.189
536.687
537.374
538.261
539.35
540.628
542.073
543.658
545.349
547.109
548.906
550.717
552.535
554.371
556.254
558.222
560.302
562.494
564.751
566.969
568.998
570.674
571.871
572.56
572.866
573.07
573.591
574.94
577.726
582.748
591.066
603.669
620.19
637.29
650.129
658.741
652.984
619.148
639.37
628.619
611.153
594.302
581.479
573.044
567.961
565.059
563.436
562.473
561.786
561.171
560.532
559.829
559.04
558.152
557.151
556.019
554.729
553.245
551.532
549.567
547.359
544.955
542.448
539.963
537.648
535.646
534.056
532.9
532.104
531.519
530.976
530.349
529.605
528.824
528.09
527.363
526.612
525.87
525.141
524.485
523.956
523.448
522.915
522.412
521.965
521.631
521.451
521.43
521.546
521.784
522.147
522.66
523.355
524.251
525.351
526.644
528.105
529.707
531.415
533.194
535.013
536.848
538.692
540.556
542.468
544.462
546.564
548.777
551.055
553.303
555.373
557.101
558.36
559.117
559.49
559.755
560.326
561.717
564.542
569.6
577.947
590.561
607.055
624.084
636.891
645.681
640.449
607.087
626.592
615.741
598.227
581.328
568.454
559.968
554.837
551.895
550.238
549.245
548.538
547.907
547.257
546.544
545.746
544.848
543.837
542.697
541.402
539.916
538.199
536.23
534.022
531.635
529.172
526.756
524.513
522.552
520.959
519.777
518.976
518.445
518.015
517.515
516.853
516.097
515.369
514.646
513.901
513.174
512.465
511.834
511.335
510.839
510.28
509.751
509.314
509.044
508.967
509.058
509.267
509.565
509.96
510.492
511.207
512.128
513.26
514.589
516.09
517.735
519.488
521.315
523.185
525.074
526.975
528.897
530.863
532.908
535.061
537.329
539.671
541.994
544.152
545.979
547.344
548.206
548.676
549.028
549.681
551.152
554.055
559.184
567.587
580.222
596.684
613.631
626.353
635.061
629.764
595.745
614.666
603.763
586.22
569.283
556.365
547.836
542.671
539.7
538.022
537.014
536.299
535.667
535.019
534.31
533.513
532.615
531.601
530.458
529.163
527.679
525.962
523.989
521.78
519.416
517.031
514.763
512.713
510.926
509.416
508.197
507.291
506.676
506.255
505.858
505.326
504.648
503.943
503.221
502.488
501.793
501.15
500.591
500.123
499.622
499.041
498.517
498.143
497.988
498.048
498.264
498.57
498.94
499.395
499.981
500.743
501.71
502.886
504.26
505.808
507.5
509.304
511.186
513.115
515.067
517.032
519.017
521.046
523.155
525.376
527.721
530.157
532.589
534.869
536.823
538.31
539.284
539.853
540.295
541.032
542.584
545.561
550.749
559.182
571.804
588.203
605.044
617.623
626.044
620.394
584.789
603.199
592.261
574.696
557.728
544.775
536.215
531.026
528.04
526.352
525.346
524.632
524.006
523.365
522.664
521.875
520.982
519.971
518.829
517.533
516.047
514.327
512.342
510.118
507.764
505.463
503.405
501.689
500.277
499.037
497.87
496.788
495.892
495.259
494.829
494.412
493.86
493.194
492.465
491.74
491.098
490.557
490.053
489.544
489.002
488.427
487.967
487.71
487.68
487.833
488.097
488.429
488.826
489.319
489.954
490.767
491.783
493.008
494.43
496.027
497.771
499.629
501.565
503.548
505.551
507.562
509.587
511.652
513.8
516.069
518.476
520.989
523.511
525.888
527.936
529.507
530.554
531.185
531.683
532.472
534.066
537.071
542.261
550.663
563.216
579.52
596.266
608.745
616.897
611.047
574.069
591.999
581.032
563.447
546.449
533.458
524.863
519.65
516.657
514.973
513.999
513.292
512.671
512.036
511.342
510.564
509.681
508.68
507.543
506.247
504.757
503.028
501.024
498.769
496.395
494.153
492.323
491.06
490.258
489.587
488.701
487.489
486.137
484.988
484.256
483.841
483.427
482.822
482.091
481.413
480.858
480.443
480
479.407
478.848
478.392
478.109
478.023
478.079
478.212
478.4
478.664
479.045
479.568
480.25
481.108
482.158
483.409
484.858
486.484
488.259
490.149
492.116
494.125
496.149
498.174
500.211
502.293
504.468
506.78
509.247
511.831
514.429
516.878
518.992
520.622
521.721
522.399
522.936
523.751
525.345
528.323
533.454
541.762
554.201
570.394
587.051
599.456
607.435
601.623
563.529
580.992
570.001
552.401
535.375
522.341
513.694
508.432
505.406
503.71
502.767
502.049
501.417
500.781
500.094
499.33
498.472
497.499
496.387
495.107
493.623
491.891
489.872
487.581
485.162
482.926
481.284
480.516
480.522
480.762
480.532
479.412
477.551
475.577
474.156
473.487
473.144
472.642
471.997
471.43
470.974
470.715
470.369
469.693
469.215
469.063
469.089
469.186
469.216
469.161
469.128
469.254
469.609
470.18
470.926
471.827
472.9
474.164
475.622
477.261
479.048
480.947
482.918
484.923
486.937
488.952
490.984
493.075
495.277
497.633
500.153
502.793
505.439
507.928
510.078
511.743
512.884
513.604
514.174
514.999
516.558
519.469
524.5
532.687
545.008
561.111
577.723
590.116
598.054
592.43
553.151
570.154
559.143
541.54
524.498
511.431
502.726
497.383
494.254
492.423
491.157
490.256
489.531
488.861
488.164
487.41
486.58
485.652
484.588
483.345
481.88
480.15
478.12
475.794
473.306
471.007
469.438
469.08
469.95
471.374
472.232
471.609
469.41
466.482
464.05
462.87
462.546
462.158
461.642
461.251
460.917
460.86
460.706
460.027
459.802
460.185
460.627
460.857
460.704
460.301
459.965
459.964
460.362
461.054
461.916
462.898
464.02
465.32
466.812
468.481
470.294
472.21
474.186
476.188
478.195
480.208
482.253
484.376
486.626
489.041
491.618
494.303
496.983
499.493
501.659
503.345
504.512
505.266
505.872
506.735
508.367
511.307
516.325
524.481
536.784
552.904
569.581
582.077
590.093
584.544
542.933
559.48
548.452
530.85
513.807
500.732
491.996
486.585
483.289
480.917
476.528
474.113
472.579
471.459
470.496
469.591
468.698
467.768
466.742
465.543
464.104
462.377
460.33
457.966
455.39
452.948
451.278
451.089
452.644
455.29
457.555
457.912
455.747
451.859
448.02
445.762
444.985
444.425
443.928
443.689
443.392
443.481
443.578
442.971
443.145
444.217
445.073
445.301
444.8
443.958
443.353
443.344
443.92
444.845
445.907
447.041
448.287
449.703
451.311
453.094
455.015
457.033
459.109
461.213
463.331
465.473
467.663
469.939
472.338
474.882
477.56
480.313
483.033
485.563
487.734
489.418
490.585
491.354
492.009
493.029
495.485
499.074
504.572
513.112
525.758
542.207
559.215
572.069
580.474
575.495
532.875
548.97
537.925
520.322
503.283
490.219
481.51
476.135
472.672
468.034
435.105
424.539
420.568
418.749
417.576
416.569
415.583
414.572
413.497
412.293
410.89
409.246
407.354
405.23
402.946
400.781
399.362
399.549
401.887
405.928
410.054
412.197
411.072
407.079
402.237
398.859
397.37
396.405
395.914
395.939
395.714
395.976
396.447
395.974
396.482
398.031
398.935
398.8
397.735
396.432
395.65
395.731
396.514
397.632
398.826
400.049
401.368
402.852
404.519
406.345
408.29
410.318
412.395
414.507
416.651
418.839
421.092
423.443
425.921
428.538
431.281
434.093
436.864
439.438
441.643
443.336
444.46
445.096
445.562
447.502
458.754
468.639
478.392
489.898
504.705
522.803
541.16
555.245
564.912
561.787
522.975
538.623
527.562
509.957
492.918
479.859
471.164
465.813
462.358
457.545
423.5
412.69
408.8
407.144
406.13
405.255
404.378
403.478
402.534
401.478
400.219
398.699
396.923
394.93
392.776
390.655
389.117
389.107
391.493
396.213
401.739
405.584
405.695
401.806
395.904
391.018
388.29
386.441
385.719
385.985
385.78
386.198
387.163
386.874
387.679
389.609
390.367
389.689
387.979
386.24
385.351
385.555
386.516
387.759
389.018
390.282
391.646
393.177
394.885
396.744
398.718
400.779
402.913
405.112
407.373
409.697
412.091
414.567
417.145
419.838
422.639
425.495
428.299
430.887
433.073
434.704
435.72
436.208
436.498
438.254
449.526
459.503
469.379
481.036
496.013
514.283
532.814
547.075
556.885
553.885
513.229
528.435
517.36
499.755
482.714
469.655
460.961
455.614
452.175
447.427
414.125
403.543
399.742
398.116
397.097
396.188
395.26
394.315
393.361
392.35
391.181
389.779
388.148
386.354
384.458
382.557
381.036
380.77
382.848
387.691
394.156
399.649
401.466
398.478
392.224
386.113
381.978
378.869
377.716
378.286
378.21
378.912
380.593
380.588
381.589
383.708
384.154
382.94
380.789
378.905
378.135
378.54
379.635
380.914
382.166
383.427
384.797
386.334
388.037
389.886
391.861
393.946
396.132
398.403
400.745
403.144
405.597
408.112
410.712
413.416
416.22
419.069
421.846
424.376
426.468
427.974
428.854
429.237
429.516
431.239
442.415
452.392
462.337
474.108
489.215
507.611
526.257
540.595
550.359
547.129
503.636
518.406
507.319
489.715
472.674
459.615
450.922
445.58
442.161
437.51
405.1
394.801
391.101
389.514
388.514
387.604
386.645
385.636
384.61
383.556
382.402
381.074
379.579
378.01
376.454
374.939
373.632
373.169
374.662
378.968
385.553
392.121
395.657
394.185
388.449
381.732
376.276
371.541
369.558
370.309
370.426
371.519
374.016
374.175
375.031
376.988
376.955
375.317
373.03
371.311
370.821
371.415
372.544
373.778
374.996
376.264
377.661
379.216
380.929
382.794
384.807
386.956
389.22
391.574
393.988
396.436
398.912
401.432
404.025
406.713
409.486
412.279
414.963
417.362
419.294
420.628
421.354
421.627
421.858
423.579
434.632
444.595
454.602
466.473
481.683
500.169
518.879
533.221
542.862
539.515
494.205
508.547
497.452
479.853
462.815
449.757
441.064
435.724
432.32
427.759
396.196
386.164
382.556
381.024
380.095
379.273
378.378
377.365
376.249
375.059
373.791
372.428
371.009
369.662
368.519
367.586
366.816
366.474
367.424
370.748
376.581
383.298
388.069
388.37
384.004
377.604
371.305
364.785
361.488
362.169
362.529
364.123
367.449
367.566
367.921
369.458
368.974
367.21
365.171
363.875
363.69
364.334
365.334
366.426
367.585
368.865
370.295
371.878
373.621
375.538
377.63
379.876
382.236
384.664
387.123
389.592
392.072
394.586
397.164
399.82
402.53
405.22
407.762
409.991
411.753
412.95
413.596
413.861
414.154
415.973
426.99
436.991
447.081
459.042
474.326
492.857
511.574
525.855
535.324
531.859
484.949
498.866
487.766
470.178
453.15
440.1
431.412
426.073
422.68
418.198
387.43
377.639
374.108
372.635
371.825
371.206
370.545
369.686
368.553
367.167
365.617
364.019
362.519
361.315
360.605
360.425
360.578
360.904
361.756
364.081
368.501
374.271
379.286
381.005
378.467
373.308
366.935
358.742
353.624
353.834
354.45
356.697
360.853
360.706
360.309
361.35
360.636
359.14
357.688
356.92
356.918
357.403
358.122
359.021
360.134
361.455
362.946
364.59
366.406
368.419
370.619
372.964
375.396
377.863
380.33
382.791
385.258
387.751
390.288
392.867
395.457
397.987
400.348
402.41
404.047
405.188
405.857
406.221
406.666
408.645
419.662
429.704
439.851
451.856
467.155
485.665
504.325
518.49
527.76
524.19
475.853
489.347
478.244
460.669
443.659
430.63
421.959
416.63
413.248
408.838
378.818
369.251
365.773
364.34
363.671
363.359
363.133
362.682
361.73
360.188
358.207
356.106
354.249
352.993
352.642
353.307
354.736
356.399
357.971
359.843
362.718
366.66
370.667
372.806
371.839
368.435
362.807
353.36
346.038
345.27
346.082
349.091
354.048
353.468
352.258
352.935
352.342
351.474
350.776
350.444
350.389
350.508
350.861
351.581
352.696
354.106
355.701
357.452
359.384
361.513
363.812
366.219
368.675
371.14
373.592
376.032
378.467
380.906
383.349
385.789
388.205
390.552
392.756
394.717
396.33
397.525
398.316
398.851
399.489
401.636
412.646
422.694
432.845
444.832
460.081
478.511
497.064
511.087
520.158
516.52
466.869
479.939
468.83
451.265
434.274
421.276
412.642
407.349
404.003
399.679
370.397
361.052
357.612
356.177
355.617
355.654
356.035
356.286
355.831
354.32
351.862
348.99
346.408
344.77
344.561
346.01
348.902
352.474
355.721
358.164
360.068
361.939
363.919
365.133
364.703
362.801
358.445
348.429
338.911
336.667
337.466
341.245
346.898
345.808
343.867
344.445
344.308
344.257
344.239
344.087
343.727
343.374
343.403
344.05
345.263
346.831
348.588
350.489
352.552
354.781
357.134
359.555
361.999
364.444
366.872
369.27
371.633
373.954
376.234
378.484
380.714
382.918
385.05
387.023
388.724
390.063
391.028
391.742
392.544
394.805
405.755
415.749
425.841
437.75
452.901
471.214
489.641
503.525
512.42
508.78
457.949
470.594
459.477
441.916
424.935
411.961
403.372
398.142
394.887
390.739
362.385
353.334
349.932
348.437
347.894
348.22
349.274
350.471
350.883
349.74
346.933
343.128
339.437
336.971
336.525
338.483
342.716
348.396
354.009
358.139
360.212
360.636
360.341
359.552
358.218
356.772
353.631
343.851
332.82
328.792
329.151
333.347
339.295
337.787
335.426
336.281
336.838
337.523
337.842
337.491
336.618
335.809
335.655
336.369
337.766
339.533
341.462
343.499
345.653
347.924
350.281
352.687
355.112
357.531
359.914
362.228
364.455
366.597
368.681
370.756
372.871
375.041
377.228
379.331
381.21
382.74
383.882
384.737
385.631
387.907
398.672
408.509
418.465
430.251
445.281
463.48
481.8
495.573
504.331
500.784
449.119
461.345
450.222
432.66
415.679
402.712
394.147
388.974
385.857
382.157
356.316
347.928
344.558
342.843
342.09
342.47
344.069
346.315
347.957
347.689
344.966
340.39
335.437
331.779
330.677
332.732
337.903
345.396
353.474
360.02
363.53
363.847
362.088
359.162
355.882
353.568
351.035
342.136
330.958
325.096
324.238
327.761
332.709
330.433
327.54
328.786
330.028
331.182
331.471
330.682
329.344
328.38
328.427
329.514
331.282
333.341
335.479
337.652
339.884
342.192
344.569
346.99
349.414
351.794
354.078
356.23
358.254
360.204
362.144
364.151
366.285
368.557
370.904
373.196
375.265
376.963
378.231
379.16
380.066
382.254
392.664
402.23
411.983
423.606
438.503
456.597
474.829
488.499
497.086
493.525
440.524
452.348
441.22
423.659
406.675
393.7
385.116
379.916
376.936
375.07
372.178
370.631
369.509
368.533
367.98
368.581
370.853
374.405
377.742
378.935
376.763
371.517
364.916
359.301
356.651
357.985
363.372
372.042
382.227
391.45
397.438
399.217
397.538
393.412
388.198
384.32
381.809
374.045
364.405
357.088
354.428
356.183
358.678
355.323
351.133
351.985
352.741
352.799
351.389
348.731
345.855
343.868
343.279
343.898
345.223
346.88
348.7
350.675
352.842
355.218
357.777
360.454
363.161
365.811
368.344
370.745
373.053
375.316
377.643
380.133
382.837
385.739
388.738
391.664
394.322
396.547
398.278
399.6
400.774
402.269
405.085
409.129
415.142
424.21
437.33
454.163
471.451
484.323
492.116
487.909
432.362
443.805
432.673
415.114
398.129
385.149
376.555
371.338
368.361
366.722
365.726
364.946
364.036
362.912
362.002
362.229
364.469
368.685
373.415
376.285
375.348
370.307
362.777
355.541
351.281
351.527
356.426
365.102
375.907
386.611
394.833
398.968
399.067
395.757
390.457
386.236
384.362
378.344
372.371
364.842
360.028
358.533
356.701
351.967
346.681
348.02
349.479
349.765
348.21
345.543
343.125
341.969
342.228
343.422
344.98
346.586
348.205
349.933
351.849
353.963
356.214
358.503
360.724
362.802
364.73
366.554
368.367
370.282
372.404
374.806
377.498
380.414
383.42
386.327
388.933
391.079
392.704
393.902
394.937
396.225
398.286
401.703
407.258
416.001
428.894
445.57
462.738
475.484
483.135
479.244
424.699
435.779
424.64
407.08
390.094
377.113
368.52
363.303
360.325
358.709
357.865
357.197
356.345
355.154
353.955
353.699
355.561
359.968
365.761
370.378
371.214
367.2
359.508
351.05
345.128
343.927
347.774
355.529
365.546
376.159
385.502
391.764
394.32
393.333
390.2
388.107
388.597
384.444
382.417
375.197
367.756
361.895
354.708
347.934
340.119
340.615
341.718
341.494
339.457
336.811
335.032
334.796
335.825
337.441
339.122
340.704
342.284
344.006
345.93
348.003
350.111
352.148
354.037
355.766
357.399
359.029
360.767
362.72
364.97
367.554
370.443
373.54
376.694
379.71
382.389
384.577
386.222
387.425
388.455
389.725
391.735
395.125
400.69
409.469
422.409
439.128
456.328
469.088
476.719
472.899
417.297
428.005
416.86
399.299
382.309
369.327
360.734
355.519
352.537
350.912
350.04
349.408
348.633
347.462
346.05
345.235
346.349
350.309
356.501
362.524
365.343
363.086
356.198
347.328
340.139
337.535
340.243
346.825
355.316
364.539
373.544
380.837
385.436
387.261
388.006
390.833
396.371
394.637
396.361
389.693
379.064
368.086
355.403
346.354
334.775
333.362
333.631
332.928
330.716
328.419
327.346
327.742
329.062
330.684
332.29
333.851
335.472
337.239
339.144
341.092
342.965
344.717
346.36
347.953
349.6
351.381
353.38
355.673
358.316
361.31
364.599
368.069
371.553
374.851
377.766
380.147
381.946
383.273
384.403
385.757
387.85
391.308
396.921
405.718
418.629
435.266
452.341
464.96
472.404
468.264
409.615
419.909
408.756
391.196
374.204
361.221
352.631
347.42
344.436
342.796
341.891
341.28
340.605
339.564
338.122
336.866
337.073
340.031
345.806
352.524
357.091
356.992
351.81
343.552
335.837
332.179
333.98
339.762
346.915
354.262
361.703
368.467
373.768
377.632
382.467
391.781
404.886
406.9
412.587
407.653
392.883
375.052
357.552
346.252
329.868
325.878
325.335
324.66
322.874
321.273
320.792
321.34
322.44
323.816
325.405
327.169
329.035
330.934
332.823
334.666
336.457
338.259
340.112
342.048
344.143
346.42
348.913
351.676
354.73
358.069
361.629
365.287
368.873
372.19
375.051
377.32
378.968
380.121
381.068
382.238
384.151
387.424
392.837
401.404
414.044
430.362
447.1
459.406
466.55
462.223
401.057
410.861
399.702
382.146
365.155
352.173
343.589
338.385
335.401
333.739
332.789
332.167
331.596
330.809
329.627
328.304
327.815
329.541
334.171
340.628
346.214
348.125
345.164
338.456
331.099
326.868
328.005
333.599
340.347
346.408
351.936
356.866
361.224
365.501
373.05
388.38
410.458
418.192
438.582
439.217
419.262
390.31
359.456
345.97
324.6
318.696
318.2
318.409
317.705
317.051
316.975
317.302
317.934
319.066
320.801
322.917
325.048
326.986
328.765
330.498
332.27
334.165
336.201
338.342
340.62
343.011
345.539
348.24
351.169
354.331
357.669
361.065
364.355
367.352
369.878
371.815
373.147
374.01
374.698
375.636
377.339
380.407
385.608
393.943
406.317
422.341
438.787
450.848
457.801
453.696
391.345
400.578
389.416
371.866
354.878
341.9
333.325
328.133
325.152
323.464
322.448
321.768
321.271
320.825
320.233
319.429
318.879
319.673
322.829
328.123
333.647
336.794
335.91
331.252
325.016
320.678
321.139
326.786
334.092
340.161
344.53
347.294
349.601
352.623
360.613
379.657
410.324
424.597
450.339
460.143
434.912
390.97
357.789
342.675
317.625
311.576
311.863
313.076
313.326
313.304
313.235
313.041
313.042
313.768
315.379
317.492
319.536
321.209
322.619
324.057
325.701
327.615
329.722
331.892
334.136
336.425
338.791
341.296
343.987
346.881
349.935
353.042
356.047
358.767
361.034
362.733
363.859
364.547
365.089
365.901
367.486
370.435
375.505
383.687
395.884
411.715
427.983
439.913
446.789
443.172
380.823
389.432
378.271
360.729
343.745
330.773
322.205
317.025
314.051
312.339
311.245
310.458
309.962
309.849
310.071
310.385
310.675
311.377
313.361
317.021
321.424
324.619
324.965
322.166
317.448
313.439
313.057
318.278
326.317
333.439
337.953
339.417
339.835
340.921
347.399
366.88
403.441
424.04
520.018
535.008
505.806
449.333
349.045
332.344
306.146
301.8
302.881
304.642
305.572
306.176
306.392
306.157
305.88
306.159
307.226
308.825
310.479
311.888
313.142
314.556
316.307
318.392
320.635
322.846
325.063
327.272
329.513
331.843
334.315
336.952
339.735
342.585
345.364
347.895
350.004
351.576
352.6
353.211
353.692
354.449
355.979
358.865
363.861
371.957
384.054
399.776
415.949
427.816
434.668
431.621
370.447
378.441
367.286
349.755
332.777
319.809
311.246
306.075
303.109
301.381
300.214
299.288
298.689
298.765
299.77
301.518
303.443
305.142
306.85
309.109
311.846
314.004
314.386
312.628
309.351
306.158
305.139
309.027
316.9
324.955
330.259
331.816
331.738
331.881
336.539
353.682
391.707
412.739
438.489
450.096
426.356
376.414
338.588
323.15
298.281
295.557
295.801
296.782
297.791
299
299.876
299.967
299.394
298.699
298.464
298.976
300.099
301.472
302.914
304.55
306.503
308.756
311.102
313.331
315.529
317.683
319.811
321.945
324.145
326.474
328.965
331.577
334.184
336.598
338.63
340.15
341.138
341.723
342.18
342.914
344.416
347.27
352.231
360.285
372.331
387.994
404.113
415.943
422.778
420.265
361.495
368.958
357.816
340.303
323.342
310.388
301.838
296.68
293.732
292.015
290.811
289.757
288.964
288.978
290.418
293.396
297.208
300.717
303.239
304.952
306.269
306.995
306.551
304.895
302.661
300.844
300.284
302.28
308.561
316.132
321.31
323.777
324.873
326.335
330.759
344.174
379.061
396.368
207.237
218.968
204.539
169.809
335.325
320.624
297.094
293.873
290.81
289.954
290.978
293.152
295.113
295.815
294.939
293.017
291.161
290.404
291.051
292.621
294.489
296.439
298.546
300.876
303.258
305.475
307.629
309.686
311.622
313.459
315.288
317.241
319.417
321.812
324.297
326.654
328.664
330.173
331.15
331.721
332.162
332.878
334.362
337.2
342.146
350.183
362.202
377.828
393.909
405.708
412.523
410.444
355.09
362.157
351.031
333.543
316.613
303.697
295.187
290.074
287.184
285.54
284.395
283.314
282.338
282.067
283.405
286.904
292.094
297.494
301.557
303.74
304.499
304.279
303.087
301.242
299.793
299.801
301.512
301.966
305.594
310.749
313.616
316.786
319.986
325.078
331.901
341.855
370.14
381.567
13.4161
22.9937
17.6785
-0.759094
334.674
322.102
300.282
295.025
287.333
284.315
285.402
288.59
291.708
293.235
292.479
289.885
286.892
285.129
285.374
287.169
289.497
291.753
293.932
296.226
298.549
300.665
302.662
304.481
306.081
307.502
308.898
310.471
312.374
314.614
317.034
319.379
321.394
322.905
323.876
324.432
324.855
325.554
327.027
329.858
334.799
342.828
354.832
370.433
386.486
398.26
405.05
403.276
351.824
358.643
347.519
330.039
313.132
300.256
291.802
286.764
283.978
282.486
281.536
280.622
279.643
279.073
279.891
283.037
288.556
295.149
300.8
304.172
305.377
305.263
304.408
303.284
303.065
304.965
310.377
310.241
310.901
312.076
310.326
313.346
318.622
328.681
340.312
348.861
369.487
372.255
-88.2726
-85.846
-84.7259
-86.9276
337.666
328.505
308.039
299.903
286.985
281.168
281.423
284.901
288.976
291.835
292.309
290.327
287.139
284.679
284.316
285.978
288.509
290.939
293.039
295.104
297.174
299.017
300.697
302.154
303.356
304.378
305.424
306.738
308.488
310.664
313.073
315.429
317.453
318.961
319.916
320.449
320.849
321.531
322.994
325.822
330.76
338.784
350.777
366.364
382.404
394.161
400.929
399.326
351.595
358.306
347.15
329.634
312.695
299.8
291.344
286.327
283.603
282.246
281.533
280.929
280.183
279.518
279.733
281.916
286.68
293.361
300.069
304.908
307.391
308.545
309.683
311.337
313.882
317.437
326.433
326.425
324.23
320.551
312.747
314.468
322.276
337.639
355.392
365.973
387.138
384.307
-125.178
-134.702
-132.777
-123.552
360.43
350.157
323.986
311.437
291.461
280.775
278.603
281.763
287.115
292.3
295.305
295.099
292.375
289.224
287.749
288.62
290.024
292.417
294.309
296.008
297.729
299.284
300.703
301.924
302.925
303.789
304.729
305.989
307.722
309.899
312.315
314.673
316.694
318.191
319.129
319.641
320.021
320.689
322.143
324.964
329.897
337.914
349.903
365.489
381.528
393.278
400.028
398.473
353.705
360.437
349.236
331.652
314.627
301.632
293.066
287.935
285.111
283.705
283.052
282.647
282.158
281.555
281.287
282.287
285.514
291.119
297.923
303.99
308.221
311.566
316.255
323.137
330.922
336.263
348.038
348.55
343.683
334.843
320.324
319.04
326.056
345.862
370.163
385.353
421.332
431.285
-66.7308
-74.6761
-74.7063
-69.9313
414.138
389.209
344.81
326.476
297.543
280.854
276.107
279.208
286.006
293.474
298.856
300.298
297.969
293.99
291.064
290.702
291.499
293.823
295.644
297.172
298.792
300.368
301.871
303.202
304.33
305.321
306.366
307.694
309.449
311.611
313.995
316.325
318.331
319.825
320.759
321.264
321.636
322.296
323.743
326.557
331.483
339.497
351.49
367.088
383.14
394.89
401.626
400.023
357.143
364.011
352.796
335.177
318.092
305.005
296.312
291.014
287.987
286.365
285.532
285.05
284.598
283.995
283.349
283.217
284.528
288.041
293.573
299.798
305.401
311.096
319.954
333.562
348.985
357.11
371.164
373.413
365.939
351.512
331.493
325.783
328.456
350.03
380.789
405.198
472.105
487.398
-40.6176
-54.1028
-50.6752
-33.8729
488.551
454.025
364.554
335.429
298.278
278.396
273.447
277.256
284.857
293.271
299.804
302.365
300.712
296.637
292.897
291.57
291.878
294.4
296.594
298.422
300.362
302.291
304.149
305.78
307.159
308.337
309.491
310.845
312.553
314.629
316.931
319.216
321.22
322.737
323.701
324.227
324.609
325.272
326.719
329.533
334.46
342.481
354.49
370.115
386.193
397.953
404.677
402.966
360.914
367.973
356.788
339.202
322.146
309.075
300.376
295.04
291.928
290.172
289.172
288.54
288.008
287.373
286.536
285.661
285.326
286.397
289.454
294.162
299.675
306.685
318.808
338.636
362.729
375.226
401.588
408.666
397.719
374.807
342.282
332.407
328.524
348.416
381.322
416.294
550.905
559.352
61.9445
44.1493
48.7007
75.8169
592.709
561.429
379.485
338.874
299.306
277.757
272.688
276.178
282.944
290.7
297.4
301.077
301.016
298.211
294.831
293.074
292.892
295.585
298.278
300.568
302.916
305.128
307.234
309.026
310.511
311.753
312.913
314.207
315.803
317.751
319.955
322.206
324.235
325.811
326.837
327.411
327.826
328.511
329.978
332.81
337.758
345.804
357.847
373.515
389.635
401.415
408.129
406.283
364.318
371.543
360.392
342.855
325.866
312.878
304.272
299.032
296.009
294.319
293.355
292.74
292.249
291.726
291.033
290.102
289.091
288.517
289.098
291.252
295.035
301.614
315.01
338.923
371.039
388.996
418.994
433.787
417.933
381.62
347.071
333.913
323.433
339.711
366.395
375.813
331.101
322.709
294.776
278.923
275.319
278.292
284.022
290.739
297.075
301.466
302.968
301.765
299.129
296.96
295.757
297.992
300.77
303.303
305.888
308.125
310.278
312.069
313.548
314.788
315.921
317.136
318.601
320.402
322.492
324.694
326.74
328.374
329.468
330.1
330.558
331.278
332.777
335.645
340.632
348.721
360.814
376.537
392.708
404.516
411.22
409.234
367.031
374.356
363.206
345.678
328.711
315.76
307.209
302.041
299.105
297.511
296.642
296.112
295.713
295.337
294.905
294.323
293.52
292.58
291.835
291.776
293.064
297.497
309.535
334.116
371.386
396.185
500.442
521.533
501.183
451.662
346.784
332.849
321.559
339.123
368.534
378.016
328.35
323.78
298.824
286.098
284.531
287.808
292.334
297.394
302.794
306.599
308.263
307.725
305.524
302.927
300.471
301.72
304.22
306.829
309.534
311.676
313.792
315.515
316.922
318.093
319.121
320.166
321.397
322.936
324.794
326.835
328.804
330.425
331.538
332.195
332.674
333.412
334.934
337.831
342.854
350.988
363.132
378.912
395.135
406.971
413.662
411.526
369.051
376.423
365.252
347.698
330.704
317.729
309.159
303.979
301.041
299.456
298.604
298.091
297.703
297.35
297.006
296.648
296.206
295.569
294.657
293.54
292.706
293.959
301.822
322.465
358.93
385.864
429.268
445.68
427.044
381.22
335.173
324.049
316.74
337.549
369.904
383.614
329.208
322.964
299.639
290.037
291.315
296.327
301.08
305.038
308.71
311.456
312.558
312.232
310.673
308.5
305.659
306.042
308.191
310.799
313.441
315.558
317.69
319.41
320.769
321.843
322.703
323.492
324.384
325.546
327.052
328.818
330.61
332.144
333.227
333.875
334.348
335.08
336.6
339.507
344.552
352.72
364.909
380.741
397.011
408.87
415.536
413.222
370.55
377.953
366.762
349.179
332.151
319.135
310.52
305.297
302.32
300.703
299.83
299.306
298.91
298.549
298.203
297.889
297.607
297.284
296.739
295.714
294.124
292.857
295.299
307.848
336.409
359.071
187.505
201.94
191.047
159.43
321.144
312.854
311.334
335.084
370.687
388.151
330.127
321.948
299.57
292.969
297.533
304.929
310.645
314.107
316.278
317.392
317.111
316.199
315.018
313.942
312.122
311.989
313.634
315.771
317.506
319.466
321.498
323.256
324.613
325.599
326.265
326.761
327.28
328.026
329.13
330.567
332.137
333.55
334.582
335.207
335.657
336.361
337.852
340.739
345.776
353.95
366.161
382.026
398.327
410.194
416.832
414.358
371.762
379.197
368.005
350.415
333.37
320.329
311.679
306.411
303.384
301.715
300.792
300.227
299.806
299.436
299.089
298.774
298.506
298.275
298.006
297.496
296.417
294.636
293.341
296.783
311.482
322.837
-38.0169
-26.8749
-27.69
-40.2504
304.704
301.439
305.098
329.426
366.566
387.306
330.552
319.67
298.47
295.345
303.176
312.921
319.975
323.634
325.02
324.746
323.154
321.441
320.454
320.841
321.661
321.616
322.627
323.494
322.769
324.059
325.475
327.096
328.403
329.266
329.719
329.924
330.084
330.428
331.132
332.224
333.545
334.813
335.771
336.353
336.753
337.39
338.805
341.616
346.586
354.708
366.884
382.73
399.011
410.845
417.446
414.89
372.892
380.368
369.195
351.627
334.605
321.583
312.944
307.676
304.634
302.934
301.965
301.345
300.867
300.449
300.065
299.709
299.372
299.043
298.711
298.35
297.844
296.903
295.224
293.445
293.488
286.597
-184.342
-182.405
-175.14
-165.472
287.327
292.474
297.452
315.778
350.884
378.308
328.14
314.919
297.28
298.213
308.091