/*--------------------------------*- C++ -*----------------------------------*\
| =========                 |                                                 |
| \\      /  F ield         | OpenFOAM: The Open Source CFD Toolbox           |
|  \\    /   O peration     | Version:  v2012                                 |
|   \\  /    A nd           | Website:  www.openfoam.com                      |
|    \\/     M anipulation  |                                                 |
\*---------------------------------------------------------------------------*/
FoamFile
{
    version     2.0;
    format      ascii;
    class       volScalarField;
    location    "100/air";
    object      ILambda_6_0;
}
// * * * * * * * * * * * * * * * * * * * * * * * * * * * * * * * * * * * * * //

dimensions      [1 0 -3 0 0 0 0];


internalField   nonuniform List<scalar> 
287104
(
207.492
208.929
209.093
208.685
208.239
208.059
208.154
208.424
208.78
209.166
209.549
209.914
210.254
210.567
210.852
211.106
211.327
211.513
211.667
211.793
211.9
211.995
212.088
212.183
212.284
212.392
212.508
212.632
212.761
212.895
213.031
213.165
213.294
213.415
213.529
213.634
213.731
213.82
213.9
213.971
214.034
214.089
214.139
214.185
214.227
214.266
214.302
214.337
214.371
214.406
214.444
214.486
214.535
214.591
214.655
214.73
214.816
214.913
215.022
215.141
215.27
215.408
215.552
215.699
215.847
215.994
216.138
216.278
216.415
216.55
216.684
216.818
216.951
217.079
217.197
217.296
217.373
217.429
217.473
217.528
217.624
217.808
218.145
218.738
219.715
221.135
222.785
224.161
225.061
226.418
208.177
209.581
209.683
209.201
208.686
208.452
208.507
208.745
209.075
209.438
209.8
210.145
210.464
210.757
211.022
211.255
211.455
211.621
211.755
211.861
211.949
212.026
212.1
212.178
212.262
212.353
212.45
212.554
212.665
212.782
212.903
213.026
213.144
213.255
213.356
213.447
213.53
213.606
213.675
213.734
213.785
213.829
213.87
213.908
213.942
213.972
213.999
214.025
214.051
214.081
214.115
214.155
214.201
214.254
214.315
214.387
214.469
214.564
214.671
214.788
214.917
215.053
215.196
215.343
215.491
215.637
215.781
215.921
216.058
216.192
216.326
216.461
216.595
216.724
216.842
216.942
217.019
217.074
217.118
217.172
217.27
217.458
217.805
218.415
219.423
220.886
222.586
224.006
224.955
226.454
207.036
208.395
208.475
207.978
207.451
207.203
207.242
207.465
207.779
208.127
208.476
208.808
209.117
209.399
209.654
209.879
210.071
210.229
210.355
210.454
210.535
210.606
210.674
210.745
210.823
210.908
210.999
211.095
211.197
211.305
211.419
211.536
211.652
211.762
211.861
211.948
212.027
212.099
212.163
212.218
212.265
212.305
212.34
212.375
212.404
212.428
212.449
212.469
212.493
212.523
212.558
212.599
212.645
212.697
212.756
212.825
212.905
212.998
213.102
213.217
213.342
213.476
213.616
213.759
213.904
214.048
214.189
214.326
214.459
214.591
214.723
214.854
214.985
215.112
215.228
215.326
215.401
215.455
215.498
215.552
215.65
215.836
216.18
216.785
217.784
219.232
220.915
222.323
223.27
224.747
206.244
207.569
207.625
207.108
206.563
206.3
206.324
206.533
206.835
207.172
207.511
207.834
208.133
208.408
208.656
208.874
209.059
209.211
209.331
209.425
209.501
209.567
209.631
209.698
209.772
209.854
209.942
210.036
210.133
210.234
210.34
210.45
210.563
210.673
210.773
210.86
210.936
211.006
211.067
211.118
211.161
211.197
211.229
211.258
211.282
211.298
211.312
211.328
211.35
211.381
211.419
211.461
211.507
211.558
211.615
211.682
211.76
211.849
211.951
212.063
212.185
212.316
212.453
212.593
212.735
212.875
213.012
213.146
213.276
213.404
213.532
213.661
213.788
213.911
214.024
214.119
214.191
214.243
214.284
214.336
214.431
214.616
214.958
215.561
216.555
217.998
219.677
221.082
222.021
223.454
205.468
206.758
206.791
206.253
205.69
205.411
205.421
205.617
205.907
206.232
206.561
206.874
207.166
207.432
207.673
207.884
208.063
208.209
208.324
208.413
208.484
208.545
208.604
208.667
208.738
208.817
208.906
209
209.097
209.195
209.293
209.393
209.497
209.602
209.701
209.79
209.866
209.932
209.989
210.036
210.075
210.107
210.133
210.156
210.172
210.181
210.189
210.204
210.228
210.26
210.297
210.339
210.382
210.43
210.485
210.55
210.625
210.712
210.811
210.921
211.041
211.169
211.303
211.44
211.579
211.715
211.849
211.979
212.106
212.231
212.355
212.48
212.605
212.725
212.835
212.927
212.998
213.048
213.087
213.138
213.232
213.416
213.756
214.357
215.348
216.787
218.463
219.865
220.798
222.186
204.701
205.956
205.966
205.409
204.829
204.535
204.53
204.713
204.991
205.306
205.624
205.929
206.212
206.471
206.704
206.909
207.082
207.223
207.332
207.415
207.481
207.538
207.592
207.651
207.717
207.794
207.885
207.986
208.091
208.193
208.286
208.374
208.462
208.553
208.647
208.736
208.813
208.878
208.931
208.974
209.008
209.037
209.059
209.074
209.082
209.088
209.098
209.116
209.142
209.173
209.208
209.244
209.284
209.33
209.383
209.446
209.519
209.604
209.701
209.809
209.927
210.053
210.184
210.32
210.456
210.591
210.722
210.85
210.975
211.098
211.221
211.344
211.467
211.585
211.693
211.784
211.854
211.903
211.941
211.991
212.085
212.268
212.607
213.206
214.194
215.63
217.301
218.7
219.624
220.972
203.948
205.169
205.157
204.58
203.985
203.675
203.657
203.828
204.095
204.399
204.708
205.003
205.278
205.53
205.756
205.955
206.123
206.258
206.362
206.441
206.502
206.554
206.604
206.657
206.717
206.791
206.884
206.996
207.119
207.237
207.337
207.415
207.48
207.546
207.624
207.708
207.786
207.85
207.898
207.936
207.967
207.993
208.01
208.016
208.022
208.033
208.052
208.077
208.104
208.129
208.153
208.181
208.216
208.26
208.313
208.376
208.449
208.533
208.628
208.735
208.851
208.976
209.106
209.241
209.376
209.509
209.64
209.767
209.891
210.013
210.135
210.257
210.379
210.496
210.604
210.694
210.762
210.811
210.849
210.899
210.992
211.174
211.512
212.109
213.095
214.527
216.194
217.588
218.503
219.818
203.21
204.397
204.364
203.768
203.157
202.834
202.803
202.962
203.218
203.512
203.81
204.095
204.361
204.606
204.826
205.019
205.182
205.313
205.413
205.488
205.546
205.595
205.641
205.689
205.744
205.813
205.907
206.032
206.18
206.329
206.451
206.529
206.571
206.601
206.646
206.714
206.788
206.847
206.889
206.922
206.948
206.971
206.984
206.983
206.994
207.022
207.058
207.09
207.11
207.117
207.122
207.137
207.167
207.211
207.266
207.329
207.402
207.485
207.58
207.686
207.802
207.926
208.056
208.189
208.324
208.457
208.588
208.715
208.838
208.96
209.081
209.202
209.323
209.44
209.547
209.636
209.704
209.751
209.789
209.838
209.931
210.112
210.449
211.045
212.028
213.456
215.119
216.508
217.414
218.7
202.487
203.641
203.586
202.973
202.347
202.01
201.967
202.115
202.36
202.642
202.914
203.181
203.433
203.668
203.881
204.07
204.232
204.364
204.467
204.545
204.606
204.658
204.706
204.755
204.808
204.874
204.969
205.107
205.286
205.48
205.643
205.739
205.763
205.747
205.739
205.77
205.828
205.877
205.912
205.939
205.958
205.975
205.984
205.981
206.005
206.061
206.117
206.149
206.145
206.119
206.093
206.09
206.114
206.158
206.214
206.276
206.345
206.425
206.517
206.62
206.733
206.855
206.983
207.114
207.247
207.379
207.507
207.632
207.754
207.873
207.992
208.112
208.23
208.344
208.448
208.534
208.599
208.643
208.677
208.724
208.818
209.001
209.338
209.931
210.91
212.332
213.988
215.371
216.268
217.523
201.777
202.899
202.824
202.194
201.553
201.204
201.149
201.285
201.517
201.762
201.772
201.853
201.997
202.182
202.39
202.603
202.807
202.993
203.155
203.292
203.409
203.512
203.605
203.692
203.773
203.858
203.967
204.124
204.339
204.588
204.812
204.951
204.981
204.929
204.864
204.848
204.882
204.921
204.951
204.976
204.985
204.992
204.997
204.993
205.037
205.122
205.185
205.193
205.141
205.058
204.989
204.96
204.972
205.009
205.056
205.107
205.165
205.232
205.311
205.402
205.504
205.616
205.735
205.859
205.984
206.108
206.23
206.348
206.463
206.575
206.686
206.797
206.905
207.008
207.1
207.172
207.223
207.254
207.277
207.32
207.453
207.67
208.028
208.633
209.615
211.033
212.682
214.06
214.954
216.178
201.081
202.171
202.076
201.429
200.775
200.412
200.346
200.472
200.685
200.765
195.33
194.483
194.686
195.208
195.82
196.428
196.994
197.501
197.94
198.313
198.624
198.879
199.088
199.254
199.383
199.484
199.58
199.704
199.881
200.101
200.312
200.443
200.446
200.335
200.181
200.067
200.016
199.989
199.977
199.973
199.952
199.936
199.935
199.936
199.995
200.093
200.146
200.121
200.027
199.911
199.824
199.791
199.806
199.845
199.892
199.941
199.995
200.059
200.134
200.219
200.313
200.414
200.52
200.628
200.735
200.839
200.939
201.033
201.122
201.208
201.291
201.373
201.452
201.526
201.59
201.638
201.665
201.67
201.649
201.615
203.174
204.305
205.229
206.187
207.389
208.945
210.689
212.149
213.132
214.411
200.396
201.454
201.341
200.677
200.009
199.634
199.557
199.672
199.873
199.923
194.378
193.501
193.699
194.226
194.846
195.465
196.043
196.562
197.016
197.404
197.729
197.998
198.218
198.394
198.528
198.629
198.715
198.823
198.992
199.226
199.478
199.661
199.702
199.588
199.387
199.208
199.1
199.034
199.01
199.011
198.989
198.983
199.017
199.062
199.174
199.315
199.375
199.325
199.194
199.05
198.955
198.928
198.953
198.997
199.043
199.087
199.135
199.19
199.255
199.329
199.41
199.497
199.588
199.681
199.773
199.864
199.95
200.033
200.111
200.188
200.263
200.338
200.412
200.482
200.543
200.587
200.61
200.611
200.586
200.555
202.112
203.24
204.158
205.107
206.3
207.846
209.581
211.036
212.014
213.268
199.723
200.749
200.617
199.937
199.255
198.868
198.78
198.885
199.077
199.123
193.731
192.874
193.064
193.574
194.175
194.774
195.333
195.836
196.276
196.653
196.971
197.236
197.452
197.626
197.76
197.858
197.932
198.02
198.165
198.393
198.669
198.903
198.998
198.908
198.687
198.454
198.286
198.169
198.125
198.13
198.104
198.105
198.176
198.259
198.402
198.557
198.594
198.502
198.33
198.166
198.071
198.055
198.088
198.136
198.182
198.225
198.273
198.327
198.391
198.463
198.542
198.626
198.714
198.804
198.894
198.982
199.067
199.147
199.224
199.299
199.373
199.447
199.519
199.587
199.645
199.686
199.704
199.696
199.661
199.626
201.156
202.267
203.174
204.114
205.299
206.838
208.565
210.014
210.98
212.199
199.06
200.055
199.904
199.209
198.513
198.114
198.015
198.11
198.294
198.337
193.08
192.243
192.426
192.922
193.506
194.089
194.631
195.116
195.54
195.904
196.212
196.469
196.681
196.855
196.994
197.097
197.172
197.244
197.362
197.564
197.84
198.109
198.261
198.224
198.019
197.762
197.542
197.366
197.291
197.294
197.268
197.286
197.404
197.522
197.679
197.824
197.825
197.691
197.493
197.325
197.241
197.235
197.27
197.315
197.357
197.399
197.446
197.502
197.565
197.637
197.716
197.8
197.888
197.978
198.068
198.156
198.24
198.32
198.397
198.471
198.545
198.618
198.69
198.757
198.814
198.854
198.871
198.862
198.826
198.791
200.294
201.386
202.281
203.212
204.389
205.921
207.641
209.083
210.038
211.224
198.409
199.374
199.204
198.493
197.784
197.374
197.263
197.348
197.524
197.566
192.441
191.624
191.802
192.284
192.853
193.421
193.949
194.419
194.827
195.173
195.466
195.712
195.919
196.092
196.237
196.354
196.442
196.514
196.607
196.77
197.013
197.282
197.475
197.5
197.345
197.099
196.849
196.61
196.486
196.479
196.458
196.505
196.676
196.818
196.966
197.082
197.042
196.881
196.681
196.529
196.462
196.463
196.493
196.529
196.566
196.607
196.655
196.711
196.775
196.845
196.923
197.007
197.094
197.183
197.272
197.359
197.442
197.521
197.598
197.671
197.744
197.816
197.887
197.953
198.009
198.048
198.065
198.055
198.019
197.983
199.458
200.532
201.413
202.335
203.504
205.029
206.743
208.179
209.122
210.278
197.77
198.704
198.516
197.79
197.068
196.646
196.525
196.6
196.768
196.808
191.813
191.015
191.187
191.656
192.212
192.77
193.29
193.75
194.144
194.473
194.746
194.974
195.168
195.337
195.49
195.628
195.745
195.839
195.927
196.052
196.239
196.466
196.661
196.734
196.647
196.449
196.197
195.899
195.705
195.671
195.66
195.748
195.974
196.122
196.237
196.312
196.24
196.074
195.895
195.773
195.722
195.72
195.736
195.76
195.791
195.832
195.882
195.939
196.002
196.072
196.148
196.23
196.317
196.405
196.493
196.578
196.66
196.739
196.814
196.887
196.959
197.03
197.1
197.165
197.22
197.258
197.274
197.264
197.228
197.193
198.64
199.696
200.566
201.479
202.641
204.16
205.868
207.297
208.229
209.357
197.14
198.044
197.839
197.097
196.362
195.929
195.797
195.863
196.022
196.061
191.191
190.414
190.579
191.034
191.578
192.129
192.648
193.109
193.497
193.81
194.059
194.26
194.431
194.589
194.746
194.908
195.07
195.215
195.335
195.445
195.573
195.727
195.877
195.96
195.93
195.798
195.573
195.229
194.947
194.867
194.868
195.008
195.286
195.421
195.49
195.525
195.438
195.291
195.152
195.061
195.018
195.001
194.996
195.005
195.031
195.073
195.125
195.182
195.243
195.311
195.386
195.466
195.551
195.637
195.723
195.807
195.888
195.966
196.04
196.112
196.183
196.253
196.321
196.386
196.44
196.478
196.494
196.485
196.45
196.415
197.838
198.877
199.736
200.642
201.798
203.311
205.014
206.438
207.36
208.462
196.516
197.389
197.167
196.41
195.662
195.217
195.075
195.131
195.282
195.319
190.576
189.819
189.977
190.418
190.949
191.494
192.017
192.487
192.88
193.184
193.408
193.573
193.708
193.84
193.992
194.176
194.389
194.61
194.801
194.941
195.037
195.113
195.183
195.226
195.213
195.134
194.953
194.586
194.216
194.077
194.091
194.289
194.612
194.725
194.748
194.756
194.674
194.564
194.467
194.398
194.347
194.303
194.272
194.266
194.289
194.332
194.384
194.439
194.498
194.563
194.635
194.714
194.796
194.88
194.964
195.046
195.126
195.202
195.275
195.346
195.416
195.485
195.553
195.616
195.67
195.709
195.725
195.718
195.684
195.65
197.049
198.074
198.924
199.824
200.976
202.485
204.185
205.606
206.52
207.6
195.894
196.737
196.497
195.725
194.964
194.508
194.355
194.401
194.544
194.58
189.965
189.229
189.381
189.807
190.322
190.86
191.389
191.874
192.281
192.584
192.78
192.896
192.972
193.052
193.171
193.354
193.604
193.899
194.184
194.396
194.508
194.537
194.526
194.495
194.445
194.376
194.234
193.88
193.463
193.274
193.31
193.565
193.919
194.018
194.017
194.034
193.991
193.935
193.879
193.82
193.749
193.673
193.616
193.597
193.615
193.655
193.703
193.753
193.806
193.866
193.933
194.006
194.083
194.163
194.243
194.322
194.398
194.472
194.543
194.611
194.678
194.745
194.812
194.875
194.929
194.968
194.987
194.982
194.951
194.921
196.299
197.315
198.163
199.064
200.218
201.729
203.43
204.852
205.763
206.829
195.28
196.094
195.837
195.049
194.276
193.808
193.644
193.681
193.817
193.866
189.447
188.75
188.896
189.297
189.781
190.288
190.792
191.261
191.651
191.917
192.047
192.065
192.026
191.996
192.029
192.162
192.408
192.747
193.114
193.421
193.602
193.651
193.612
193.521
193.405
193.3
193.178
192.877
192.504
192.304
192.376
192.68
193.046
193.188
193.242
193.348
193.406
193.437
193.434
193.386
193.293
193.183
193.096
193.055
193.056
193.081
193.113
193.149
193.189
193.238
193.295
193.36
193.43
193.504
193.579
193.654
193.727
193.799
193.866
193.93
193.991
194.051
194.111
194.167
194.216
194.25
194.263
194.253
194.217
194.178
195.591
196.639
197.516
198.442
199.615
201.142
202.856
204.284
205.192
206.244
194.69
195.475
195.201
194.399
193.614
193.134
192.96
192.986
193.119
193.282
193.234
193.331
193.476
193.637
193.803
193.998
194.236
194.503
194.745
194.894
194.907
194.797
194.632
194.502
194.487
194.639
194.973
195.466
196.039
196.573
196.966
197.173
197.217
197.128
196.951
196.779
196.644
196.358
196.051
195.783
195.79
195.979
196.103
196.05
195.895
195.883
195.866
195.837
195.774
195.666
195.533
195.415
195.352
195.356
195.41
195.484
195.56
195.635
195.713
195.798
195.891
195.993
196.101
196.213
196.329
196.446
196.562
196.672
196.776
196.876
196.974
197.073
197.172
197.269
197.356
197.428
197.48
197.513
197.535
197.573
197.726
197.95
198.307
198.901
199.862
201.249
202.864
204.209
205.036
206.013
194.138
194.895
194.606
193.79
192.993
192.503
192.319
192.336
192.463
192.638
192.835
193.016
193.176
193.312
193.44
193.593
193.803
194.072
194.347
194.544
194.591
194.479
194.268
194.067
193.981
194.082
194.391
194.881
195.482
196.092
196.609
196.961
197.127
197.103
196.933
196.743
196.634
196.427
196.358
196.13
196.073
196.073
195.855
195.656
195.401
195.403
195.437
195.446
195.396
195.289
195.16
195.06
195.022
195.05
195.124
195.214
195.305
195.394
195.486
195.583
195.685
195.793
195.903
196.015
196.127
196.236
196.341
196.442
196.54
196.638
196.737
196.837
196.939
197.037
197.125
197.198
197.25
197.283
197.306
197.341
197.415
197.577
197.888
198.45
199.386
200.754
202.351
203.679
204.485
205.449
193.622
194.353
194.049
193.22
192.412
191.912
191.719
191.728
191.846
192.016
192.201
192.38
192.536
192.663
192.774
192.901
193.091
193.363
193.677
193.942
194.06
193.99
193.775
193.526
193.375
193.413
193.669
194.107
194.66
195.263
195.847
196.328
196.64
196.747
196.698
196.637
196.677
196.579
196.792
196.642
196.492
196.238
195.614
195.229
194.782
194.717
194.742
194.746
194.682
194.565
194.441
194.356
194.334
194.374
194.451
194.541
194.631
194.721
194.814
194.914
195.019
195.129
195.242
195.355
195.467
195.574
195.676
195.773
195.868
195.963
196.061
196.159
196.256
196.347
196.427
196.489
196.529
196.55
196.559
196.579
196.639
196.785
197.079
197.622
198.537
199.881
201.453
202.757
203.542
204.476
193.112
193.817
193.498
192.656
191.837
191.328
191.126
191.126
191.237
191.399
191.578
191.752
191.906
192.028
192.123
192.222
192.377
192.626
192.953
193.272
193.47
193.472
193.292
193.031
192.831
192.813
193.015
193.386
193.852
194.385
194.963
195.511
195.931
196.18
196.34
196.578
196.947
197.003
197.496
197.441
197.143
196.586
195.553
194.951
194.214
194.007
193.991
193.988
193.92
193.808
193.701
193.635
193.626
193.671
193.749
193.837
193.925
194.011
194.101
194.195
194.294
194.395
194.498
194.597
194.691
194.777
194.855
194.927
194.996
195.065
195.136
195.206
195.272
195.331
195.378
195.409
195.419
195.413
195.399
195.397
195.44
195.569
195.848
196.373
197.268
198.588
200.135
201.421
202.197
203.102
192.556
193.233
192.898
192.042
191.211
190.691
190.479
190.471
190.574
190.728
190.899
191.067
191.218
191.339
191.426
191.501
191.614
191.817
192.124
192.468
192.735
192.824
192.714
192.482
192.267
192.212
192.376
192.701
193.09
193.529
194.04
194.567
195.012
195.348
195.734
196.385
197.263
197.555
198.333
198.454
197.914
196.914
195.529
194.687
193.562
193.152
193.082
193.082
193.025
192.928
192.833
192.767
192.746
192.774
192.835
192.907
192.975
193.036
193.095
193.153
193.21
193.265
193.317
193.363
193.4
193.428
193.45
193.47
193.494
193.525
193.564
193.608
193.656
193.703
193.745
193.778
193.797
193.804
193.808
193.829
193.894
194.045
194.343
194.883
195.784
197.102
198.646
199.936
200.723
201.625
191.905
192.549
192.194
191.322
190.477
189.944
189.722
189.704
189.797
189.942
190.103
190.263
190.411
190.535
190.627
190.694
190.774
190.923
191.179
191.507
191.811
191.978
191.958
191.791
191.598
191.529
191.671
191.984
192.344
192.721
193.145
193.574
193.946
194.275
194.819
195.888
197.412
198.076
199.891
200.42
199.449
197.578
195.156
193.986
192.383
191.744
191.605
191.59
191.521
191.405
191.275
191.156
191.073
191.041
191.053
191.083
191.11
191.127
191.139
191.153
191.173
191.2
191.232
191.264
191.295
191.326
191.36
191.402
191.457
191.524
191.603
191.69
191.782
191.875
191.964
192.043
192.107
192.158
192.204
192.264
192.364
192.547
192.871
193.429
194.34
195.659
197.2
198.494
199.292
200.2
191.14
191.744
191.368
190.476
189.615
189.069
188.833
188.804
188.886
189.019
189.168
189.316
189.458
189.589
189.7
189.786
189.862
189.973
190.165
190.441
190.732
190.941
191
190.916
190.773
190.71
190.831
191.151
191.538
191.918
192.286
192.591
192.826
193.056
193.63
195.006
197.218
198.334
200.461
201.371
199.565
196.22
193.309
191.733
189.685
188.926
188.775
188.793
188.774
188.713
188.627
188.535
188.471
188.458
188.493
188.55
188.609
188.662
188.712
188.767
188.833
188.909
188.99
189.072
189.155
189.239
189.329
189.428
189.537
189.655
189.781
189.914
190.051
190.187
190.317
190.434
190.534
190.618
190.696
190.783
190.909
191.112
191.453
192.022
192.936
194.251
195.784
197.075
197.879
198.789
190.296
190.857
190.457
189.544
188.665
188.103
187.853
187.81
187.88
188
188.134
188.267
188.399
188.536
188.677
188.809
188.924
189.037
189.185
189.39
189.625
189.821
189.916
189.9
189.819
189.777
189.871
190.182
190.612
191.047
191.415
191.634
191.742
191.84
192.326
193.806
196.562
198.097
204.768
204.845
201.868
197.35
189.985
188.359
186.361
185.827
185.858
186.027
186.145
186.197
186.188
186.142
186.105
186.112
186.167
186.256
186.357
186.457
186.556
186.66
186.774
186.899
187.028
187.157
187.289
187.424
187.564
187.708
187.855
188.005
188.16
188.322
188.488
188.653
188.81
188.952
189.075
189.181
189.278
189.383
189.524
189.74
190.089
190.662
191.574
192.881
194.404
195.69
196.494
197.403
189.454
189.971
189.549
188.615
187.718
187.139
186.874
186.818
186.875
186.983
187.103
187.219
187.336
187.473
187.642
187.836
188.027
188.195
188.343
188.494
188.652
188.787
188.864
188.873
188.845
188.845
188.924
189.189
189.628
190.109
190.497
190.696
190.76
190.794
191.166
192.533
195.47
196.918
197.209
196.176
193.695
190.085
186.861
185.687
184.075
183.863
184.014
184.23
184.372
184.423
184.406
184.361
184.324
184.322
184.363
184.447
184.561
184.688
184.819
184.955
185.102
185.259
185.421
185.583
185.752
185.928
186.104
186.277
186.442
186.604
186.77
186.945
187.127
187.309
187.482
187.639
187.776
187.894
188.002
188.116
188.266
188.488
188.841
189.414
190.322
191.62
193.133
194.413
195.214
196.117
188.716
189.194
188.752
187.801
186.888
186.296
186.018
185.949
185.996
186.093
186.202
186.303
186.403
186.529
186.711
186.958
187.238
187.499
187.701
187.843
187.944
188.006
188.027
188.02
188.027
188.094
188.222
188.423
188.811
189.265
189.609
189.829
189.948
190.062
190.409
191.513
194.249
195.547
181.536
181.105
179.516
176.914
185.504
184.481
183.05
182.92
182.94
183.028
183.085
183.106
183.103
183.089
183.071
183.058
183.069
183.124
183.231
183.372
183.526
183.685
183.851
184.027
184.209
184.396
184.593
184.797
184.996
185.179
185.346
185.504
185.669
185.848
186.038
186.229
186.411
186.576
186.719
186.843
186.956
187.076
187.229
187.453
187.807
188.379
189.282
190.573
192.077
193.351
194.148
195.045
188.167
188.618
188.161
187.196
186.273
185.671
185.384
185.307
185.347
185.439
185.542
185.636
185.721
185.827
185.999
186.267
186.612
186.969
187.258
187.443
187.535
187.559
187.538
187.512
187.553
187.719
188.007
188.173
188.469
188.796
188.959
189.185
189.418
189.765
190.252
191.051
193.233
194.183
168.667
168.687
167.904
166.274
184.597
183.865
182.713
182.588
182.369
182.278
182.263
182.29
182.335
182.373
182.381
182.352
182.317
182.325
182.404
182.543
182.711
182.883
183.058
183.239
183.43
183.63
183.846
184.066
184.271
184.449
184.602
184.749
184.907
185.085
185.279
185.476
185.662
185.83
185.976
186.102
186.217
186.338
186.492
186.718
187.071
187.641
188.541
189.826
191.325
192.595
193.389
194.282
187.853
188.286
187.821
186.848
185.919
185.312
185.021
184.941
184.978
185.071
185.177
185.273
185.352
185.44
185.583
185.83
186.19
186.607
186.983
187.244
187.379
187.426
187.434
187.457
187.581
187.87
188.42
188.611
188.806
188.925
188.767
188.944
189.275
189.947
190.731
191.302
192.699
192.956
161.424
161.251
161.012
160.436
184.348
184.124
183.277
183.014
182.42
182.078
181.976
182.019
182.119
182.212
182.246
182.203
182.118
182.063
182.09
182.205
182.378
182.55
182.717
182.888
183.073
183.277
183.498
183.719
183.916
184.078
184.214
184.346
184.498
184.677
184.873
185.071
185.259
185.427
185.574
185.701
185.816
185.938
186.092
186.317
186.671
187.24
188.139
189.423
190.92
192.187
192.981
193.872
187.766
188.192
187.723
186.747
185.815
185.206
184.913
184.832
184.869
184.965
185.078
185.184
185.271
185.349
185.457
185.654
185.974
186.394
186.825
187.168
187.384
187.517
187.654
187.859
188.182
188.606
189.435
189.695
189.79
189.655
189.092
189.141
189.801
190.804
191.934
192.433
193.584
193.476
158.122
156.956
156.788
157.167
188.349
187.873
186.351
185.407
183.997
183.097
182.726
182.682
182.771
182.872
182.905
182.832
182.681
182.534
182.471
182.526
182.466
182.621
182.761
182.904
183.072
183.268
183.484
183.696
183.878
184.022
184.142
184.266
184.415
184.594
184.791
184.988
185.175
185.342
185.488
185.614
185.729
185.851
186.005
186.231
186.585
187.155
188.055
189.341
190.84
192.11
192.904
193.798
187.854
188.284
187.815
186.839
185.907
185.296
185.001
184.918
184.954
185.049
185.167
185.283
185.381
185.459
185.541
185.676
185.918
186.282
186.715
187.118
187.427
187.688
188.045
188.587
189.272
189.846
190.916
191.266
191.248
190.827
189.823
189.639
190.19
191.4
192.771
193.25
195.33
196.23
162.132
161.078
160.709
160.707
193.666
192.471
189.842
188.427
186.207
184.714
184.012
183.795
183.78
183.817
183.805
183.678
183.445
183.187
183.004
182.96
182.827
182.943
183.05
183.165
183.316
183.505
183.713
183.912
184.078
184.208
184.32
184.44
184.589
184.766
184.96
185.153
185.336
185.502
185.647
185.773
185.888
186.009
186.164
186.39
186.746
187.319
188.223
189.514
191.019
192.294
193.09
193.99
188.048
188.487
188.023
187.051
186.12
185.51
185.214
185.129
185.161
185.253
185.369
185.487
185.592
185.675
185.742
185.825
185.975
186.238
186.608
187.015
187.391
187.783
188.401
189.387
190.595
191.371
192.638
193.16
192.987
192.184
190.771
190.196
190.319
191.48
193.03
193.848
198.078
199.667
164.154
162.843
162.68
163.266
198.357
196.435
191.256
189.333
186.753
185.214
184.594
184.459
184.488
184.546
184.548
184.426
184.174
183.862
183.599
183.473
183.276
183.366
183.46
183.567
183.715
183.9
184.1
184.283
184.435
184.554
184.66
184.779
184.925
185.098
185.284
185.471
185.65
185.814
185.959
186.084
186.199
186.321
186.476
186.704
187.062
187.639
188.549
189.849
191.363
192.645
193.445
194.353
188.277
188.728
188.271
187.305
186.379
185.773
185.481
185.397
185.43
185.52
185.634
185.751
185.859
185.948
186.013
186.068
186.147
186.299
186.556
186.893
187.265
187.737
188.58
190.016
191.862
192.949
195.143
196.088
195.63
194.09
191.613
190.515
189.945
190.803
192.413
193.946
201.673
203.251
171.223
169.75
169.721
171.111
208.821
208.29
194.598
190.862
187.253
185.34
184.699
184.6
184.659
184.753
184.812
184.77
184.603
184.35
184.101
183.954
183.724
183.81
183.913
184.031
184.188
184.368
184.554
184.719
184.853
184.962
185.065
185.182
185.325
185.489
185.665
185.845
186.02
186.182
186.327
186.453
186.568
186.69
186.847
187.077
187.437
188.019
188.936
190.246
191.771
193.061
193.866
194.782
188.487
188.949
188.499
187.539
186.619
186.019
185.732
185.655
185.692
185.786
185.903
186.023
186.136
186.233
186.309
186.367
186.421
186.502
186.646
186.865
187.156
187.615
188.57
190.347
192.853
194.362
196.944
198.471
197.448
194.599
191.634
190.071
188.906
189.549
191.093
191.513
190.464
188.829
185.899
184.322
184.061
184.317
184.532
184.704
184.835
184.891
184.843
184.701
184.518
184.382
184.127
184.208
184.324
184.458
184.626
184.796
184.968
185.116
185.239
185.345
185.449
185.567
185.705
185.859
186.025
186.197
186.368
186.529
186.674
186.8
186.915
187.037
187.194
187.425
187.788
188.373
189.297
190.616
192.151
193.449
194.256
195.177
188.648
189.119
188.673
187.718
186.802
186.206
185.924
185.851
185.894
185.993
186.114
186.238
186.355
186.459
186.549
186.627
186.693
186.76
186.842
186.955
187.125
187.476
188.369
190.252
193.237
195.244
203.204
204.719
202.74
198.518
190.45
188.856
187.799
188.873
191.206
192.015
189.381
188.055
185.442
184.075
183.695
183.782
183.989
184.224
184.51
184.683
184.738
184.7
184.603
184.511
184.258
184.342
184.488
184.663
184.868
185.054
185.235
185.39
185.522
185.64
185.756
185.88
186.016
186.162
186.319
186.483
186.649
186.809
186.952
187.077
187.191
187.311
187.466
187.696
188.059
188.646
189.574
190.898
192.44
193.741
194.547
195.467
188.758
189.233
188.79
187.836
186.922
186.328
186.048
185.977
186.022
186.123
186.247
186.373
186.491
186.597
186.694
186.785
186.872
186.955
187.031
187.097
187.17
187.361
188.015
189.667
192.662
194.721
197.655
197.811
195.772
192.145
188.174
187.182
186.767
188.488
191.52
192.577
189.146
187.675
185.169
183.904
183.616
183.735
183.928
184.119
184.362
184.605
184.725
184.758
184.741
184.714
184.487
184.565
184.723
184.919
185.132
185.325
185.512
185.673
185.811
185.936
186.055
186.176
186.299
186.428
186.567
186.718
186.874
187.026
187.164
187.284
187.392
187.507
187.657
187.882
188.242
188.827
189.754
191.08
192.623
193.922
194.724
195.635
188.825
189.303
188.861
187.908
186.994
186.401
186.121
186.05
186.096
186.198
186.323
186.449
186.568
186.675
186.775
186.871
186.969
187.07
187.167
187.244
187.292
187.36
187.69
188.799
191.245
193.058
181.05
181.307
179.974
177.34
186.506
185.86
185.972
188.125
191.709
193.199
189.039
187.42
184.976
183.956
183.886
184.147
184.404
184.598
184.788
184.994
185.073
185.091
185.099
185.133
184.968
185.029
185.167
185.333
185.483
185.66
185.835
185.996
186.135
186.258
186.37
186.476
186.579
186.685
186.803
186.934
187.076
187.216
187.345
187.457
187.557
187.664
187.807
188.025
188.379
188.96
189.885
191.211
192.754
194.051
194.846
195.748
188.869
189.348
188.906
187.954
187.04
186.446
186.167
186.096
186.14
186.242
186.366
186.492
186.611
186.72
186.823
186.924
187.027
187.136
187.247
187.353
187.436
187.485
187.582
188.056
189.488
190.519
165.74
166.092
165.595
164.147
184.631
184.471
185.023
187.258
190.989
192.869
189.097
187.356
185.049
184.282
184.435
184.841
185.186
185.409
185.573
185.705
185.702
185.666
185.67
185.771
185.742
185.801
185.896
185.972
185.948
186.065
186.189
186.331
186.463
186.58
186.682
186.773
186.856
186.942
187.04
187.154
187.282
187.412
187.532
187.637
187.732
187.832
187.969
188.182
188.532
189.112
190.038
191.366
192.913
194.211
195.005
195.908
188.904
189.384
188.944
187.992
187.079
186.486
186.207
186.136
186.181
186.282
186.404
186.529
186.647
186.758
186.864
186.97
187.077
187.184
187.293
187.404
187.516
187.615
187.681
187.757
188.04
187.669
155.432
155.347
155.533
155.572
182.976
183.595
184.352
186.087
189.378