/*--------------------------------*- C++ -*----------------------------------*\
| =========                 |                                                 |
| \\      /  F ield         | OpenFOAM: The Open Source CFD Toolbox           |
|  \\    /   O peration     | Version:  v2012                                 |
|   \\  /    A nd           | Website:  www.openfoam.com                      |
|    \\/     M anipulation  |                                                 |
\*---------------------------------------------------------------------------*/
FoamFile
{
    version     2.0;
    format      ascii;
    class       volScalarField;
    location    "100/air";
    object      ILambda_61_0;
}
// * * * * * * * * * * * * * * * * * * * * * * * * * * * * * * * * * * * * * //

dimensions      [1 0 -3 0 0 0 0];


internalField   nonuniform List<scalar> 
287104
(
168.881
164.702
138.386
101.172
73.5803
62.2811
61.0831
62.6278
63.7073
64.036
64.0515
64.0196
64.0049
64.0029
64.0044
64.006
64.0074
64.0088
64.01
64.0113
64.0125
64.0138
64.015
64.0161
64.0173
64.0184
64.0194
64.0204
64.0214
64.0224
64.0233
64.0242
64.025
64.0258
64.0266
64.0272
64.0278
64.0284
64.0289
64.0294
64.0298
64.0303
64.0308
64.0312
64.0317
64.0321
64.0325
64.0329
64.0333
64.0337
64.034
64.0343
64.0347
64.035
64.0353
64.0356
64.0358
64.0361
64.0364
64.0367
64.0369
64.0372
64.0374
64.0376
64.0379
64.0381
64.0383
64.0384
64.0386
64.0388
64.0389
64.0391
64.0392
64.0393
64.0395
64.0396
64.0397
64.0398
64.0398
64.0399
64.04
64.0401
64.0401
64.0402
64.0402
64.0412
64.0349
64.0699
63.9428
64.2079
168.881
164.702
138.386
101.172
73.5801
62.2809
61.0829
62.6275
63.707
64.0357
64.0511
64.0191
64.0044
64.0023
64.0038
64.0054
64.0068
64.008
64.0093
64.0105
64.0117
64.0128
64.014
64.0151
64.0162
64.0172
64.0183
64.0192
64.0202
64.0211
64.022
64.0228
64.0236
64.0243
64.025
64.0256
64.0262
64.0267
64.0272
64.0276
64.0281
64.0285
64.029
64.0294
64.0298
64.0302
64.0306
64.031
64.0314
64.0317
64.0321
64.0324
64.0327
64.033
64.0333
64.0336
64.0339
64.0342
64.0344
64.0347
64.0349
64.0352
64.0354
64.0356
64.0359
64.0361
64.0363
64.0364
64.0366
64.0368
64.037
64.0371
64.0372
64.0374
64.0375
64.0376
64.0377
64.0378
64.0379
64.038
64.0381
64.0382
64.0383
64.0384
64.0384
64.0395
64.0332
64.0682
63.9414
64.2057
168.881
164.702
138.385
101.171
73.58
62.2808
61.0826
62.6273
63.7067
64.0353
64.0507
64.0187
64.0039
64.0018
64.0032
64.0048
64.0061
64.0073
64.0085
64.0097
64.0108
64.0119
64.013
64.0141
64.0152
64.0162
64.0171
64.0181
64.019
64.0198
64.0207
64.0214
64.0222
64.0229
64.0235
64.0241
64.0246
64.0251
64.0255
64.0259
64.0263
64.0267
64.0271
64.0275
64.0279
64.0283
64.0286
64.0289
64.0293
64.0296
64.0299
64.0301
64.0304
64.0307
64.0309
64.0312
64.0314
64.0316
64.0318
64.0321
64.0323
64.0325
64.0327
64.0329
64.033
64.0332
64.0334
64.0335
64.0336
64.0338
64.0339
64.034
64.0341
64.0342
64.0343
64.0344
64.0345
64.0346
64.0347
64.0348
64.0349
64.0349
64.035
64.0351
64.0352
64.0363
64.0299
64.065
63.938
64.2028
168.881
164.702
138.385
101.171
73.5798
62.2805
61.0824
62.627
63.7064
64.035
64.0503
64.0183
64.0034
64.0012
64.0026
64.0041
64.0054
64.0065
64.0077
64.0088
64.0099
64.011
64.012
64.0131
64.014
64.015
64.0159
64.0168
64.0176
64.0185
64.0192
64.02
64.0207
64.0213
64.0219
64.0225
64.0229
64.0233
64.0237
64.0241
64.0244
64.0248
64.0251
64.0254
64.0258
64.0261
64.0264
64.0267
64.0269
64.0272
64.0274
64.0276
64.0278
64.028
64.0282
64.0284
64.0286
64.0288
64.0289
64.0291
64.0292
64.0294
64.0295
64.0296
64.0297
64.0298
64.0299
64.03
64.0301
64.0302
64.0303
64.0303
64.0304
64.0304
64.0305
64.0305
64.0306
64.0306
64.0307
64.0307
64.0308
64.0309
64.0309
64.031
64.031
64.0321
64.0258
64.0608
63.9339
64.1985
168.881
164.702
138.385
101.171
73.5796
62.2803
61.0821
62.6267
63.706
64.0346
64.0498
64.0178
64.0029
64.0007
64.0019
64.0034
64.0046
64.0057
64.0068
64.0079
64.0089
64.01
64.011
64.0119
64.0129
64.0138
64.0146
64.0155
64.0163
64.017
64.0178
64.0184
64.0191
64.0197
64.0202
64.0207
64.0211
64.0215
64.0218
64.0221
64.0224
64.0227
64.023
64.0232
64.0235
64.0238
64.024
64.0242
64.0244
64.0246
64.0248
64.0249
64.0251
64.0252
64.0253
64.0254
64.0256
64.0257
64.0258
64.0259
64.0259
64.026
64.0261
64.0262
64.0262
64.0263
64.0263
64.0263
64.0264
64.0264
64.0264
64.0264
64.0264
64.0264
64.0265
64.0265
64.0265
64.0265
64.0265
64.0265
64.0266
64.0266
64.0266
64.0267
64.0267
64.0278
64.0214
64.0565
63.9295
64.1942
168.881
164.702
138.385
101.171
73.5794
62.2801
61.0818
62.6264
63.7057
64.0342
64.0494
64.0173
64.0023
64.0001
64.0013
64.0027
64.0039
64.005
64.006
64.007
64.008
64.009
64.0099
64.0108
64.0117
64.0126
64.0134
64.0142
64.0149
64.0156
64.0163
64.0169
64.0175
64.0181
64.0185
64.019
64.0193
64.0196
64.0199
64.0201
64.0204
64.0206
64.0208
64.0211
64.0213
64.0215
64.0217
64.0218
64.022
64.0221
64.0222
64.0223
64.0224
64.0225
64.0226
64.0226
64.0227
64.0227
64.0228
64.0228
64.0229
64.0229
64.0229
64.0229
64.0229
64.0229
64.0229
64.0229
64.0229
64.0229
64.0229
64.0228
64.0228
64.0228
64.0228
64.0227
64.0227
64.0227
64.0227
64.0227
64.0227
64.0227
64.0228
64.0228
64.0228
64.0239
64.0175
64.0526
63.9256
64.1902
168.881
164.702
138.385
101.171
73.5792
62.2799
61.0816
62.6261
63.7053
64.0338
64.049
64.0168
64.0018
63.9995
64.0007
64.002
64.0032
64.0042
64.0052
64.0062
64.0071
64.008
64.0089
64.0098
64.0106
64.0114
64.0122
64.0129
64.0136
64.0142
64.0149
64.0154
64.016
64.0165
64.0169
64.0173
64.0176
64.0178
64.0181
64.0182
64.0184
64.0186
64.0188
64.019
64.0191
64.0193
64.0194
64.0195
64.0196
64.0197
64.0198
64.0199
64.0199
64.0199
64.02
64.02
64.02
64.02
64.02
64.02
64.02
64.02
64.02
64.02
64.02
64.0199
64.0199
64.0198
64.0198
64.0198
64.0197
64.0197
64.0196
64.0196
64.0195
64.0195
64.0195
64.0194
64.0194
64.0194
64.0194
64.0194
64.0194
64.0195
64.0195
64.0205
64.0142
64.0492
63.9222
64.1868
168.881
164.702
138.385
101.171
73.5791
62.2796
61.0813
62.6258
63.705
64.0334
64.0485
64.0164
64.0013
63.999
64.0001
64.0014
64.0025
64.0035
64.0044
64.0054
64.0063
64.0071
64.008
64.0088
64.0096
64.0103
64.011
64.0117
64.0123
64.0129
64.0135
64.0141
64.0146
64.015
64.0154
64.0157
64.016
64.0162
64.0163
64.0165
64.0166
64.0167
64.0169
64.017
64.0171
64.0172
64.0173
64.0174
64.0175
64.0175
64.0176
64.0176
64.0176
64.0176
64.0176
64.0176
64.0176
64.0175
64.0175
64.0175
64.0175
64.0174
64.0174
64.0173
64.0173
64.0172
64.0172
64.0171
64.017
64.017
64.0169
64.0168
64.0168
64.0167
64.0167
64.0166
64.0166
64.0165
64.0165
64.0165
64.0164
64.0164
64.0164
64.0165
64.0165
64.0175
64.0112
64.0462
63.9192
64.1838
168.881
164.702
138.385
101.171
73.5789
62.2794
61.0811
62.6255
63.7047
64.033
64.0481
64.0159
64.0009
63.9985
63.9996
64.0009
64.0019
64.0029
64.0038
64.0047
64.0056
64.0064
64.0073
64.0081
64.0088
64.0095
64.0102
64.0109
64.0115
64.0121
64.0127
64.0132
64.0137
64.0141
64.0145
64.0148
64.015
64.0151
64.0153
64.0154
64.0155
64.0156
64.0157
64.0157
64.0158
64.0159
64.016
64.016
64.016
64.016
64.016
64.016
64.0159
64.0159
64.0158
64.0158
64.0157
64.0156
64.0156
64.0155
64.0154
64.0154
64.0153
64.0152
64.0151
64.015
64.015
64.0149
64.0148
64.0147
64.0146
64.0145
64.0144
64.0144
64.0143
64.0142
64.0142
64.0141
64.0141
64.014
64.0139
64.0139
64.0139
64.0139
64.0138
64.0149
64.0085
64.0435
63.9165
64.1811
168.881
164.702
138.385
101.17
73.5787
62.2792
61.0808
62.6252
63.7043
64.0327
64.0478
64.0157
64.0007
63.9984
63.9996
64.001
64.0022
64.0032
64.0043
64.0053
64.0063
64.0072
64.0082
64.0091
64.01
64.0108
64.0116
64.0123
64.0131
64.0138
64.0145
64.0151
64.0157
64.0162
64.0166
64.017
64.0172
64.0174
64.0176
64.0177
64.0178
64.0179
64.018
64.0181
64.0182
64.0182
64.0182
64.0182
64.0182
64.0181
64.018
64.0179
64.0178
64.0177
64.0176
64.0175
64.0173
64.0172
64.0171
64.0169
64.0168
64.0167
64.0165
64.0164
64.0163
64.0161
64.016
64.0159
64.0157
64.0156
64.0155
64.0154
64.0153
64.0152
64.0151
64.015
64.0149
64.0148
64.0147
64.0145
64.0143
64.0142
64.014
64.0139
64.0137
64.0146
64.0081
64.043
63.9159
64.1804
168.881
164.702
138.385
101.17
73.5785
62.279
61.0806
62.6249
63.704
64.0325
64.0481
64.0165
64.0021
64.0005
64.0022
64.0042
64.0059
64.0075
64.009
64.0104
64.0117
64.013
64.0142
64.0154
64.0164
64.0174
64.0184
64.0192
64.02
64.0208
64.0216
64.0222
64.0229
64.0234
64.0239
64.0242
64.0245
64.0248
64.025
64.0251
64.0253
64.0254
64.0255
64.0256
64.0257
64.0258
64.0258
64.0258
64.0258
64.0258
64.0257
64.0255
64.0254
64.0253
64.0251
64.025
64.0248
64.0247
64.0245
64.0244
64.0242
64.024
64.0239
64.0237
64.0235
64.0233
64.0232
64.023
64.0228
64.0226
64.0224
64.0222
64.022
64.0218
64.0216
64.0214
64.0212
64.0211
64.0208
64.0204
64.0197
64.019
64.0184
64.0179
64.0173
64.0179
64.011
64.0457
63.9183
64.1826
168.881
164.702
138.385
101.17
73.5784
62.2788
61.0803
62.6246
63.7037
64.0321
64.0477
64.0161
64.0016
63.9999
64.0017
64.0036
64.0053
64.0068
64.0083
64.0097
64.011
64.0123
64.0135
64.0147
64.0157
64.0167
64.0176
64.0185
64.0193
64.02
64.0207
64.0214
64.022
64.0225
64.023
64.0233
64.0236
64.0238
64.0239
64.024
64.0242
64.0243
64.0244
64.0245
64.0246
64.0247
64.0248
64.0248
64.0248
64.0247
64.0246
64.0245
64.0244
64.0242
64.024
64.0239
64.0237
64.0235
64.0232
64.023
64.0228
64.0226
64.0223
64.0221
64.0218
64.0215
64.0213
64.021
64.0207
64.0205
64.0202
64.0199
64.0197
64.0194
64.0192
64.0189
64.0187
64.0185
64.0182
64.0177
64.017
64.0163
64.0157
64.0151
64.0146
64.0151
64.0083
64.0429
63.9155
64.1798
168.881
164.702
138.384
101.17
73.5782
62.2786
61.0801
62.6243
63.7034
64.0318
64.0473
64.0156
64.0012
63.9994
64.0011
64.003
64.0046
64.0061
64.0075
64.0089
64.0101
64.0113
64.0125
64.0136
64.0146
64.0155
64.0163
64.0171
64.0178
64.0184
64.0191
64.0197
64.0202
64.0207
64.021
64.0213
64.0215
64.0216
64.0217
64.0218
64.0219
64.0219
64.022
64.0221
64.0222
64.0222
64.0222
64.0222
64.0222
64.0221
64.0219
64.0218
64.0216
64.0214
64.0212
64.021
64.0208
64.0206
64.0203
64.0201
64.0198
64.0196
64.0193
64.019
64.0187
64.0184
64.0181
64.0178
64.0175
64.0172
64.0169
64.0166
64.0163
64.0161
64.0158
64.0155
64.0153
64.015
64.0147
64.0142
64.0134
64.0127
64.0121
64.0116
64.011
64.0115
64.0047
64.0393
63.912
64.1763
168.881
164.702
138.384
101.17
73.578
62.2783
61.0798
62.624
63.703
64.0314
64.0469
64.0152
64.0006
63.9988
64.0005
64.0023
64.0039
64.0053
64.0067
64.008
64.0092
64.0104
64.0114
64.0125
64.0134
64.0143
64.0151
64.0158
64.0164
64.017
64.0176
64.0182
64.0186
64.0191
64.0194
64.0196
64.0198
64.0199
64.0199
64.0199
64.0199
64.02
64.02
64.02
64.0201
64.0201
64.0201
64.02
64.0199
64.0198
64.0196
64.0194
64.0192
64.019
64.0187
64.0185
64.0182
64.018
64.0177
64.0174
64.0171
64.0169
64.0166
64.0163
64.0159
64.0156
64.0153
64.015
64.0147
64.0143
64.014
64.0137
64.0134
64.0131
64.0128
64.0126
64.0123
64.012
64.0117
64.0111
64.0104
64.0097
64.0091
64.0086
64.008
64.0085
64.0017
64.0364
63.909
64.1733
168.881
164.701
138.384
101.17
73.5778
62.2781
61.0796
62.6238
63.7027
64.031
64.0465
64.0147
64.0001
63.9982
63.9998
64.0016
64.0032
64.0045
64.0058
64.0071
64.0083
64.0094
64.0104
64.0114
64.0123
64.0131
64.0138
64.0145
64.0151
64.0157
64.0162
64.0167
64.0171
64.0175
64.0178
64.018
64.0181
64.0182
64.0182
64.0181
64.0181
64.0181
64.0181
64.0181
64.0181
64.0181
64.0181
64.018
64.0178
64.0177
64.0174
64.0172
64.0169
64.0167
64.0164
64.0161
64.0158
64.0156
64.0152
64.0149
64.0146
64.0143
64.014
64.0137
64.0133
64.013
64.0126
64.0123
64.012
64.0116
64.0113
64.0109
64.0106
64.0103
64.01
64.0097
64.0094
64.0091
64.0088
64.0083
64.0075
64.0069
64.0062
64.0057
64.0051
64.0057
63.9989
64.0335
63.9062
64.1705
168.881
164.701
138.384
101.17
73.5777
62.2779
61.0793
62.6235
63.7024
64.0307
64.0461
64.0142
63.9996
63.9977
63.9992
64.0009
64.0024
64.0037
64.005
64.0062
64.0073
64.0084
64.0094
64.0103
64.0111
64.0119
64.0126
64.0132
64.0138
64.0143
64.0148
64.0152
64.0156
64.016
64.0163
64.0164
64.0165
64.0165
64.0165
64.0165
64.0164
64.0164
64.0163
64.0163
64.0163
64.0162
64.0161
64.016
64.0158
64.0156
64.0153
64.0151
64.0148
64.0145
64.0142
64.0139
64.0135
64.0132
64.0129
64.0125
64.0122
64.0118
64.0115
64.0111
64.0108
64.0104
64.0101
64.0097
64.0093
64.009
64.0086
64.0083
64.0079
64.0076
64.0073
64.007
64.0067
64.0064
64.006
64.0055
64.0048
64.0041
64.0035
64.003
64.0024
64.003
63.9962
64.0308
63.9035
64.1678
168.881
164.701
138.384
101.169
73.5775
62.2777
61.0791
62.6232
63.7021
64.0303
64.0456
64.0138
63.9991
63.9971
63.9986
64.0003
64.0017
64.003
64.0042
64.0053
64.0064
64.0074
64.0083
64.0092
64.01
64.0107
64.0114
64.012
64.0125
64.013
64.0134
64.0138
64.0142
64.0145
64.0147
64.0149
64.0149
64.0149
64.0149
64.0149
64.0149
64.0148
64.0147
64.0145
64.0144
64.0144
64.0142
64.0141
64.0139
64.0136
64.0133
64.013
64.0127
64.0124
64.012
64.0117
64.0113
64.0109
64.0106
64.0102
64.0098
64.0095
64.0091
64.0087
64.0083
64.0079
64.0075
64.0072
64.0068
64.0064
64.006
64.0057
64.0053
64.005
64.0047
64.0043
64.004
64.0037
64.0034
64.0028
64.0021
64.0015
64.0009
64.0004
63.9998
64.0004
63.9936
64.0283
63.901
64.1653
168.881
164.701
138.384
101.169
73.5773
62.2775
61.0788
62.6229
63.7018
64.03
64.0452
64.0133
63.9986
63.9965
63.998
63.9996
64.0009
64.0022
64.0033
64.0044
64.0054
64.0064
64.0073
64.0081
64.0088
64.0095
64.0101
64.0107
64.0112
64.0116
64.012
64.0124
64.0127
64.0129
64.0131
64.0132
64.0132
64.0132
64.013
64.0128
64.0127
64.0126
64.0126
64.0127
64.0127
64.0125
64.0124
64.0122
64.012
64.0117
64.0114
64.0111
64.0107
64.0103
64.01
64.0096
64.0092
64.0088
64.0084
64.008
64.0076
64.0072
64.0068
64.0064
64.006
64.0056
64.0052
64.0048
64.0044
64.004
64.0036
64.0033
64.0029
64.0026
64.0022
64.0019
64.0016
64.0013
64.0009
64.0004
63.9997
63.9991
63.9985
63.998
63.9975
63.9981
63.9914
64.0261
63.8987
64.1631
168.881
164.701
138.384
101.169
73.5772
62.2773
61.0786
62.6226
63.7014
64.0296
64.0448
64.0129
63.998
63.9959
63.9973
63.9989
64.0002
64.0013
64.0024
64.0034
64.0044
64.0053
64.0061
64.0068
64.0074
64.008
64.0085
64.009
64.0094
64.0097
64.01
64.0103
64.0105
64.0107
64.0108
64.0108
64.0108
64.0111
64.0093
64.0071
64.0064
64.0061
64.0078
64.0099
64.0106
64.0105
64.0103
64.0102
64.01
64.0098
64.0095
64.0092
64.0088
64.0085
64.0081
64.0077
64.0073
64.0069
64.0065
64.0061
64.0057
64.0052
64.0048
64.0044
64.004
64.0036
64.0032
64.0027
64.0023
64.0019
64.0015
64.0012
64.0008
64.0005
64.0001
63.9998
63.9995
63.9992
63.9988
63.9984
63.9977
63.9971
63.9965
63.9961
63.9956
63.9962
63.9895
64.0242
63.8969
64.1612
168.881
164.701
138.384
101.169
73.577
62.2771
61.0784
62.6224
63.7012
64.0293
64.0444
64.0123
63.9974
63.9952
63.9965
63.9979
63.9991
64.0001
64.001
64.0018
64.0025
64.0032
64.0038
64.0043
64.0047
64.005
64.0053
64.0056
64.0059
64.0061
64.0063
64.0065
64.0066
64.0067
64.0067
64.0067
64.0066
64.0073
64.0037
64.0003
63.9994
63.999
64.0021
64.0058
64.0073
64.0074
64.0074
64.0073
64.0072
64.0071
64.0069
64.0066
64.0063
64.006
64.0056
64.0052
64.0048
64.0044
64.004
64.0036
64.0032
64.0027
64.0023
64.0019
64.0015
64.0011
64.0006
64.0002
63.9998
63.9994
63.999
63.9986
63.9982
63.9979
63.9975
63.9972
63.9969
63.9966
63.9962
63.9957
63.9951
63.9945
63.994
63.9936
63.9931
63.9938
63.9871
64.0218
63.8946
64.1589
168.881
164.701
138.384
101.169
73.5769
62.277
61.0782
62.6221
63.7009
64.0289
64.0435
64.0109
63.9955
63.9927
63.9934
63.9943
63.995
63.9956
63.9961
63.9966
63.9971
63.9975
63.9979
63.9983
63.9987
63.999
63.9993
63.9995
63.9997
63.9999
64.0001
64.0003
64.0004
64.0005
64.0005
64.0004
64.0008
63.9964
64.0125
64.0326
64.0384
64.0413
64.0242
64.004
63.9974
63.9984
63.9995
63.9997
63.9997
63.9998
63.9998
63.9998
63.9998
63.9997
63.9996
63.9995
63.9993
63.999
63.9987
63.9984
63.9981
63.9977
63.9973
63.9969
63.9964
63.996
63.9955
63.9951
63.9946
63.9941
63.9937
63.9932
63.9928
63.9924
63.992
63.9916
63.9912
63.9909
63.9905
63.9902
63.9899
63.9896
63.9894
63.9892
63.989
63.9898
63.9833
64.0182
63.8911
64.1556
168.881
164.701
138.384
101.169
73.5768
62.2768
61.078
62.6219
63.7006
64.0286
64.0432
64.0106
63.9951
63.9923
63.9929
63.9938
63.9944
63.9949
63.9954
63.9959
63.9963
63.9967
63.9971
63.9974
63.9977
63.998
63.9982
63.9984
63.9986
63.9987
63.9989
63.999
63.999
63.9991
63.9991
63.9988
64.001
63.9796
64.071
64.164
64.1875
64.1998
64.117
64.0218
63.9897
63.9923
63.9966
63.9972
63.9968
63.9966
63.9964
63.9962
63.996
63.9958
63.9956
63.9954
63.9952
63.995
63.9947
63.9945
63.9942
63.9939
63.9936
63.9933
63.9929
63.9926
63.9922
63.9919
63.9915
63.9912
63.9908
63.9905
63.9902
63.9899
63.9895
63.9892
63.989
63.9887
63.9884
63.9882
63.988
63.9878
63.9876
63.9875
63.9873
63.9883
63.9818
64.0168
63.8897
64.1543
168.881
164.701
138.384
101.169
73.5766
62.2767
61.0778
62.6217
63.7004
64.0283
64.0429
64.0102
63.9947
63.9918
63.9925
63.9933
63.9939
63.9944
63.9948
63.9952
63.9956
63.996
63.9963
63.9967
63.9969
63.9972
63.9974
63.9975
63.9977
63.9978
63.9979
63.998
63.998
63.998
63.998
63.9978
63.9979
63.992
64.0416
64.0378
64.024
64.0181
64.0066
63.9996
63.997
63.9955
63.9951
63.9951
63.995
63.9947
63.9943
63.994
63.9937
63.9934
63.9931
63.9928
63.9926
63.9923
63.992
63.9917
63.9914
63.9911
63.9908
63.9904
63.9901
63.9898
63.9895
63.9892
63.9888
63.9885
63.9882
63.9879
63.9876
63.9873
63.987
63.9868
63.9865
63.9863
63.9861
63.9859
63.9857
63.9855
63.9854
63.9853
63.9852
63.9862
63.9798
64.0148
63.8878
64.1523
168.881
164.701
138.384
101.169
73.5765
62.2765
61.0776
62.6215
63.7001
64.028
64.0426
64.0099
63.9943
63.9914
63.992
63.9928
63.9934
63.9939
63.9943
63.9946
63.995
63.9953
63.9956
63.9959
63.9962
63.9963
63.9965
63.9966
63.9967
63.9968
63.9969
63.9969
63.9969
63.9968
63.9966
63.9982
63.9746
64.1849
63.3097
62.3459
62.0921
61.9588
62.795
63.7565
64.0732
64.0402
63.996
63.9895
63.9914
63.9918
63.9914
63.9911
63.9908
63.9905
63.9902
63.9899
63.9896
63.9893
63.989
63.9887
63.9884
63.9881
63.9878
63.9875
63.9871
63.9868
63.9865
63.9861
63.9858
63.9855
63.9852
63.9848
63.9845
63.9842
63.984
63.9837
63.9835
63.9832
63.983
63.9829
63.9827
63.9826
63.9826
63.9826
63.9825
63.9836
63.9773
64.0123
63.8854
64.15
168.881
164.701
138.383
101.169
73.5764
62.2764
61.0774
62.6213
63.6999
64.0277
64.0423
64.0095
63.9939
63.991
63.9916
63.9923
63.9929
63.9933
63.9936
63.994
63.9943
63.9946
63.9948
63.9951
63.9953
63.9954
63.9955
63.9956
63.9957
63.9957
63.9957
63.9957
63.9956
63.9955
63.9951
63.9993
63.9351
64.5559
61.6261
59.2796
58.8455
58.5922
60.8389
63.3664
64.1874
64.107
63.9968
63.9802
63.9851
63.9867
63.9865
63.9862
63.986
63.9858
63.9856
63.9854
63.9852
63.985
63.9848
63.9845
63.9842
63.9839
63.9836
63.9833
63.983
63.9827
63.9824
63.9821
63.9818
63.9815
63.9812
63.981
63.9808
63.9806
63.9804
63.9803
63.9802
63.9801
63.9801
63.98
63.98
63.9801
63.9801
63.9803
63.9803
63.9815
63.9753
64.0104
63.8836
64.1483
168.881
164.701
138.383
101.168
73.5762
62.2762
61.0772
62.621
63.6996
64.0274
64.0419
64.0091
63.9935
63.9905
63.9911
63.9918
63.9923
63.9926
63.993
63.9932
63.9935
63.9937
63.994
63.9942
63.9943
63.9944
63.9945
63.9946
63.9946
63.9945
63.9945
63.9943
63.9942
63.994
63.9938
63.9923
64.0032
64.0048
63.0218
64.3662
65.1071
65.429
64.8394
64.1311
63.894
63.9334
63.9762
63.981
63.9783
63.9779
63.9782
63.9784
63.9785
63.9786
63.9787
63.9787
63.9788
63.9787
63.9787
63.9786
63.9785
63.9784
63.9783
63.9782
63.9781
63.978
63.978
63.9779
63.9778
63.9778
63.9778
63.9777
63.9777
63.9778
63.9778
63.9779
63.9779
63.978
63.9781
63.9783
63.9784
63.9785
63.9787
63.979
63.9791
63.9803
63.9742
64.0094
63.8826
64.1473
168.881
164.701
138.383
101.168
73.5761
62.276
61.077
62.6208
63.6993
64.027
64.0415
64.0087
63.993
63.99
63.9905
63.9912
63.9916
63.992
63.9922
63.9924
63.9927
63.9928
63.993
63.9932
63.9933
63.9933
63.9934
63.9935
63.9935
63.9935
63.9933
63.993
63.9927
63.9924
63.9937
63.9626
64.4032
60.2745
78.1645
94.8068
98.2822
100.218
85.1676
68.0301
62.4907
63.1251
63.9066
64.0151
63.9774
63.9658
63.9673
63.9688
63.9696
63.9703
63.9709
63.9714
63.9719
63.9723
63.9727
63.9731
63.9734
63.9737
63.9739
63.9742
63.9744
63.9746
63.9748
63.975
63.9752
63.9754
63.9756
63.9758
63.976
63.9762
63.9764
63.9766
63.9768
63.977
63.9772
63.9774
63.9776
63.9778
63.978
63.9783
63.9785
63.9797
63.9735
64.0088
63.882
64.1467
168.881
164.701
138.383
101.168
73.5759
62.2758
61.0767
62.6205
63.699
64.0267
64.0411
64.0082
63.9925
63.9895
63.9899
63.9906
63.991
63.9912
63.9915
63.9916
63.9918
63.9919
63.9921
63.9922
63.9922
63.9923
63.9922
63.992
63.9919
63.9918
63.9917
63.9916
63.9914
63.9909
63.9946
63.9154
65.0727
53.516
112.056
144.308
147.599
150.271
115.083
73.8514
60.4049
61.9361
63.8127
64.0712
63.9821
63.9544
63.9572
63.9604
63.962
63.9632
63.9644
63.9655
63.9665
63.9674
63.9683
63.969
63.9698
63.9704
63.971
63.9716
63.9721
63.9726
63.973
63.9734
63.9738
63.9742
63.9745
63.9748
63.9751
63.9754
63.9757
63.9759
63.9762
63.9764
63.9766
63.9768
63.9771
63.9773
63.9775
63.9777
63.9779
63.9791
63.973
64.0082
63.8813
64.146
168.88
164.701
138.383
101.168
73.5757
62.2756
61.0765
62.6202
63.6986
64.0263
64.0407
64.0077
63.992
63.9889
63.9894
63.99
63.9903
63.9906
63.9907
63.9909
63.991
63.9911
63.9912
63.9913
63.9913
63.9917
63.9899
63.9878
63.9871
63.9866
63.9881
63.99
63.9904
63.9897
63.9957
63.8802
65.4953
49.1099
142.594
171.991
170.675
172.017
129.042
76.7053
59.4424
61.3843
63.7643
64.0902
63.9797
63.9458
63.9496
63.9538
63.9561
63.9579
63.9596
63.9612
63.9627
63.964
63.9652
63.9663
63.9674
63.9683
63.9691
63.9699
63.9706
63.9713
63.9719
63.9725
63.973
63.9734
63.9738
63.9742
63.9746
63.9749
63.9752
63.9755
63.9757
63.9759
63.9762
63.9764
63.9766
63.9767
63.9769
63.9772
63.9773
63.9785
63.9723
64.0075
63.8806
64.1453
168.88
164.701
138.383
101.168
73.5756
62.2754
61.0763
62.6199
63.6983
64.026
64.0403
64.0074
63.9916
63.9885
63.9889
63.9895
63.9898
63.99
63.9902
63.9903
63.9904
63.9904
63.9905
63.9905
63.9905
63.9912
63.9877
63.9843
63.9832
63.9826
63.9853
63.9885
63.9896
63.9888
63.9963
63.8663
65.4913
50.2492
141.203
170.778
169.77
171.377
125.908
75.4163
59.7877
61.6737
63.7797
64.0597
63.9677
63.9408
63.9448
63.9491
63.9518
63.9541
63.9562
63.9582
63.96
63.9616
63.9631
63.9645
63.9657
63.9669
63.9679
63.9688
63.9697
63.9705
63.9712
63.9718
63.9724
63.9729
63.9733
63.9738
63.9741
63.9745
63.9748
63.975
63.9753
63.9755
63.9757
63.9759
63.976
63.9762
63.9764
63.9766
63.9767
63.9779
63.9717
64.0068
63.8799
64.1446
168.88
164.701
138.383
101.168
73.5755
62.2753
61.0761
62.6198
63.6981
64.0257
64.04
64.0071
63.9913
63.9882
63.9885
63.9891
63.9894
63.9896
63.9897
63.9898
63.9899
63.99
63.99
63.99
63.9905
63.9863
64.0025
64.0227
64.0285
64.0314
64.0142
63.9938
63.9869
63.9875
63.9879
63.9392
65.0823
51.8356
139.784
167.367
166.12
168.055
116.154
71.1722
60.0158
62.2008
63.8672
64.0379
63.9569
63.9379
63.9426
63.9468
63.9496
63.952
63.9543
63.9564
63.9584
63.9602
63.9618
63.9633
63.9647
63.966
63.9671
63.9681
63.969
63.9699
63.9706
63.9713
63.9719
63.9725
63.9729
63.9734
63.9738
63.9741
63.9744
63.9746
63.9749
63.9751
63.9753
63.9754
63.9756
63.9757
63.9759
63.9761
63.9762
63.9773
63.9711
64.0062
63.8793
64.144
168.88
164.701
138.383
101.168
73.5754
62.2752
61.076
62.6197
63.698
64.0256
64.0399
64.0069
63.9911
63.988
63.9883
63.9889
63.9892
63.9893
63.9895
63.9896
63.9896
63.9897
63.9897
63.9896
63.992
63.9708
64.0624
64.1555
64.1791
64.1913
64.1086
64.0134
63.9809
63.9853
63.9535
64.3061
62.8577
55.0971
108.708
123.191
121.85
123.288
82.9344
60.9122
59.742
62.8938
64.1031
64.0786
63.9551
63.9346
63.9426
63.9474
63.9497
63.9518
63.954
63.956
63.9579
63.9596
63.9613
63.9628
63.9642
63.9655
63.9666
63.9677
63.9686
63.9695
63.9703
63.9709
63.9716
63.9721
63.9726
63.973
63.9734
63.9738
63.974
63.9743
63.9745
63.9747
63.9749
63.9751
63.9752
63.9754
63.9755
63.9757
63.9758
63.9769
63.9707
64.0058
63.8789
64.1435
168.88
164.701
138.383
101.168
73.5754
62.2752
61.076
62.6196
63.698
64.0255
64.0398
64.0068
63.991
63.9879
63.9882
63.9888
63.9891
63.9892
63.9893
63.9894
63.9895
63.9896
63.9896
63.9897
63.99
63.9843
64.0342
64.0306
64.0172
64.0115
64
63.9926
63.9891
63.9893
63.9333
64.6575
59.211
57.5813
45.3699
39.3183
38.7861
38.0866
47.3388
54.1083
59.2958
63.0932
64.307
64.1666
63.9679
63.9344
63.9454
63.9509
63.9523
63.9536
63.9552
63.9568
63.9584
63.96
63.9614
63.9628
63.9641
63.9653
63.9664
63.9674
63.9683
63.9692
63.9699
63.9706
63.9712
63.9718
63.9722
63.9727
63.973
63.9734
63.9737
63.9739
63.9741
63.9743
63.9745
63.9747
63.9748
63.975
63.9751
63.9753
63.9754
63.9766
63.9703
64.0054
63.8785
64.1431
168.88
164.701
138.383
101.168
73.5754
62.2752
61.076
62.6196
63.698
64.0255
64.0398
64.0068
63.991
63.9879
63.9882
63.9888
63.9891
63.9892
63.9893
63.9894
63.9895
63.9896
63.9896
63.9914
63.968
64.1785
63.304
62.3417
62.0893
61.9578
62.7925
63.7511
64.0659
64.0234
64.0733
63.3268
62.1116
66.4067
70.6978
71.8382
71.81
71.9585
69.6651
69.1568
67.8174
65.0366
63.7768
63.7846
63.9364
63.9658
63.958
63.955
63.9555
63.9564
63.9573
63.9584
63.9596
63.9607
63.9619
63.9631
63.9642
63.9652
63.9662
63.9671
63.968
63.9687
63.9695
63.9701
63.9707
63.9712
63.9717
63.9721
63.9724
63.9728
63.9731
63.9733
63.9736
63.9738
63.9739
63.9741
63.9743
63.9744
63.9746
63.9748
63.9749
63.9761
63.9698
64.005
63.8781
64.1427
168.88
164.701
138.383
101.168
73.5754
62.2752
61.0761
62.6197
63.698
64.0256
64.0399
64.0069
63.9911
63.9879
63.9883
63.9888
63.9891
63.9893
63.9894
63.9895
63.9896
63.9897
63.9895
63.9941
63.9301
64.5507
61.6222
59.2789
58.8482
58.5987
60.8417
63.3621
64.1798
64.0716
64.3745
59.2037
88.4843
115.397
121.273
119.89
119.341
119.406
118.679
123.106
101.073
72.1698
61.5249
62.2819
63.7969
64.0623
63.9874
63.9564
63.9567
63.9586
63.9593
63.9598
63.9606
63.9615
63.9623
63.9632
63.9641
63.965
63.9658
63.9666
63.9673
63.968
63.9687
63.9692
63.9698
63.9702
63.9707
63.971
63.9714
63.9717
63.972
63.9723
63.9725
63.9727
63.9729
63.9731
63.9733
63.9735
63.9737
63.9739
63.974
63.9752
63.969
64.0042
63.8773
64.142
168.88
164.701
138.383
101.168
73.5755
62.2752
61.0761
62.6197
63.6981
64.0257
64.04
64.007
63.9912
63.988
63.9884
63.9889
63.9892
63.9894
63.9895
63.9896
63.9897
63.9898
63.9899
63.9887
64.0005
64.0033
63.019
64.3637
65.1046
65.4235
64.8346
64.1256
63.8863
63.9011
64.354
57.1656
151.539
183.006
173.991
170.88
170.754
170.823
183.907
190.306
137.206
79.0656
58.4857
60.4694
63.6451
64.178
64.0176
63.954
63.9552
63.9592
63.96
63.9604
63.961
63.9617
63.9624
63.9631
63.9638
63.9645
63.9652
63.9658
63.9664
63.9669
63.9674
63.9679
63.9683
63.9687
63.9691
63.9694
63.9698
63.97
63.9703
63.9705
63.9708
63.971
63.9712
63.9714
63.9716
63.9718
63.972
63.9722
63.9724
63.9736
63.9675
64.0027
63.8758
64.1406
168.88
164.701
138.383
101.168
73.5755
62.2753
61.0761
62.6198
63.6981
64.0257
64.04
64.0071
63.9913
63.9881
63.9885
63.9891
63.9894
63.9895
63.9896
63.9897
63.9898
63.9898
63.9916
63.96
64.4054
60.2842
78.1743
94.8069
98.2649
100.168
85.126
68.0209
62.489
63.1192
63.8119
64.7016
139.572
79.8674
57.3889
59.91
63.6116
64.2143
64.023
63.9504
63.953
63.9582
63.9595
63.9601
63.9608
63.9614
63.9621
63.9628
63.9634
63.9639
63.9643
63.9647
63.9651
63.9655
63.9659
63.9662
63.9665
63.9668
63.9671
63.9673
63.9676
63.9678
63.968
63.9682
63.9684
63.9685
63.9687
63.9689
63.9691
63.9693
63.9695
63.9698
63.97
63.9712
63.9651
64.0003
63.8735
64.1383
168.88
164.701
138.383
101.168
73.5755
62.2753
61.0762
62.6198
63.6982
64.0258
64.0401
64.0071
63.9913
63.9882
63.9886
63.9892
63.9895
63.9896
63.9898
63.9899
63.9899
63.9899
63.9941
63.9146
65.0782
53.5281
112.12
144.374
147.63
150.238
114.988
73.8185
60.4049
61.9278
63.7969
64.005
138.031
78.9353
57.5767
60.1323
63.6365
64.1936
64.014
63.9476
63.9509
63.9563
63.9579
63.9588
63.9596
63.9603
63.9608
63.9613
63.9618
63.9622
63.9627
63.9632
63.9635
63.9638
63.964
63.9642
63.9644
63.9646
63.9648
63.9649
63.9651
63.9652
63.9653
63.9654
63.9656
63.9657
63.9658
63.966
63.9661
63.9663
63.9665
63.9667
63.9669
63.9682
63.962
63.9973
63.8705
64.1353
168.88
164.701
138.383
101.168
73.5756
62.2753
61.0762
62.6198
63.6982
64.0258
64.0402
64.0072
63.9914
63.9883
63.9887
63.9892
63.9895
63.9897
63.9899
63.99
63.9901
63.9899
63.9954
63.8908
65.4635
49.0191
142.675
172.115
170.764
172.044
128.827
76.5312
59.3658
61.3606
63.7467
64.088
138.425
79.192
57.5364
60.076
63.6265
64.1944
64.0125
63.9451
63.9487
63.9544
63.9562
63.9572
63.958
63.9592
63.9582
63.9567
63.9566
63.9567
63.9588
63.9611
63.9621
63.9623
63.9624
63.9625
63.9626
63.9627
63.9628
63.9629
63.9629
63.963
63.963
63.9631
63.9631
63.9632
63.9632
63.9633
63.9634
63.9635
63.9636
63.9638
63.964
63.9652
63.959
63.9943
63.8674
64.1323
168.88
164.701
138.383
101.168
73.5756
62.2754
61.0762
62.6199
63.6982
64.0259
64.0402
64.0072
63.9915
63.9884
63.9887
63.9893
63.9896
63.9898
63.9899
63.99
63.9901
63.99
63.9948
63.9011
65.3378
49.9084
141.068
170.658
169.56
171.058
125.389
74.9565
59.5369
61.6103
63.7747
64.0633
138.606
79.3758
57.534
60.0376
63.6159
64.1939
64.0108
63.9425
63.9463
63.9523
63.9543
63.9554
63.9564
63.9581
63.9554
63.9527
63.9523
63.9524
63.9557
63.9596
63.9612
63.9615
63.9615
63.9617
63.9618
63.9619
63.9619
63.962
63.962
63.962
63.962
63.962
63.962
63.962
63.962
63.962
63.9621
63.9621
63.9622
63.9623
63.9624
63.9636
63.9574
63.9926
63.8657
64.1305
168.88
164.701
138.383
101.168
73.5756
62.2754
61.0762
62.6199
63.6983
64.0259
64.0402
64.0073
63.9915
63.9884
63.9888
63.9893
63.9896
63.9898
63.99
63.9901
63.9902
63.9901
63.9936
63.9242
65.0467
51.9343
139.868
167.355
165.99
167.788
116.071
71.2973
60.1377
62.2244
63.8401
64.0284
139.345
79.8847
57.4889
59.941
63.5963
64.1954
64.009
63.939
63.943
63.9495
63.9519
63.9532
63.955
63.952
63.9692
63.9904
63.9972
64.001
63.9845
63.9649
63.9588
63.9601
63.9615
63.9619
63.9621
63.9622
63.9624
63.9625
63.9626
63.9627
63.9627
63.9628
63.9628
63.9628
63.9628
63.9628
63.9629
63.9629
63.963
63.9632
63.9632
63.9644
63.9581
63.9933
63.8664
64.1312
168.88
164.701
138.383
101.168
73.5756
62.2754
61.0763
62.6199
63.6983
64.0259
64.0403
64.0073
63.9915
63.9884
63.9888
63.9894
63.9897
63.9899
63.99
63.9901
63.9902
63.9903
63.9912
63.9709
64.3613
58.5486
111.91
126.105
124.653
125.986
86.4053
64.9624
62.2846
63.4598
63.9257
63.9634
139.512
79.3353
57.3749
60.0371
63.6229
64.1848
64.0019
63.9359
63.9404
63.947
63.9495
63.951
63.9549
63.9352
64.028