/*--------------------------------*- C++ -*----------------------------------*\
| =========                 |                                                 |
| \\      /  F ield         | OpenFOAM: The Open Source CFD Toolbox           |
|  \\    /   O peration     | Version:  v2012                                 |
|   \\  /    A nd           | Website:  www.openfoam.com                      |
|    \\/     M anipulation  |                                                 |
\*---------------------------------------------------------------------------*/
FoamFile
{
    version     2.0;
    format      ascii;
    class       volScalarField;
    location    "100/air";
    object      ILambda_56_0;
}
// * * * * * * * * * * * * * * * * * * * * * * * * * * * * * * * * * * * * * //

dimensions      [1 0 -3 0 0 0 0];


internalField   nonuniform List<scalar> 
287104
(
65.6
65.6039
65.6073
65.6105
65.6135
65.6163
65.6191
65.6217
65.6242
65.6267
65.6292
65.6317
65.6343
65.6368
65.6394
65.6419
65.6443
65.6466
65.6487
65.6508
65.6528
65.6547
65.6565
65.6584
65.6602
65.6621
65.664
65.666
65.668
65.67
65.672
65.6741
65.6766
65.68
65.6849
65.6925
65.7044
65.7232
65.7527
65.7984
65.8684
65.974
66.1305
66.3584
66.684
67.1407
67.7694
68.6185
69.7438
71.2076
73.0764
75.4186
78.3006
81.782
85.91
90.7122
96.1896
102.308
108.993
116.12
123.519
130.975
138.239
145.052
151.165
156.372
160.535
163.608
165.645
166.795
167.276
167.332
167.187
167.007
166.881
166.828
166.825
166.836
166.837
166.823
166.805
166.793
166.792
166.801
166.815
166.818
166.788
166.853
167.957
172.734
65.5993
65.6031
65.6063
65.6094
65.6122
65.6149
65.6175
65.6199
65.6223
65.6246
65.6268
65.6291
65.6315
65.6338
65.6362
65.6386
65.6409
65.6432
65.6455
65.6477
65.6498
65.6519
65.6539
65.6557
65.6574
65.6589
65.6604
65.6619
65.6634
65.665
65.6667
65.6686
65.671
65.6743
65.6791
65.6866
65.6985
65.7171
65.7465
65.7922
65.8621
65.9677
66.1241
66.3519
66.6775
67.1342
67.7629
68.6119
69.7372
71.201
73.0697
75.4119
78.2939
81.7752
85.9031
90.7053
96.1827
102.301
108.986
116.113
123.512
130.967
138.232
145.045
151.158
156.365
160.527
163.6
165.637
166.788
167.268
167.323
167.178
166.998
166.872
166.819
166.815
166.826
166.826
166.813
166.794
166.782
166.78
166.788
166.799
166.798
166.758
166.803
167.866
172.56
65.5989
65.6026
65.6058
65.6087
65.6115
65.6141
65.6166
65.6189
65.6212
65.6233
65.6255
65.6277
65.6299
65.6322
65.6345
65.6369
65.6393
65.6417
65.6442
65.6466
65.649
65.6513
65.6535
65.6555
65.6571
65.6585
65.6597
65.6607
65.6616
65.6627
65.6639
65.6654
65.6675
65.6706
65.6752
65.6826
65.6943
65.7129
65.7422
65.7877
65.8576
65.963
66.1194
66.3471
66.6726
67.1292
67.7577
68.6067
69.7319
71.1956
73.0642
75.4063
78.2882
81.7695
85.8973
90.6993
96.1766
102.295
108.98
116.107
123.506
130.961
138.225
145.038
151.151
156.358
160.52
163.593
165.63
166.78
167.261
167.316
167.17
166.99
166.863
166.81
166.806
166.816
166.817
166.803
166.785
166.772
166.77
166.777
166.787
166.783
166.737
166.759
167.747
172.268
65.5985
65.602
65.6051
65.608
65.6107
65.6132
65.6156
65.6178
65.6199
65.622
65.624
65.6261
65.6282
65.6304
65.6328
65.6352
65.6378
65.6404
65.643
65.6456
65.6481
65.6505
65.6526
65.6544
65.6559
65.6571
65.658
65.6588
65.6596
65.6604
65.6613
65.6625
65.6642
65.6668
65.6712
65.6784
65.69
65.7085
65.7377
65.7831
65.8528
65.9582
66.1144
66.342
66.6674
67.1239
67.7523
68.6012
69.7263
71.1899
73.0585
75.4004
78.2822
81.7634
85.8911
90.6931
96.1702
102.289
108.973
116.1
123.499
130.954
138.218
145.031
151.144
156.35
160.513
163.585
165.622
166.772
167.253
167.308
167.162
166.981
166.854
166.8
166.796
166.806
166.806
166.792
166.774
166.761
166.758
166.765
166.773
166.768
166.718
166.716
167.615
171.921
65.598
65.6014
65.6044
65.6072
65.6098
65.6123
65.6146
65.6167
65.6187
65.6207
65.6227
65.6247
65.6267
65.629
65.6314
65.634
65.6367
65.6395
65.6421
65.6445
65.6465
65.6481
65.6492
65.65
65.6505
65.6509
65.6515
65.6523
65.6537
65.6554
65.6573
65.6593
65.6612
65.6637
65.6677
65.6746
65.686
65.7043
65.7334
65.7787
65.8483
65.9535
66.1096
66.3371
66.6624
67.1188
67.7471
68.5959
69.7209
71.1844
73.0529
75.3948
78.2765
81.7575
85.8851
90.687
96.1641
102.283
108.967
116.094
123.492
130.947
138.211
145.024
151.137
156.343
160.506
163.578
165.615
166.765
167.245
167.3
167.154
166.972
166.845
166.791
166.787
166.796
166.796
166.782
166.763
166.75
166.748
166.753
166.761
166.755
166.701
166.679
167.494
171.582
65.5974
65.6008
65.6037
65.6064
65.6089
65.6113
65.6135
65.6156
65.6175
65.6194
65.6213
65.6232
65.6254
65.6277
65.6303
65.6331
65.6359
65.6385
65.6407
65.6421
65.6427
65.6423
65.6413
65.64
65.6385
65.6374
65.637
65.6375
65.6395
65.643
65.6476
65.6524
65.6568
65.6606
65.6649
65.6714
65.6823
65.7005
65.7295
65.7747
65.8442
65.9493
66.1053
66.3327
66.6579
67.1142
67.7425
68.5911
69.7161
71.1795
73.0479
75.3897
78.2713
81.7523
85.8799
90.6817
96.1587
102.277
108.961
116.088
123.486
130.941
138.205
145.018
151.131
156.337
160.499
163.572
165.608
166.758
167.238
167.293
167.147
166.965
166.838
166.784
166.779
166.787
166.787
166.772
166.753
166.74
166.738
166.743
166.751
166.743
166.687
166.648
167.391
171.294
65.5969
65.6001
65.6029
65.6055
65.608
65.6102
65.6123
65.6143
65.6161
65.6179
65.6198
65.6218
65.6241
65.6266
65.6295
65.6324
65.6351
65.6371
65.6381
65.6376
65.6357
65.6325
65.6289
65.6255
65.623
65.6215
65.6207
65.6207
65.6218
65.625
65.6309
65.6389
65.6476
65.6554
65.662
65.6691
65.6796
65.6973
65.7261
65.7714
65.8408
65.9458
66.1017
66.329
66.6541
67.1103
67.7385
68.5871
69.712
71.1753
73.0436
75.3854
78.267
81.7479
85.8754
90.6772
96.1541
102.272
108.956
116.083
123.482
130.936
138.2
145.013
151.126
156.332
160.494
163.566
165.603
166.753
167.233
167.288
167.141
166.96
166.832
166.777
166.772
166.78
166.779
166.764
166.745
166.732
166.729
166.735
166.742
166.734
166.676
166.623
167.306
171.056
65.5963
65.5993
65.6021
65.6046
65.6069
65.6091
65.6111
65.6129
65.6146
65.6164
65.6182
65.6203
65.6228
65.6257
65.6288
65.6318
65.634
65.6349
65.6339
65.6309
65.6261
65.6206
65.616
65.614
65.6154
65.6198
65.6249
65.628
65.6275
65.6248
65.6232
65.6263
65.6346
65.6461
65.6574
65.6676
65.6789
65.6961
65.7244
65.7695
65.8389
65.9438
66.0996
66.3268
66.6518
67.108
67.7361
68.5846
69.7094
71.1726
73.0409
75.3826
78.2641
81.745
85.8724
90.6741
96.151
102.269
108.953
116.08
123.478
130.933
138.197
145.009
151.122
156.328
160.491
163.563
165.599
166.749
167.229
167.284
167.137
166.955
166.827
166.772
166.766
166.774
166.773
166.757
166.737
166.724
166.722
166.727
166.734
166.728
166.67
166.61
167.246
170.851
65.5957
65.5986
65.6012
65.6036
65.6058
65.6078
65.6097
65.6114
65.6131
65.6148
65.6167
65.6191
65.622
65.6253
65.6288
65.6318
65.6333
65.6326
65.6294
65.624
65.6178
65.613
65.6123
65.6182
65.6325
65.6541
65.6783
65.697
65.7023
65.6915
65.6697
65.648
65.6365
65.6389
65.6512
65.6663
65.6813
65.6992
65.7268
65.7714
65.8409
65.9458
66.1015
66.3285
66.6534
67.1094
67.7374
68.5858
69.7105
71.1736
73.0418
75.3834
78.2647
81.7455
85.8728
90.6744
96.1512
102.269
108.953
116.08
123.478
130.933
138.197
145.009
151.122
156.328
160.49
163.562
165.598
166.748
167.228
167.282
167.136
166.954
166.826
166.77
166.764
166.771
166.769
166.753
166.732
166.719
166.716
166.721
166.729
166.723
166.669
166.615
167.233
170.666
65.5951
65.5978
65.6003
65.6026
65.6047
65.6066
65.6084
65.61
65.6116
65.6135
65.616
65.6191
65.6229
65.6271
65.6312
65.6342
65.6349
65.6325
65.6275
65.6217
65.6179
65.6197
65.63
65.6508
65.6836
65.7281
65.7803
65.8295
65.8599
65.8572
65.8185
65.7571
65.6971
65.66
65.6524
65.6658
65.6865
65.7084
65.7364
65.7801
65.8492
65.9542
66.1099
66.3368
66.6616
67.1175
67.7453
68.5936
69.7182
71.1811
73.0491
75.3906
78.2718
81.7524
85.8796
90.681
96.1577
102.276
108.959
116.086
123.484
130.939
138.202
145.014
151.127
156.333
160.495
163.567
165.603
166.753
167.232
167.287
167.14
166.958
166.829
166.774
166.767
166.774
166.771
166.753
166.732
166.717
166.714
166.718
166.725
166.719
166.667
166.626
167.274
170.585
65.5945
65.5971
65.5995
65.6016
65.6036
65.6055
65.6072
65.6088
65.6105
65.6128
65.6165
65.6209
65.6262
65.6318
65.6365
65.6392
65.6387
65.6348
65.6292
65.626
65.6303
65.6462
65.6743
65.711
65.7522
65.7979
65.8521
65.917
65.9824
66.0246
66.0173
65.9516
65.8475
65.7456
65.6823
65.6679
65.6862
65.7151
65.747
65.7902
65.8582
65.9631
66.119
66.3458
66.6705
67.1265
67.7543
68.6025
69.727
71.1899
73.0578
75.3992
78.2803
81.7608
85.8879
90.6892
96.1658
102.284
108.967
116.094
123.492
130.946
138.21
145.022
151.134
156.34
160.501
163.573
165.609
166.759
167.239
167.293
167.146
166.963
166.835
166.779
166.772
166.778
166.774
166.755
166.732
166.716
166.712
166.716
166.722
166.715
166.657
166.608
167.267
170.57
65.5939
65.5964
65.5987
65.6008
65.6028
65.6047
65.6064
65.6081
65.6099
65.6124
65.6162
65.6211
65.6267
65.6322
65.6362
65.6368
65.6334
65.6271
65.6218
65.6242
65.6416
65.6773
65.7257
65.7696
65.7876
65.7705
65.735
65.7202
65.7622
65.8619
65.9743
66.0337
65.9995
65.8884
65.763
65.6849
65.6722
65.7011
65.7416
65.7879
65.8545
65.9585
66.1145
66.3415
66.6661
67.122
67.7499
68.5981
69.7225
71.1853
73.0532
75.3945
78.2755
81.756
85.883
90.6843
96.1607
102.279
108.962
116.088
123.486
130.94
138.204
145.016
151.128
156.334
160.495
163.567
165.603
166.752
167.232
167.286
167.139
166.956
166.827
166.771
166.764
166.77
166.765
166.746
166.723
166.706
166.701
166.705
166.712
166.706
166.645
166.571
167.151
170.304
65.5934
65.5958
65.598
65.6001
65.6022
65.6042
65.6062
65.6081
65.6101
65.6128
65.617
65.6224
65.6286
65.6343
65.6371
65.6353
65.6289
65.6209
65.6183
65.6296
65.6624
65.7171
65.7795
65.8135
65.7687
65.6069
65.3419
65.06
64.8924
64.9408
65.2041
65.5646
65.8543
65.9609
65.8957
65.7674
65.6856
65.6837
65.7283
65.7842
65.8521
65.954
66.1096
66.3369
66.6614
67.1171
67.7449
68.593
69.7174
71.1801
73.0479
75.3891
78.2701
81.7505
85.8774
90.6786
96.155
102.273
108.956
116.082
123.48
130.935
138.198
145.01
151.122
156.327
160.489
163.56
165.597
166.746
167.225
167.279
167.132
166.95
166.821
166.764
166.757
166.762
166.757
166.738
166.714
166.696
166.691
166.694
166.701
166.696
166.634
166.539
167.045
170.034
65.593
65.5953
65.5976
65.5998
65.602
65.6043
65.6064
65.6084
65.6105
65.6133
65.6176
65.6232
65.6298
65.6353
65.637
65.6326
65.6234
65.6158
65.6194
65.6424
65.6872
65.7466
65.7992
65.8
65.6765
65.349
64.7881
64.0816
63.449
63.1588
63.3775
64.0484
64.8979
65.5859
65.908
65.9015
65.7683
65.6892
65.7079
65.7741
65.8508
65.9515
66.1051
66.3328
66.6575
67.113
67.7406
68.5886
69.7129
71.1755
73.0432
75.3843
78.2652
81.7456
85.8724
90.6735
96.1499
102.268
108.951
116.077
123.475
130.929
138.192
145.004
151.116
156.322
160.483
163.555
165.591
166.74
167.219
167.273
167.126
166.944
166.815
166.758
166.751
166.756
166.751
166.731
166.706
166.688
166.682
166.684
166.691
166.687
166.624
166.509
166.947
169.812
65.5927
65.595
65.5974
65.5998
65.6022
65.6046
65.6068
65.6087
65.6103
65.6124
65.6159
65.6208
65.6267
65.6314
65.6312
65.624
65.6131
65.6089
65.6242
65.6629
65.7122
65.7462
65.7396
65.6705
65.4989
65.1414
64.494
63.528
62.4016
61.4747
61.1608
61.6829
62.8956
64.3227
65.4225
65.9153
65.9174
65.7636
65.6998
65.7523
65.8453
65.9513
66.1016
66.3284
66.6538
67.1091
67.7365
68.5845
69.7086
71.1712
73.0388
75.3798
78.2606
81.7409
85.8677
90.6687
96.145
102.263
108.946
116.072
123.47
130.924
138.187
144.999
151.111
156.316
160.478
163.549
165.585
166.734
167.214
167.268
167.121
166.938
166.809
166.753
166.745
166.75
166.744
166.724
166.699
166.68
166.673
166.675
166.682
166.679
166.615
166.482
166.855
169.598
65.5925
65.595
65.5976
65.6001
65.6026
65.6049
65.6067
65.6077
65.6081
65.6084
65.6099
65.6128
65.6169
65.6197
65.6167
65.6058
65.5929
65.5946
65.6282
65.6903
65.7394
65.7108
65.5701
65.3633
65.1959
65.1186
65.0092
64.5928
63.65
62.2745
60.95
60.3294
60.8287
62.3083
64.1034
65.4444
65.9764
65.923
65.7521
65.7295
65.8271
65.9508
66.1005
66.3238
66.6499
67.1056
67.7326
68.5805
69.7045
71.167
73.0345
75.3755
78.2562
81.7364
85.8631
90.6641
96.1403
102.258
108.941
116.067
123.465
130.919
138.182
144.994
151.106
156.311
160.473
163.544
165.58
166.729
167.208
167.262
167.115
166.933
166.804
166.747
166.739
166.744
166.739
166.718
166.693
166.674
166.666
166.666
166.672
166.67
166.607
166.458
166.769
169.395
65.5924
65.5952
65.598
65.6006
65.603
65.6047
65.6053
65.6046
65.6027
65.6005
65.5995
65.6005
65.6032
65.6046
65.5992
65.584
65.5672
65.5732
65.6282
65.7229
65.7775
65.6611
65.3039
64.8462
64.6762
65.2219
66.5666
68.1891
69.1329
68.59
66.5066
63.7445
61.6311
61.1523
62.3142
64.1713
65.5758
66.0396
65.9054
65.7495
65.7954
65.941
66.1024
66.3202
66.6452
67.1021
67.7288
68.5766
69.7007
71.163
73.0304
75.3713
78.252
81.7321
85.8587
90.6597
96.1358
102.253
108.936
116.062
123.46
130.914
138.177
144.989
151.101
156.306
160.468
163.539
165.575
166.724
167.203
167.257
167.11
166.928
166.799
166.742
166.734
166.739
166.734
166.713
166.687
166.668
166.659
166.659
166.663
166.661
166.599
166.438
166.694
169.206
65.5926
65.5956
65.5986
65.6011
65.6029
65.6032
65.6018
65.5985
65.594
65.5898
65.588
65.59
65.5958
65.6017
65.5998
65.584
65.5623
65.5662
65.6354
65.7647
65.8389
65.6396
65.0118
64.1591
63.8333
65.1059
68.6533
73.9735
79.2257
82.0394
80.8767
76.0314
69.5732
64.2343
61.8688
62.4433
64.3296
65.7475
66.0833
65.8752
65.7797
65.9108
66.1019
66.3198
66.6393
67.0982
67.7251
68.5726
69.6968
71.1591
73.0265
75.3673
78.248
81.728
85.8546
90.6555
96.1315
102.249
108.932
116.058
123.456
130.91
138.173
144.985
151.097
156.302
160.463
163.535
165.57
166.719
167.199
167.252
167.105
166.923
166.794
166.738
166.73
166.735
166.729
166.709
166.683
166.663
166.653
166.652
166.655
166.652
166.59
166.423
166.633
169.041
65.5929
65.5963
65.5992
65.6013
65.6018
65.6
65.5957
65.5897
65.5837
65.5801
65.582
65.5913
65.6084
65.6293
65.6441
65.6413
65.623
65.621
65.6883
65.837
65.9389
65.6916
64.8036
63.4379
62.6472
64.2803
70.0158
79.9069
91.526
100.67
103.457
98.4964
87.716
75.4067
66.0371
61.9707
62.4298
64.5773
65.9612
66.0966
65.8486
65.8665
66.0847
66.3231
66.6329
67.0917
67.7207
68.5676
69.6922
71.1546
73.0221
75.363
78.2436
81.7236
85.8502
90.6511
96.1271
102.245
108.928
116.054
123.451
130.905
138.168
144.98
151.092
156.297
160.459
163.53
165.566
166.715
167.194
167.248
167.101
166.918
166.79
166.733
166.726
166.731
166.725
166.704
166.678
166.658
166.649
166.646
166.647
166.64
166.578
166.407
166.576
168.897
65.5933
65.597
65.5998
65.6009
65.5994
65.5948
65.5877
65.5802
65.5758
65.5783
65.5903
65.6128
65.6455
65.6861
65.7266
65.7542
65.7617
65.7689
65.8283
65.9725
66.0928
65.8441
64.784
62.8974
61.3037
62.4812
69.303
82.9908
101.299
118.632
128.531
127.037
114.699
96.1919
78.0842
65.8659
61.4318
62.5322
65.0118
66.1686
66.0531
65.8594
66.0359
66.3218
66.6282
67.0801
67.7132
68.5596
69.6845
71.1474
73.0151
75.3562
78.2369
81.7171
85.8438
90.6447
96.1209
102.238
108.922
116.047
123.445
130.899
138.162
144.974
151.086
156.291
160.453
163.524
165.56
166.709
167.188
167.241
167.094
166.912
166.783
166.727
166.719
166.724
166.719
166.698
166.672
166.653
166.643
166.64
166.639
166.628
166.565
166.391
166.509
168.726
65.594
65.5979
65.6001
65.5997
65.5957
65.5881
65.5791
65.5732
65.5761
65.5922
65.6207
65.6566
65.6938
65.7309
65.7716
65.8182
65.8673
65.9215
66.0074
66.1539
66.2864
66.0834
65.0077
62.7788
60.2558
60.0855
66.0972
81.0447
103.858
128.701
147.228
152.795
143.671
123.373
98.758
77.3597
64.5214
61.0083
63.0214
65.5515
66.2685
65.9817
65.9724
66.2967
66.6288
67.063
67.7006
68.5473
69.6717
71.1354
73.0034
75.3451
78.2263
81.7069
85.834
90.6353
96.1118
102.23
108.913
116.039
123.437
130.891
138.154
144.966
151.078
156.283
160.445
163.516
165.552
166.7
167.179
167.233
167.086
166.903
166.774
166.718
166.711
166.716
166.711
166.691
166.666
166.646
166.637
166.634
166.631
166.618
166.554
166.383
166.458
168.555
65.5948
65.5988
65.6002
65.5978
65.591
65.5811
65.5724
65.5725
65.5892
65.6262
65.676
65.7184
65.7293
65.6994
65.6497
65.6245
65.6649
65.7831
65.9668
66.1945
66.3942
66.3139
65.4387
63.2681
60.1501
58.2725
61.7071
74.5421
97.6488
126.485
152.327
166.627
165.232
149.484
124.556
97.4574
75.4122
63.3564
61.1461
63.8241
66.0471
66.2624
65.986
66.238
66.645
67.0582
67.6944
68.5439
69.666
71.1298
72.9973
75.3386
78.2197
81.7002
85.8272
90.6285
96.105
102.223
108.906
116.033
123.431
130.885
138.148
144.96
151.072
156.278
160.44
163.511
165.547
166.696
167.176
167.229
167.082
166.9
166.771
166.715
166.708
166.713
166.708
166.689
166.664
166.645
166.635
166.632
166.628
166.613
166.546
166.374
166.44
168.507
65.596
65.5999
65.6001
65.5955
65.5862
65.5754
65.5706
65.5813
65.6158
65.6746
65.7409
65.7746
65.7207
65.5422
65.2627
64.9818
64.8351
64.9142
65.2103
65.6293
66.0385
66.2397
65.8526
64.3391
61.5268
58.6387
59.0095
67.1865
86.0386
113.627
142.782
164.535
172.839
166.674
148.639
123.037
95.7412
73.9147
62.8272
61.8106
64.8277
66.4297
66.181
66.1493
66.6469
67.0657
67.6855
68.5434
69.6623
71.1264
72.9934
75.3345
78.2153
81.6956
85.8225
90.6238
96.1002
102.218
108.902
116.028
123.426
130.88
138.144
144.956
151.068
156.274
160.436
163.507
165.543
166.692
167.172
167.225
167.078
166.895
166.767
166.711
166.703
166.709
166.704
166.685
166.66
166.641
166.632
166.628
166.623
166.606
166.539
166.372
166.425
168.318
65.5976
65.6014
65.6004
65.5935
65.5823
65.5733
65.5769
65.602
65.6519
65.7192
65.7796
65.7825
65.6498
65.3034
64.7293
64.0384
63.4573
63.2196
63.4238
63.9798
64.6914
65.3704
65.8133
65.6584
64.4606
62.3638
61.1468
64.5023
76.3758
97.8222
124.921
150.176
166.685
171.347
164.447
147.401
122.517
95.0281
73.0998
62.8974
62.9911
65.8975
66.5281
66.1306
66.5898
67.0912
67.6698
68.5417
69.6574
71.1224
72.9893
75.3304
78.211
81.6912
85.818
90.6192
96.0957
102.214
108.897
116.023
123.421
130.876
138.139
144.951
151.063
156.269
160.431
163.502
165.538
166.688
167.167
167.22
167.073
166.89
166.761
166.705
166.698
166.704
166.699
166.68
166.655
166.636
166.627
166.624
166.618
166.599
166.532
166.374
166.423
168.072
65.6002
65.6038
65.6015
65.5926
65.5806
65.5764
65.5934
65.6364
65.6927
65.7361
65.7381
65.6708
65.4882
65.1097
64.4519
63.5195
62.4836
61.6457
61.2797
61.4803
62.1711
63.2617
64.7465
66.5555
68.2819
69.2823
69.5257
70.7007
76.2067
89.1395
109.43
132.839
153.189
165.922
169.499
163.764
148.223
123.508
94.913
72.3352
63.1058
64.3099
66.6178
66.3707
66.4299
67.1322
67.6448
68.5328
69.6471
71.1135
72.982
75.3241
78.2053
81.6856
85.8121
90.6131
96.0895
102.207
108.891
116.017
123.415
130.869
138.133
144.945
151.057
156.262
160.424
163.496
165.532
166.681
167.161
167.215
167.067
166.885
166.756
166.699
166.692
166.698
166.694
166.675
166.651
166.632
166.623
166.62
166.614
166.594
166.525
166.374
166.427
167.892
65.6046
65.6079
65.6047
65.5941
65.582
65.5849
65.6204
65.6852
65.7378
65.7125
65.5713
65.3549
65.1641
65.0554
64.9338
64.5685
63.7609
62.5296
61.1473
60.0207
59.5655
60.1937
62.3299
66.2541
71.7168
77.6468
82.5339
85.6928
88.5314
94.2791
105.699
122.519
141.083
156.718
166.494
169.59
165.081
150.384
124.168
92.503
69.014
62.4694
65.7739
66.9979
66.172
67.1701
67.6121
68.5097
69.6252
71.093
72.9648
75.3102
78.1943
81.6762
85.8033
90.6042
96.0803
102.198
108.882
116.008
123.406
130.861
138.125
144.937
151.049
156.255
160.417
163.489
165.526
166.676
167.155
167.21
167.063
166.88
166.752
166.695
166.688
166.694
166.69
166.671
166.647
166.629
166.62
166.617
166.611
166.59
166.52
166.372
166.427
167.782
65.6122
65.6151
65.6115
65.5997
65.5877
65.5979
65.6544
65.7465
65.7937
65.6646
65.2857
64.7921
64.5686
65.0538
66.3665
68.0426
69.1581
68.8237
66.7198
63.3448
59.9116
58.019
59.2009
64.4028
73.4851
84.9533
96.2182
104.68
109.395
112.11
116.331
124.711
136.946
150.087
160.903
167.899
170.632
166.446
149.321
116.87
80.9043
61.9791
63.8752
67.85
65.9088
67.1792
67.5855
68.478
69.5967
71.0635
72.9374
75.2868
78.1761
81.6627
85.7929
90.5949
96.0713
102.189
108.873
116
123.399
130.854
138.118
144.931
151.044
156.25
160.413
163.485
165.522
166.672
167.152
167.207
167.06
166.878
166.749
166.693
166.686
166.692
166.687
166.669
166.645
166.627
166.618
166.615
166.608
166.587
166.516
166.368
166.417
167.694
65.6253
65.6279
65.6243
65.612
65.5995
65.6142
65.6889
65.8124
65.8677
65.638
64.9679
64.055
63.6448
64.8171
68.2891
73.6301
79.0512
82.1114
80.9823
75.5083
67.5224
60.3362
57.5819
61.7532
73.0723
89.3142
106.667
121.174
130.305
134.149
135.351
137.368
142.203
149.461
157.268
163.941
168.627
169.328
159.651
131.896
91.3182
62.6919
62.0501
68.487
65.7921
67.1481
67.5947
68.4691
69.5914
71.0519
72.9186
75.2639
78.1537
81.645
85.7809
90.5868
96.0646
102.183
108.867
115.994
123.393
130.849
138.113
144.926
151.04
156.246
160.409
163.482
165.519
166.669
167.15
167.204
167.058
166.876
166.748
166.691
166.684
166.69
166.685
166.667
166.643
166.625
166.616
166.613
166.606
166.584
166.513
166.363
166.4
167.606
65.6471
65.6495
65.6466
65.6347
65.621
65.6348
65.7182
65.8701
65.957
65.6822
64.7635
63.3621
62.5137
64.0537
69.6847
79.5333
91.2491
100.592
103.41
97.83
85.4597
71.0921
61.0513
60.5794
71.3005
90.3833
112.189
131.192
144.134
150.594
152.413
152.375
152.709
154.375
157.367
161.04
164.01
163.657
154.747
130.288
92.1206
62.3482
61.4548
68.598
65.9374
67.0877
67.6613
68.5228
69.6525
71.1054
72.9512
75.2722
78.1429
81.6264
85.7643
90.5764
96.0587
102.178
108.862
115.989
123.389
130.845
138.11
144.923
151.037
156.244
160.407
163.48
165.517
166.667
167.148
167.203
167.056
166.875
166.746
166.69
166.683
166.688
166.684
166.665
166.641
166.622
166.614
166.61
166.604
166.582
166.511
166.359
166.381
167.521
65.6828
65.6848
65.6831
65.6729
65.6583
65.6656
65.7426
65.908
66.0435
65.8139
64.8022
63.007
61.5214
62.7644
69.5706
83.1952
101.481
118.849
128.634
126.435
112.454
91.8109
72.9182
64.2847
70.463
89.3731
113.568
135.028
149.513
157.208
160.492
161.643
161.839
161.421
160.814
160.546
159.738
155.299
142.977
119.149
86.3319
61.504
61.2993
68.1761
66.385
67.0312
67.7648
68.6446
69.7912
71.2541
73.081
75.362
78.1843
81.629
85.7486
90.5604
96.0496
102.174
108.858
115.985
123.385
130.841
138.107
144.92
151.034
156.241
160.405
163.478
165.515
166.665
167.146
167.201
167.055
166.873
166.745
166.689
166.682
166.687
166.682
166.663
166.639
166.62
166.611
166.607
166.601
166.579
166.509
166.356
166.363
167.448
65.7392
65.741
65.7405
65.7331
65.719
65.7173
65.7738
65.927
66.1047
65.9991
65.1124
63.2036
61.1148
61.3867
67.7034
82.7423
105.48
130.152
148.303
152.929
141.973
119.362
93.7872
75.8884
73.8345
88.578
112.693
135.377
149.952
156.851
160.191
162.994
165.587
166.81
165.93
163.463
159.325
150.886
134.934
110.863
82.2092
61.2977
60.506
66.9083
67.0734
67.0347
67.8068
68.7365
69.8972
71.4072
73.2628
75.5379
78.3148
81.6945
85.7592
90.545
96.0337
102.166
108.856
115.982
123.381
130.838
138.103
144.917
151.032
156.239
160.403
163.476
165.513
166.664
167.144
167.2
167.054
166.872
166.744
166.688
166.681
166.686
166.681
166.662
166.637
166.618
166.609
166.605
166.597
166.575
166.505
166.351
166.348
167.395
65.8263
65.8278
65.8285
65.8243
65.8129
65.804
65.833
65.9485
66.1349
66.1749
65.593
63.9432
61.5911
60.6193
64.8643
78.1804
101.371
129.979
155.287
168.468
165.016
146.581
120.122
95.9125
84.3628
90.8699
111.381
134.298
149.327
154.971
156.813
159.939
164.855
169.158
170.559
168.847
165.016
157.47
142.171
118.261
89.9386
67.0868
60.0782
64.1213
67.6049
67.1927
67.6362
68.5809
69.6876
71.2546
73.2264
75.623
78.4661
81.8331
85.8341
90.5566
96.0165
102.151
108.85
115.98
123.378
130.834
138.1
144.914
151.029
156.236
160.4
163.474
165.511
166.662
167.143
167.198
167.052
166.871
166.743
166.687
166.68
166.686
166.681
166.661
166.636
166.617
166.607
166.601
166.592
166.569
166.498
166.343
166.335
167.364
65.958
65.9592
65.9605
65.9592
65.9521
65.941
65.9461
66.0109
66.1624
66.2996
66.0741
64.9761
62.8836
61.0031
62.4727
71.5134
90.7768
118.374
147.261
168.273
174.844
165.867
145.399
121.112
102.76
98.9464
111.466
132.179
148.544
154.511
154.615
156.471
162.362
169.441
173.914
173.949
171.826
170.06
164.371
148.407
121.521
89.1528
64.7697
60.3983
66.9676
67.6033
67.186
67.9834
68.8518
70.3598
72.4785
75.1722
78.3334
81.9108
85.9649
90.6335
96.0244
102.131
108.837
115.977
123.376
130.83
138.096
144.911
151.025
156.233
160.397
163.471
165.509
166.659
167.14
167.196
167.05
166.869
166.741
166.686
166.679
166.684
166.679
166.66
166.635
166.615
166.604
166.597
166.587
166.56
166.486
166.328
166.317
167.351
66.1529
66.1538
66.1552
66.1557
66.153
66.1446
66.137
66.1572
66.2457
66.3954
66.4325
65.9532
64.5565
62.5366
61.7387
65.6765
78.0247
99.8215
127.401
153.256
169.753
172.87
163.311
145.423
126.126
113.901
115.3
129.298
145.926
154.565
154.585
154.184
159.054
167.734
175.957
178.849
175.619
173.829
176.586
174.59
160.186
128.622
86.6335
60.7525
63.9264
68.194
66.6551
67.0794
67.4664
68.6175
70.6869
73.6896
77.4086
81.5596
85.9885
90.767
96.1005
102.13
108.814
115.968
123.376
130.828
138.091
144.906
151.021
156.229
160.394
163.467
165.505
166.656
167.137
167.193
167.047
166.866
166.738
166.683
166.677
166.683
166.678
166.658
166.633
166.613
166.602
166.593
166.58
166.549
166.468
166.3
166.288
167.346
66.4354
66.4362
66.4374
66.4385
66.4387
66.4351
66.4263
66.4217
66.4502
66.5462
66.6793
66.6453
66.053
64.6271
62.8997
62.8927
67.9402
81.0657
102.546
128.524
152.215
167.201
170.418
162.906
148.687
133.667
124.88
127.634
140.003
151.948
155.388
153.798
155.613
163
173.767
183.166
182.419
172.427
170.56
175.917
178.692
170.392
134.346
80.3179
58.9155
68.532
66.5436
66.5938
66.4748
66.9568
68.4858
71.3473
75.4435
80.3403
85.5389
90.798
96.2491
102.197
108.801
115.946
123.372
130.829
138.088
144.902
151.017
156.225
160.39
163.464
165.502
166.653
167.134
167.189
167.044
166.863
166.735
166.68
166.674
166.68
166.675
166.656
166.631
166.611
166.599
166.589
166.573
166.535
166.443
166.258
166.236
167.335
66.8368
66.8375
66.8385
66.8395
66.8407
66.8407
66.8367
66.8273
66.8224
66.8519
66.9495
67.0829
67.0519
66.482
65.1161
63.4554
63.3886
68.0654
80.4769
101.188
126.777
150.617
166.139
170.396
164.865
153.123
139.333
129.831
131.619
143.512
153.834
155.408
154.57
158.026
165.47
178.877
195.309
184.604
165.413
167.616
171.919
182.569
192.105
144.354
57.5103
68.0408
67.3618
67.6914
67.7103
67.684
68.1801
69.9171
73.3479
78.3494
84.2722
90.3742
96.3291
102.355
108.845
115.921
123.358
130.833
138.09
144.899
151.014
156.222
160.386
163.46
165.499
166.65
167.131
167.186
167.04
166.859
166.731
166.677
166.67
166.677
166.672
166.653
166.628
166.608
166.596
166.586
166.567
166.523
166.415
166.203
166.156
167.302
67.3958
67.3966
67.3975
67.3982
67.3992
67.4004
67.4005
67.3964
67.3861
67.3786
67.4045
67.5031
67.6559
67.6782
67.1861
65.8386
63.9608
63.2741
67.0121
78.6674
99.4525
126.046
151.082
167.281
171.968
166.768
153.468
135.16
122.715
128.291
145.839
156.13
156.408
158.09
159.521
161.618
67.9389
67.1655
69.1649
71.2633
73.0308
73.7102
73.3735
72.9752
73.882
77.062
82.478
89.1624
95.9869
102.492
108.993
115.935
123.33
130.832
138.099
144.9
151.013
156.221
160.384
163.458
165.497
166.647
167.128
167.183
167.037
166.856
166.728
166.673
166.667
166.673
166.669
166.65
166.626
166.606
166.594
166.584
166.565
166.517
166.394
166.146
166.053
167.236
68.1591
68.1599
68.1609
68.1615
68.162
68.1629
68.1642
68.1649
68.1614
68.1506
68.139
68.156
68.2476
68.4173
68.5096
68.136
66.8534
64.7761
63.4594
66.3155
77.4922
98.8758
126.953
153.101
168.842
171.071
160.356
137.815
113.11
108.153
129.657
151.118
156.832
160.463
161.578
162.866
66.4246
67.7405
71.4457
77.0435
82.8346
86.5945
86.9634
84.3943
81.0374
79.5875
81.7684
87.4083
94.8219
102.269
109.185
116.049
123.312
130.812
138.111
144.909
151.013
156.222
160.384
163.458
165.496
166.647
167.128
167.183
167.036
166.855
166.727
166.672
166.665
166.671
166.667
166.648
166.624
166.605
166.594
166.585
166.567
166.52
166.389
166.106
165.951
167.136
69.1811
69.1819
69.183
69.1836
69.1841
69.1845
69.1852
69.1866
69.1881
69.1862
69.176
69.1596
69.161
69.2306
69.401
69.5722
69.3913
68.3364
66.2746
64.5006
66.5427
77.2476
99.1208
127.855
152.445
162.515
155.007
132.01
101.698
87.4434
107.821
137.323
152.113
160.931
162.466
162.616
66.5093
67.6888
73.4895
83.306
95.0165
104.587
108.41
105.377
97.6134
89.4195
85.0572
86.5677
92.9177
101.219
109.136
116.271
123.367
130.776
138.112
144.928
151.019
156.225
160.387
163.459
165.498
166.649
167.13
167.184
167.038
166.856
166.728
166.672
166.665
166.672
166.668
166.649
166.624
166.605
166.595
166.588
166.573
166.531
166.404
166.104
165.889
167.03
70.5232
70.5241
70.5252
70.5259
70.5264
70.5268
70.527
70.5276
70.529
70.5312
70.5316
70.5239
70.5045
70.4883
70.5235
70.6719
70.907
70.9543
70.2572
68.4324
66.429
67.7039
77.3486
97.4253
121.462
136.451
134.134
116.613
90.6978
73.0928
86.202
115.235
138.833
157.197
163.682
163.107
66.9692
67.5168
74.3589
87.6562
105.483
122.453
132.497
132.116
122.274
107.832
95.1826
89.3119
91.5308
99.2452
108.348
116.398
123.552
130.762
138.086
144.951
151.034
156.229
160.392
163.462
165.5
166.652
167.134
167.188
167.041
166.859
166.731
166.675
166.668
166.674
166.67
166.651
166.627
166.609
166.599
166.593
166.582
166.548
166.435
166.144
165.9
166.977
72.2523
72.2533
72.2543
72.2551
72.2557
72.2561
72.2564
72.2566
72.2569
72.258
72.2606
72.2634
72.2606
72.2439
72.2155
72.2109
72.3033
72.5374
72.7615
72.4893
71.1782
69.2769
69.4025
75.3242
87.219
98.0964
100.067
93.5091
80.7434
68.095
72.2415
91.0635
116.222
143.877
161.454
164.371
68.4168
67.6999
73.9521
88.4083
110.234
133.804
151.254
156.588
148.762
131.809
112.663
98.35
93.2968
97.404
106.533
115.952
123.775
130.848
138.032
144.956
151.059
156.234
160.396
163.463
165.501
166.654
167.136
167.192
167.045
166.863
166.734
166.679
166.672
166.678
166.674
166.655
166.631
166.613
166.604
166.599
166.59
166.563
166.466
166.203
165.976
167.023
74.4382
74.4391
74.4402
74.4409
74.4416
74.442
74.4425
74.4428
74.443
74.443
74.4436
74.4459
74.4501
74.453
74.445
74.4163
74.3783
74.3908
74.5467
74.8498
75.0072
74.4122
72.7292
70.8133
70.3531
71.4949
72.5281
73.6559
73.1488
70.4051
69.7154
74.7111
90.9979
119.12
149.222
164.542
71.0715
69.0271
73.1476
85.7424
107.682