/*--------------------------------*- C++ -*----------------------------------*\
| =========                 |                                                 |
| \\      /  F ield         | OpenFOAM: The Open Source CFD Toolbox           |
|  \\    /   O peration     | Version:  v2012                                 |
|   \\  /    A nd           | Website:  www.openfoam.com                      |
|    \\/     M anipulation  |                                                 |
\*---------------------------------------------------------------------------*/
FoamFile
{
    version     2.0;
    format      ascii;
    class       volScalarField;
    location    "100/air";
    object      k;
}
// * * * * * * * * * * * * * * * * * * * * * * * * * * * * * * * * * * * * * //

dimensions      [0 2 -2 0 0 0 0];


internalField   nonuniform List<scalar> 
287104
(
0.0833857
0.0716704
0.0632586
0.056923
0.0519944
0.0480653
0.0448708
0.0422308
0.0400183
0.0381415
0.0365326
0.0351403
0.0339253
0.0328568
0.0319105
0.0310666
0.0303092
0.0296249
0.0290025
0.0284323
0.0279062
0.0274171
0.0269589
0.0265265
0.0261156
0.0257228
0.0253455
0.0249822
0.0246318
0.0242944
0.0239705
0.023661
0.0233677
0.023092
0.0228358
0.0226008
0.0223885
0.0221998
0.0220355
0.0218957
0.0217801
0.0216876
0.0216171
0.0215668
0.0215345
0.021518
0.0215149
0.0215228
0.0215392
0.0215621
0.0215895
0.0216197
0.0216512
0.021683
0.0217141
0.021744
0.0217722
0.0217986
0.0218232
0.0218463
0.021868
0.0218889
0.0219093
0.0219298
0.0219509
0.0219731
0.0219971
0.0220233
0.0220522
0.0220842
0.0221196
0.0221586
0.0222015
0.0222485
0.0222995
0.0223544
0.0224128
0.0224747
0.0225399
0.0226079
0.0226784
0.0227513
0.0228265
0.0229039
0.0229832
0.0230642
0.0231456
0.0232247
0.0232963
0.0233108
0.0833822
0.0716644
0.0632497
0.0569126
0.0519825
0.0480523
0.044857
0.0422163
0.0400033
0.0381262
0.0365171
0.0351247
0.0339097
0.0328413
0.0318951
0.0310514
0.0302942
0.0296099
0.0289874
0.0284171
0.0278906
0.027401
0.0269423
0.0265093
0.0260978
0.0257046
0.0253272
0.0249641
0.0246145
0.0242785
0.0239566
0.02365
0.0233602
0.0230887
0.0228373
0.0226076
0.0224008
0.0222179
0.0220593
0.0219251
0.0218145
0.0217267
0.02166
0.0216127
0.0215826
0.0215674
0.0215646
0.0215718
0.0215867
0.0216073
0.0216316
0.0216581
0.0216854
0.0217124
0.0217383
0.0217627
0.0217852
0.0218058
0.0218245
0.0218415
0.0218572
0.0218721
0.0218865
0.0219011
0.0219163
0.0219328
0.0219511
0.0219716
0.0219949
0.0220213
0.0220512
0.022085
0.0221227
0.0221646
0.0222104
0.0222602
0.0223138
0.022371
0.0224312
0.0224944
0.0225603
0.0226286
0.0226991
0.0227717
0.0228463
0.0229226
0.0229994
0.023074
0.0231414
0.0231531
0.0833811
0.0716613
0.063246
0.0569077
0.0519769
0.0480459
0.04485
0.0422087
0.0399953
0.0381178
0.0365084
0.0351159
0.0339009
0.0328326
0.0318866
0.0310431
0.0302861
0.0296021
0.0289798
0.0284096
0.0278833
0.0273938
0.0269352
0.0265023
0.026091
0.025698
0.025321
0.0249584
0.0246096
0.0242746
0.023954
0.0236491
0.0233612
0.023092
0.0228433
0.0226165
0.0224129
0.0222334
0.0220784
0.0219479
0.0218413
0.0217574
0.0216948
0.0216515
0.0216253
0.0216136
0.0216139
0.0216237
0.0216407
0.0216627
0.0216881
0.0217153
0.021743
0.0217704
0.0217965
0.021821
0.0218436
0.0218643
0.0218832
0.0219004
0.0219165
0.0219317
0.0219467
0.0219618
0.0219777
0.0219948
0.0220138
0.022035
0.022059
0.0220862
0.0221169
0.0221514
0.0221898
0.0222322
0.0222784
0.0223286
0.0223823
0.0224393
0.0224992
0.0225619
0.022627
0.0226942
0.0227633
0.0228344
0.0229073
0.0229819
0.0230571
0.0231303
0.0231967
0.0232105
0.0833796
0.0716585
0.0632414
0.0569018
0.0519697
0.0480376
0.0448405
0.0421983
0.039984
0.0381057
0.0364958
0.035103
0.0338879
0.0328196
0.0318737
0.0310304
0.0302736
0.0295897
0.0289675
0.0283974
0.0278711
0.0273816
0.0269229
0.02649
0.0260786
0.0256856
0.0253086
0.0249463
0.0245978
0.0242633
0.0239436
0.0236396
0.0233531
0.0230855
0.0228387
0.0226141
0.022413
0.0222363
0.0220843
0.0219571
0.0218539
0.0217738
0.0217152
0.0216761
0.0216538
0.0216457
0.021649
0.0216613
0.0216802
0.0217037
0.02173
0.0217578
0.021786
0.0218138
0.0218405
0.021866
0.0218899
0.0219122
0.0219331
0.0219527
0.0219714
0.0219895
0.0220075
0.0220259
0.0220451
0.0220658
0.0220884
0.0221133
0.0221411
0.022172
0.0222064
0.0222444
0.0222863
0.0223321
0.0223817
0.0224349
0.0224914
0.0225509
0.0226132
0.0226778
0.0227444
0.0228129
0.0228833
0.0229555
0.0230294
0.0231052
0.0231817
0.0232571
0.0233262
0.0233478
0.0833785
0.0716558
0.0632375
0.0568967
0.0519635
0.0480302
0.0448321
0.0421888
0.0399735
0.0380944
0.0364839
0.0350908
0.0338755
0.0328073
0.0318616
0.0310185
0.0302619
0.0295782
0.0289562
0.0283863
0.0278602
0.0273708
0.0269122
0.0264792
0.0260679
0.0256751
0.0252983
0.0249363
0.0245883
0.0242545
0.0239356
0.0236328
0.0233476
0.0230818
0.0228369
0.0226147
0.0224162
0.0222424
0.0220938
0.0219703
0.0218715
0.0217962
0.0217423
0.0217074
0.0216889
0.0216839
0.0216899
0.0217042
0.0217247
0.0217494
0.0217766
0.021805
0.0218336
0.0218616
0.0218884
0.0219137
0.0219374
0.0219596
0.0219805
0.0220004
0.0220195
0.0220384
0.0220575
0.0220772
0.0220981
0.0221206
0.0221451
0.0221721
0.0222019
0.0222348
0.022271
0.0223108
0.0223541
0.0224011
0.0224516
0.0225052
0.022562
0.0226215
0.0226835
0.0227474
0.0228131
0.0228805
0.0229495
0.0230202
0.0230927
0.0231672
0.0232429
0.0233182
0.0233884
0.0234161
0.0833771
0.071653
0.0632333
0.0568912
0.0519565
0.0480219
0.0448224
0.0421778
0.0399612
0.0380812
0.0364701
0.0350768
0.0338618
0.0327939
0.0318486
0.0310059
0.0302496
0.0295661
0.0289443
0.0283743
0.0278481
0.0273585
0.0268997
0.0264666
0.0260552
0.0256623
0.0252856
0.0249238
0.0245763
0.0242432
0.0239253
0.0236237
0.02334
0.023076
0.0228333
0.0226134
0.0224177
0.022247
0.0221018
0.0219822
0.0218876
0.0218162
0.021766
0.0217344
0.0217186
0.021716
0.0217237
0.0217395
0.021761
0.0217864
0.021814
0.0218427
0.0218712
0.021899
0.0219255
0.0219504
0.0219737
0.0219954
0.0220157
0.022035
0.0220536
0.022072
0.0220906
0.0221099
0.0221303
0.0221525
0.0221767
0.0222035
0.0222332
0.0222661
0.0223026
0.0223426
0.0223864
0.0224339
0.0224849
0.0225394
0.022597
0.0226575
0.0227202
0.0227848
0.022851
0.0229186
0.0229876
0.0230584
0.0231311
0.023206
0.0232823
0.0233589
0.0234317
0.0234665
0.0833759
0.0716503
0.0632292
0.0568857
0.0519495
0.0480133
0.0448119
0.0421653
0.0399467
0.0380647
0.0364521
0.0350581
0.0338429
0.0327753
0.0318303
0.0309881
0.0302322
0.0295491
0.0289274
0.0283576
0.0278314
0.0273418
0.0268829
0.0264498
0.0260383
0.0256454
0.0252689
0.0249075
0.0245606
0.0242284
0.0239115
0.0236114
0.0233294
0.0230673
0.0228268
0.0226096
0.0224168
0.0222495
0.0221083
0.0219929
0.0219022
0.0218344
0.0217873
0.0217582
0.0217444
0.021743
0.0217516
0.0217677
0.0217892
0.0218143
0.0218414
0.0218692
0.0218969
0.0219236
0.021949
0.0219727
0.0219948
0.0220153
0.0220344
0.0220526
0.0220701
0.0220874
0.0221051
0.0221235
0.0221433
0.022165
0.0221889
0.0222154
0.0222451
0.0222781
0.0223147
0.0223551
0.0223994
0.0224476
0.0224997
0.0225554
0.0226145
0.0226764
0.0227408
0.022807
0.0228745
0.022943
0.0230129
0.0230845
0.023158
0.0232338
0.0233113
0.0233896
0.0234649
0.023506
0.0833747
0.0716476
0.063225
0.0568799
0.0519421
0.048004
0.0448007
0.0421519
0.039931
0.038047
0.0364338
0.0350404
0.0338264
0.0327598
0.0318157
0.0309739
0.0302179
0.0295342
0.0289115
0.0283403
0.0278125
0.027321
0.0268602
0.0264251
0.0260117
0.0256171
0.0252392
0.0248766
0.024529
0.0241965
0.02388
0.0235806
0.0233001
0.02304
0.0228024
0.0225887
0.0224006
0.0222387
0.0221031
0.0219932
0.0219075
0.0218442
0.0218006
0.0217743
0.0217624
0.0217624
0.0217718
0.0217882
0.0218097
0.0218345
0.021861
0.0218881
0.0219147
0.0219404
0.0219646
0.0219871
0.0220079
0.0220271
0.022045
0.022062
0.0220784
0.0220947
0.0221114
0.0221291
0.0221482
0.0221691
0.0221925
0.0222188
0.0222483
0.0222814
0.0223185
0.0223598
0.0224053
0.0224552
0.0225092
0.0225672
0.0226289
0.0226937
0.0227612
0.0228302
0.0228998
0.0229699
0.0230412
0.0231143
0.0231897
0.0232675
0.0233474
0.0234286
0.0235067
0.0235548
0.0833735
0.0716449
0.0632208
0.0568739
0.051934
0.0479934
0.0447867
0.0421335
0.0399063
0.0380148
0.0364048
0.0350261
0.0338315
0.0327831
0.031852
0.0310165
0.0302602
0.0295703
0.0289368
0.0283515
0.0278074
0.0272989
0.0268209
0.0263692
0.0259404
0.025532
0.0251419
0.0247692
0.0244135
0.024075
0.0237545
0.0234533
0.0231731
0.0229156
0.0226826
0.0224757
0.0222957
0.0221429
0.0220168
0.0219162
0.0218394
0.0217843
0.0217484
0.0217289
0.0217233
0.021729
0.0217436
0.0217648
0.021791
0.0218203
0.0218514
0.0218831
0.0219145
0.021945
0.0219741
0.0220015
0.0220272
0.0220512
0.0220737
0.0220952
0.0221158
0.0221361
0.0221564
0.0221772
0.022199
0.0222224
0.022248
0.022277
0.0223098
0.0223466
0.0223877
0.0224333
0.0224835
0.0225385
0.0225982
0.0226626
0.0227317
0.0228048
0.022881
0.0229583
0.0230344
0.0231098
0.0231859
0.0232638
0.023344
0.0234268
0.0235115
0.0235973
0.0236781
0.023732
0.0833723
0.0716423
0.0632166
0.056868
0.051926
0.0479829
0.0447731
0.0421158
0.0398829
0.0379876
0.0373662
0.0370266
0.036559
0.0358907
0.0350599
0.0341307
0.0331604
0.0321916
0.0312528
0.0303614
0.0295266
0.0287522
0.0280383
0.0273825
0.026781
0.0262295
0.0257233
0.0252578
0.0248288
0.0244325
0.0240656
0.0237255
0.0234102
0.0231199
0.0228548
0.0226134
0.0223938
0.0222125
0.0220801
0.0219889
0.0219323
0.0219045
0.0219004
0.0219156
0.0219463
0.0219908
0.0220464
0.0221106
0.0221803
0.022253
0.0223265
0.0223991
0.0224697
0.0225373
0.0226015
0.022662
0.0227189
0.0227725
0.0228231
0.0228713
0.0229175
0.0229624
0.0230066
0.0230504
0.0230945
0.023139
0.0231839
0.0232288
0.0232742
0.0233207
0.0233701
0.0234241
0.0234839
0.0235507
0.0236266
0.0237136
0.0238127
0.0239219
0.0240382
0.0241571
0.0242209
0.0242665
0.0243109
0.0243594
0.0244131
0.0244714
0.0245326
0.0245947
0.0246436
0.0246647
0.0833712
0.0716396
0.0632122
0.0568616
0.0519171
0.0479701
0.0447537
0.0420848
0.0398205
0.0380399
0.117892
0.141101
0.140727
0.132241
0.12192
0.112042
0.103313
0.0958555
0.0895865
0.0843679
0.0800568
0.0765224
0.0736487
0.0713334
0.0694858
0.0680259
0.0668829
0.0659955
0.0653115
0.0647881
0.0643908
0.0640929
0.0638745
0.0637215
0.0636242
0.0635761
0.0635725
0.0636008
0.0636783
0.0638126
0.0639994
0.0642292
0.0644894
0.0647696
0.0650599
0.0653479
0.0656242
0.0658812
0.0661134
0.0663162
0.0664869
0.0666236
0.066726
0.0667952
0.0668334
0.0668436
0.0668294
0.0667952
0.0667452
0.0666844
0.0666179
0.0665506
0.0664884
0.0664368
0.0664011
0.0663867
0.0663983
0.0664403
0.0665168
0.066631
0.0667837
0.0669765
0.0672109
0.0674874
0.0678063
0.0681676
0.0685792
0.0690591
0.0697454
0.0709634
0.0514705
0.0420499
0.0369678
0.0339871
0.0321179
0.0308797
0.0300163
0.0293812
0.0288385
0.0283712
0.0833701
0.0716371
0.0632082
0.0568559
0.0519093
0.04796
0.0447405
0.0420678
0.0397982
0.0380124
0.11789
0.141152
0.140716
0.132089
0.121592
0.111525
0.102609
0.0949736
0.08854
0.0831728
0.0787311
0.0750859
0.0721226
0.0697402
0.0678485
0.066367
0.0652235
0.0643543
0.0637043
0.0632268
0.0628839
0.0626453
0.0624879
0.0623946
0.0623531
0.0623547
0.0623921
0.0624582
0.0625463
0.0626499
0.0627631
0.0628809
0.0630014
0.0631204
0.0632351
0.0633443
0.0634446
0.063533
0.0636088
0.0636717
0.0637227
0.0637636
0.0637964
0.0638231
0.0638459
0.0638671
0.0638887
0.0639134
0.0639433
0.0639806
0.0640278
0.0640867
0.0641598
0.0642495
0.0643572
0.0644843
0.0646331
0.0648052
0.065001
0.0652192
0.0654593
0.0657213
0.0660061
0.0663153
0.0666521
0.0670228
0.0674423
0.0679311
0.0686167
0.0697795
0.0510474
0.0420031
0.0371368
0.034286
0.0324925
0.031294
0.0304465
0.0298126
0.0292636
0.0287767
0.083369
0.0716345
0.0632042
0.0568503
0.0519017
0.0479499
0.0447271
0.04205
0.0397742
0.0379804
0.117666
0.140921
0.140539
0.131966
0.121506
0.111459
0.102548
0.0949051
0.0884582
0.0830756
0.0786202
0.074966
0.0720011
0.0696265
0.0677536
0.0663024
0.0652006
0.0643835
0.0637943
0.0633848
0.0631149
0.0629524
0.0628721
0.0628547
0.0628859
0.0629547
0.063052
0.0631696
0.0633
0.0634367
0.063574
0.063708
0.0638368
0.0639587
0.0640667
0.0641557
0.0642219
0.0642647
0.0642861
0.0642904
0.0642825
0.0642676
0.0642499
0.0642333
0.0642209
0.0642154
0.0642194
0.0642346
0.0642629
0.0643057
0.0643643
0.0644402
0.0645344
0.0646474
0.0647793
0.0649297
0.0650984
0.0652858
0.065492
0.0657174
0.0659629
0.0662299
0.0665208
0.066839
0.0671909
0.0675865
0.0680482
0.0686129
0.0694315
0.0706617
0.0516229
0.0424336
0.0374875
0.0345878
0.032762
0.0315413
0.0306779
0.0300335
0.0294803
0.0289629
0.0833679
0.0716321
0.0632005
0.0568452
0.0518952
0.0479417
0.0447171
0.042038
0.0397601
0.0379643
0.117592
0.140847
0.140477
0.131911
0.121453
0.111402
0.102483
0.0948322
0.0883771
0.0829874
0.0785269
0.0748702
0.0719058
0.0695352
0.0676701
0.0662308
0.0651452
0.0643486
0.0637839
0.0634028
0.0631651
0.0630384
0.0629972
0.0630214
0.0630955
0.0632068
0.0633447
0.0634998
0.0636643
0.0638331
0.0640026
0.0641631
0.064306
0.0644255
0.0645203
0.0645882
0.0646276
0.0646401
0.0646299
0.0646028
0.0645645
0.064521
0.0644768
0.064436
0.0644019
0.0643771
0.0643639
0.0643639
0.0643786
0.0644092
0.0644565
0.0645212
0.0646048
0.0647078
0.0648304
0.0649727
0.0651347
0.0653166
0.0655191
0.0657427
0.0659883
0.0662573
0.066552
0.066876
0.0672355
0.067641
0.0681142
0.068691
0.0695203
0.0707542
0.0516662
0.042455
0.0374992
0.0345958
0.0327693
0.0315497
0.0306888
0.0300485
0.0295029
0.0290014
0.0833668
0.0716298
0.0631969
0.0568405
0.0518892
0.0479344
0.0447083
0.0420275
0.0397477
0.0379498
0.1175
0.140732
0.140363
0.131805
0.121355
0.111311
0.102396
0.0947466
0.0882917
0.0829017
0.0784409
0.0747849
0.0718229
0.0694569
0.067599
0.06617
0.0650977
0.0643173
0.063772
0.0634131
0.0632004
0.0631017
0.0630915
0.0631495
0.0632595
0.0634078
0.0635825
0.0637724
0.0639686
0.0641646
0.0643557
0.0645295
0.0646762
0.06479
0.0648697
0.064913
0.0649209
0.0648976
0.0648503
0.0647862
0.0647131
0.0646371
0.0645638
0.0644971
0.0644404
0.0643965
0.064367
0.0643538
0.0643578
0.0643798
0.0644207
0.0644807
0.0645605
0.0646613
0.0647833
0.0649261
0.0650896
0.0652737
0.0654789
0.0657058
0.0659554
0.0662293
0.0665296
0.0668605
0.0672283
0.0676434
0.0681281
0.0687181
0.0695623
0.0708104
0.0516904
0.0424649
0.0375028
0.034597
0.0327705
0.0315521
0.0306939
0.0300577
0.0295195
0.0290327
0.0833658
0.0716276
0.0631936
0.0568362
0.051884
0.0479283
0.0447013
0.0420196
0.0397389
0.03794
0.117438
0.140646
0.140264
0.131701
0.121247
0.111201
0.102285
0.0946356
0.0881818
0.0827939
0.0783364
0.074685
0.071729
0.0693708
0.0675227
0.0661053
0.065047
0.0642827
0.0637556
0.063417
0.063227
0.0631536
0.0631718
0.0632618
0.0634072
0.0635936
0.0638075
0.0640356
0.064266
0.064488
0.0646954
0.0648817
0.0650348
0.0651477
0.0652167
0.06524
0.0652203
0.0651645
0.065082
0.0649821
0.0648738
0.0647644
0.0646601
0.0645657
0.0644846
0.0644198
0.0643733
0.064346
0.0643392
0.064353
0.0643878
0.0644438
0.064521
0.0646198
0.0647412
0.0648852
0.0650513
0.065239
0.0654487
0.0656808
0.0659362
0.0662167
0.0665244
0.066863
0.0672392
0.0676635
0.0681581
0.0687586
0.0696145
0.0708745
0.0517183
0.0424754
0.0375042
0.0345939
0.0327656
0.0315474
0.0306907
0.0300578
0.0295262
0.0290529
0.0833648
0.0716254
0.0631906
0.0568324
0.0518796
0.0479234
0.0446962
0.0420144
0.0397338
0.037935
0.117409
0.140592
0.140188
0.131605
0.121136
0.111077
0.102154
0.0945004
0.0880463
0.0826613
0.0782098
0.0745671
0.0716225
0.069278
0.0674457
0.0660461
0.0650069
0.0642631
0.0637575
0.0634413
0.0632745
0.063226
0.0632713
0.0633919
0.0635718
0.063797
0.064053
0.0643242
0.0645946
0.0648487
0.0650721
0.0652565
0.0654042
0.0655102
0.0655635
0.0655603
0.0655055
0.0654105
0.0652875
0.0651487
0.0650041
0.0648624
0.0647301
0.0646124
0.0645128
0.0644338
0.064377
0.0643431
0.0643325
0.0643454
0.0643814
0.0644401
0.0645216
0.0646254
0.0647518
0.0649015
0.0650743
0.0652694
0.0654865
0.0657258
0.0659883
0.0662756
0.0665899
0.0669348
0.0673166
0.0677459
0.0682449
0.0688497
0.0697105
0.0709771
0.0517651
0.0424936
0.0375064
0.0345868
0.0327532
0.0315323
0.0306752
0.0300441
0.0295178
0.0290564
0.0833638
0.0716234
0.0631877
0.0568288
0.0518756
0.0479193
0.044692
0.0420104
0.0397301
0.0379311
0.117353
0.140485
0.140044
0.131442
0.120967
0.110911
0.101997
0.0943559
0.0879171
0.0825499
0.0781187
0.0744993
0.0715814
0.0692672
0.0674687
0.0661055
0.0651043
0.0643989
0.0639309
0.0636505
0.0635175
0.0635005
0.0635761
0.0637262
0.0639357
0.0641902
0.0644737
0.0647675
0.0650509
0.0653032
0.0655056
0.065646
0.0657219
0.0657418
0.0657187
0.0656669
0.0655832
0.0654694
0.0653327
0.065182
0.0650262
0.0648735
0.0647312
0.0646046
0.0644981
0.0644148
0.064356
0.064323
0.0643157
0.0643339
0.0643774
0.064445
0.0645362
0.0646506
0.0647876
0.0649475
0.0651307
0.0653369
0.0655657
0.0658168
0.0660907
0.0663887
0.0667131
0.0670673
0.0674577
0.0678944
0.0683999
0.0690116
0.0698818
0.0711635
0.0518564
0.0425332
0.037514
0.0345728
0.0327241
0.0314927
0.0306287
0.0299941
0.0294689
0.0290157
0.0833628
0.0716214
0.063185
0.0568258
0.0518727
0.047917
0.0446912
0.0420121
0.0397363
0.0379434
0.117458
0.140551
0.140038
0.13137
0.120851
0.110775
0.101868
0.0942618
0.0878871
0.0826141
0.0783072
0.0748403
0.072099
0.069979
0.0683841
0.0672255
0.0664221
0.0659012
0.0656001
0.0654669
0.0654604
0.0655493
0.0657103
0.0659253
0.066178
0.0664511
0.0667227
0.0669648
0.0671451
0.0672305
0.0671951
0.067031
0.0667543
0.0664115
0.066058
0.0656992
0.0653529
0.0650365
0.0647642
0.0645434
0.0643647
0.0642177
0.0640983
0.0640055
0.0639395
0.0639008
0.0638896
0.0639054
0.0639476
0.0640152
0.0641069
0.0642219
0.0643587
0.0645167
0.064695
0.0648935
0.0651146
0.0653577
0.0656222
0.0659081
0.0662154
0.0665442
0.0668953
0.0672716
0.0676787
0.0681262
0.068635
0.0692424
0.070102
0.0713831
0.0519196
0.0424833
0.0373799
0.0343755
0.0324799
0.0312147
0.0303279
0.0296799
0.029151
0.0287044
0.0833619
0.0716194
0.0631823
0.0568228
0.0518698
0.0479145
0.0446899
0.0420127
0.0397399
0.0379492
0.117297
0.140273
0.139801
0.131278
0.120953
0.111187
0.10273
0.0957206
0.090072
0.0856264
0.0822104
0.0796552
0.0778045
0.0765173
0.0756696
0.0751557
0.0748884
0.0747984
0.074833
0.0749542
0.0751354
0.0753594
0.0756148
0.0758923
0.0761805
0.0764613
0.0767032
0.0768565
0.0768502
0.0765931
0.075989
0.0749659
0.0735122
0.0716809
0.0697185
0.0679051
0.0663847
0.0651936
0.064315
0.0637094
0.0633326
0.0631671
0.0631675
0.0632645
0.063409
0.063575
0.0637507
0.0639325
0.0641202
0.0643157
0.0645206
0.0647366
0.0649647
0.0652058
0.0654604
0.0657303
0.0660111
0.0663104
0.0666592
0.0670589
0.067503
0.0679822
0.0684868
0.0690151
0.069572
0.0701689
0.0708302
0.0716019
0.0726471
0.0741205
0.0527181
0.0423428
0.0367297
0.0334345
0.0313747
0.0300235
0.0291013
0.0284525
0.0279525
0.0275606
0.0833609
0.0716176
0.06318
0.0568205
0.0518681
0.0479148
0.0446948
0.0420275
0.0397847
0.0378781
0.0366182
0.0355609
0.0344936
0.0333914
0.0323843
0.0314611
0.0306148
0.0298392
0.0291283
0.0284763
0.0278771
0.0273249
0.0268146
0.0263412
0.0259008
0.0254901
0.0251065
0.0247483
0.0244149
0.024106
0.0238223
0.0235652
0.0233364
0.0231382
0.0229729
0.0228423
0.0227478
0.0226889
0.0226632
0.0226651
0.0226862
0.0227161
0.0227442
0.0227606
0.0229536
0.0232746
0.0236373
0.023983
0.024277
0.0245036
0.0246604
0.0247545
0.0247972
0.0247994
0.0247715
0.0247306
0.0246852
0.0246368
0.0245853
0.0245289
0.0244661
0.0243955
0.0243161
0.024228
0.0241315
0.0240278
0.0239247
0.0238703
0.0238456
0.0238416
0.0238523
0.0238746
0.0239076
0.0239502
0.0240012
0.0240598
0.0241255
0.0241977
0.0242761
0.0243601
0.0243866
0.0243972
0.0244104
0.0244323
0.0244644
0.0245074
0.0245601
0.0246231
0.0246827
0.0247502
0.0833601
0.0716158
0.0631776
0.0568177
0.0518654
0.0479126
0.0446937
0.0420281
0.0397882
0.0378836
0.0362517
0.0348424
0.0336136
0.032532
0.0315722
0.0307141
0.0299416
0.0292413
0.0286024
0.0280157
0.0274731
0.0269681
0.0264952
0.02605
0.0256293
0.0252309
0.0248534
0.0244964
0.0241604
0.0238466
0.0235566
0.0232928
0.023058
0.0228553
0.022688
0.0225593
0.0224718
0.0224262
0.0224211
0.0224497
0.0225008
0.0225615
0.0226188
0.0226628
0.0226914
0.0227053
0.0227054
0.0226919
0.0226639
0.0226206
0.0225617
0.0224884
0.0224033
0.0223102
0.0222138
0.0221194
0.0220317
0.0219547
0.021891
0.0218423
0.021809
0.0217909
0.0217869
0.0217959
0.0218165
0.0218474
0.0218873
0.0219354
0.021993
0.0220581
0.0221296
0.0222066
0.022289
0.0223768
0.0224698
0.022568
0.0226716
0.0227804
0.0228943
0.0230124
0.023132
0.0232521
0.0233739
0.0234986
0.023627
0.02376
0.0238973
0.02404
0.0241789
0.0243215
0.0833592
0.0716141
0.0631753
0.0568152
0.0518629
0.0479106
0.044693
0.0420297
0.0397939
0.0378946
0.0362653
0.0348551
0.0336235
0.0325385
0.0315752
0.0307137
0.0299378
0.0292343
0.028592
0.0280018
0.0274555
0.0269465
0.0264693
0.0260194
0.0255936
0.0251899
0.0248071
0.024445
0.0241042
0.023786
0.0234927
0.0232269
0.0229918
0.0227914
0.0226296
0.0225113
0.0224406
0.0224206
0.0224514
0.0225244
0.0226232
0.0227279
0.0228194
0.022885
0.0229207
0.0229257
0.0229015
0.0228515
0.0227798
0.0226908
0.0225886
0.0224773
0.0223609
0.0222431
0.0221276
0.0220176
0.0219164
0.0218266
0.0217503
0.0216889
0.0216432
0.0216133
0.0215989
0.0215995
0.0216142
0.0216421
0.0216824
0.0217343
0.0217983
0.0218746
0.0219628
0.0220629
0.0221751
0.0222995
0.0224363
0.0225851
0.0227456
0.0229168
0.0230977
0.0232866
0.0234814
0.0236804
0.0238829
0.0240882
0.0242957
0.0245054
0.0247159
0.0249284
0.0251325
0.0253383
0.0833584
0.0716123
0.0631728
0.056812
0.0518593
0.0479067
0.0446888
0.0420253
0.0397892
0.0378889
0.0362573
0.0348433
0.0336071
0.0325176
0.0315498
0.0306839
0.0299036
0.0291957
0.0285492
0.0279547
0.0274041
0.0268908
0.0264092
0.0259548
0.0255246
0.0251165
0.0247294
0.0243632
0.0240187
0.0236974
0.0234017
0.0231345
0.0228997
0.0227016
0.0225455
0.0224382
0.0223867
0.0223981
0.0224781
0.0226172
0.0227903
0.0229648
0.0231092
0.0232053
0.0232534
0.0232557
0.0232168
0.023143
0.0230415
0.0229194
0.0227837
0.0226407
0.0224959
0.0223545
0.0222206
0.0220978
0.0219893
0.0218976
0.0218247
0.0217722
0.0217416
0.0217339
0.0217503
0.021792
0.0218585
0.0219494
0.0220638
0.0222034
0.0223716
0.0225665
0.022786
0.0230288
0.0232929
0.0235753
0.0238727
0.0241812
0.0244966
0.0248149
0.0251321
0.0254443
0.0257484
0.0260419
0.0263233
0.0265923
0.0268491
0.0270949
0.0273297
0.0275565
0.0277652
0.0279726
0.0833575
0.0716104
0.06317
0.0568084
0.051855
0.0479018
0.0446834
0.0420195
0.0397828
0.0378818
0.0362487
0.0348323
0.0335929
0.0324994
0.0315271
0.0306563
0.0298707
0.0291572
0.0285048
0.0279042
0.0273476
0.0268282
0.0263405
0.0258802
0.0254441
0.0250303
0.0246378
0.0242666
0.0239174
0.0235918
0.0232924
0.0230222
0.0227853
0.0225865
0.0224323
0.0223317
0.0222959
0.0223405
0.0224926
0.0227558
0.0230929
0.0234336
0.0237054
0.0238728
0.0239569
0.0239749
0.0239369
0.0238549
0.0237414
0.023608
0.0234659
0.0233249
0.0231938
0.0230804
0.0229911
0.0229317
0.0229069
0.0229207
0.0229763
0.0230768
0.0232254
0.0234275
0.0236789
0.0239739
0.0243067
0.0246708
0.0250601
0.025476
0.0259078
0.0263461
0.0267843
0.0272151
0.0276321
0.0280301
0.028405
0.0287539
0.0290752
0.0293683
0.0296338
0.0298728
0.0300868
0.0302782
0.0304496
0.0306042
0.030745
0.0308754
0.0309974
0.0311157
0.0312201
0.0313349
0.0833565
0.0716081
0.0631665
0.0568039
0.0518494
0.0478951
0.0446755
0.0420102
0.0397719
0.0378688
0.0362329
0.034813
0.0335695
0.0324715
0.0314943
0.0306182
0.0298271
0.0291078
0.0284492
0.0278423
0.0272792
0.0267532
0.026259
0.0257921
0.0253496
0.0249294
0.0245307
0.0241536
0.0237988
0.023468
0.0231634
0.0228883
0.0226466
0.0224435
0.0222859
0.0221858
0.0221588
0.0222413
0.0225792
0.0232864
0.0242961
0.0253472
0.0261914
0.0267557
0.0270601
0.0273045
0.0275016
0.0276617
0.0277935
0.0279051
0.0280049
0.028102
0.028206
0.0283265
0.0284724
0.0286509
0.0288689
0.0291324
0.0294542
0.0298182
0.0302098
0.030617
0.0310294
0.0314384
0.0318367
0.0322186
0.0325792
0.0329074
0.03321
0.0334837
0.0337263
0.033937
0.034116
0.0342644
0.0343839
0.0344769
0.0345462
0.0345944
0.0346248
0.0346402
0.0346436
0.0346378
0.0346255
0.0346096
0.0345926
0.0345774
0.0345649
0.0345598
0.0345498
0.0345652
0.0833552
0.0716054
0.0631625
0.0567985
0.0518427
0.047887
0.044666
0.0419991
0.0397589
0.0378536
0.036215
0.0347919
0.0335446
0.0324422
0.0314602
0.0305787
0.0297818
0.029056
0.0283906
0.0277762
0.0272053
0.0266713
0.0261689
0.0256939
0.0252433
0.0248152
0.0244088
0.0240242
0.0236622
0.0233242
0.0230123
0.0227296
0.0224793
0.0222661
0.0220958
0.0219825
0.0219443
0.0220817
0.0233095
0.0263368
0.030727
0.0351763
0.0387276
0.0412831
0.0428907
0.043716
0.0441376
0.0442023
0.0439906
0.0435958
0.0431061
0.0425955
0.0421218
0.0417228
0.0414301
0.0412517
0.0411539
0.0411121
0.041107
0.0411235
0.0411496
0.0411758
0.041195
0.0412016
0.0411918
0.041163
0.0411136
0.0410413
0.0409384
0.0408148
0.0406742
0.0405177
0.040347
0.0401647
0.0399731
0.0397749
0.0395727
0.0393688
0.0391655
0.0389651
0.0387694
0.0385802
0.038399
0.0382276
0.0380674
0.0379203
0.0377861
0.0376691
0.037555
0.0374802
0.0833539
0.0716024
0.0631579
0.0567925
0.0518352
0.0478779
0.0446551
0.0419862
0.0397437
0.0378357
0.0361941
0.0347672
0.0335157
0.0324086
0.0314212
0.030534
0.0297307
0.028998
0.028325
0.0277025
0.0271228
0.0265796
0.0260676
0.025583
0.0251227
0.0246851
0.0242693
0.0238756
0.0235046
0.0231576
0.0228368
0.0225447
0.0222841
0.0220591
0.0218725
0.0217395
0.0216742
0.0220218
0.0280958
0.0412957
0.0563392
0.0679093
0.0743514
0.0768337
0.0766125
0.0747218
0.0719173
0.0689023
0.0660074
0.0634289
0.0612547
0.0595694
0.0582367
0.0571498
0.056236
0.0554438
0.0547357
0.0540851
0.0534729
0.0528859
0.0523149
0.0517539
0.0511991
0.0506481
0.0500997
0.0495537
0.0490103
0.0484702
0.0479345
0.0474008
0.0468697
0.0463463
0.0458348
0.0453365
0.0448529
0.0443855
0.0439355
0.0435038
0.0430913
0.0426988
0.0423268
0.0419756
0.0416457
0.0413374
0.0410512
0.0407879
0.0405463
0.0403307
0.0401248
0.0399708
0.0833526
0.0715994
0.0631534
0.0567864
0.0518274
0.0478684
0.0446438
0.0419728
0.0397279
0.0378172
0.0361723
0.0347417
0.0334859
0.0323738
0.0313809
0.0304875
0.0296773
0.028937
0.0282555
0.0276236
0.0270336
0.0264793
0.0259558
0.0254592
0.024987
0.0245376
0.0241102
0.0237051
0.0233228
0.0229645
0.022632
0.0223282
0.0220553
0.0218165
0.0216091
0.0214443
0.021309
0.0223866
0.0466913
0.0812393
0.107356
0.119449
0.119432
0.113008
0.10441
0.0959464
0.0886653
0.0828714
0.0785872
0.0757009
0.0737665
0.072309
0.0710704
0.0699178
0.0687882
0.0676554
0.0665122
0.0653607
0.0642063
0.0630557
0.0619153
0.0607907
0.0596864
0.0586064
0.0575534
0.0565299
0.0555373
0.0545772
0.0536504
0.0527575
0.0518993
0.0510743
0.0502813
0.0495218
0.0487977
0.0481093
0.0474562
0.0468381
0.0462544
0.0457046
0.045188
0.0447039
0.0442515
0.0438304
0.04344
0.0430804
0.0427498
0.0424522
0.0421703
0.0419513
0.0833514
0.0715967
0.0631492
0.0567807
0.0518202
0.0478595
0.0446329
0.0419597
0.0397123
0.0377986
0.0361503
0.0347158
0.0334553
0.0323379
0.031339
0.0304387
0.0296208
0.0288719
0.0281808
0.0275381
0.0269362
0.0263689
0.0258315
0.0253206
0.0248339
0.0243702
0.023929
0.0235104
0.0231146
0.0227429
0.0223975
0.0220828
0.0218038
0.0215689
0.0213795
0.0212531
0.0211591
0.0223132
0.0485646
0.0857895
0.113691
0.125173
0.12481
0.117956
0.108916
0.100227
0.0930572
0.087817
0.0846257
0.0828152
0.0816839
0.0807932
0.0798991
0.0788893
0.0777306
0.0764321
0.075021
0.0735301
0.0719907
0.0704298
0.0688695
0.0673268
0.0658147
0.0643424
0.0629167
0.0615418
0.0602204
0.058954
0.0577433
0.056588
0.0554878
0.0544418
0.0534489
0.052508
0.0516163
0.0507728
0.0499765
0.0492259
0.0485199
0.0478574
0.0472367
0.0466563
0.0461148
0.0456111
0.0451441
0.0447135
0.0443169
0.0439585
0.04362
0.0433529
0.0833505
0.0715946
0.063146
0.0567762
0.0518142
0.0478518
0.0446234
0.041948
0.039698
0.0377814
0.0361296
0.0346909
0.0334257
0.0323027
0.0312973
0.0303895
0.0295631
0.0288044
0.0281022
0.0274469
0.026831
0.0262482
0.0256942
0.0251657
0.0246613
0.0241803
0.0237227
0.0232882
0.0228766
0.0224886
0.0221272
0.0218007
0.0215212
0.0213138
0.0212012
0.0212338
0.0213227
0.0224308
0.0469385
0.0833685
0.111436
0.12323
0.123278
0.11689
0.108368
0.100227
0.0935678
0.0888072
0.0861952
0.0849068
0.0842956
0.0839002
0.0834342
0.0827534
0.0818133
0.0806278
0.0792388
0.0776973
0.0760529
0.0743488
0.0726204
0.0708953
0.0691945
0.0675331
0.0659219
0.0643681
0.062876
0.0614482
0.0600859
0.0587888
0.0575564
0.0563874
0.0552803
0.0542334
0.0532447
0.0523122
0.0514338
0.0506076
0.0498312
0.0491027
0.0484202
0.047782
0.0471864
0.0466322
0.0461178
0.0456431
0.0452051
0.0448085
0.0444345
0.0441372
0.08335
0.0715934
0.0631438
0.0567729
0.0518097
0.0478458
0.0446156
0.041938
0.0396856
0.0377659
0.0361105
0.0346677
0.0333975
0.0322687
0.0312563
0.0303404
0.0295045
0.0287348
0.0280199
0.0273501
0.0267177
0.0261166
0.0255425
0.024993
0.0244673
0.0239659
0.0234896
0.0230376
0.0226084
0.0222018
0.0218223
0.0214859
0.0212228
0.0211027
0.0212191
0.0217218
0.0222635
0.0233152
0.0426773
0.0747221
0.101039
0.112915
0.11314
0.10783
0.101025
0.0948655
0.0896778
0.0856774
0.0832216
0.0819696
0.0814773
0.0813584
0.0813022
0.0810982
0.0806371
0.079889
0.0788735
0.0776357
0.0762285
0.0747033
0.0731051
0.0714708
0.0698298
0.0682043
0.0666107
0.0650607
0.0635624
0.0621209
0.0607394
0.0594194
0.0581615
0.0569652
0.0558298
0.054754
0.0537362
0.0527747
0.0518677
0.0510132
0.0502094
0.0494546
0.0487469
0.0480844
0.0474658
0.0468895
0.0463544
0.04586
0.0454037
0.0449901
0.0446002
0.0442897
0.0833498
0.0715928
0.0631427
0.056771
0.0518067
0.0478415
0.0446096
0.04193
0.0396751
0.0377525
0.0360936
0.0346466
0.0333714
0.0322366
0.031217
0.0302925
0.0294462
0.0286643
0.027935
0.0272485
0.0265967
0.0259735
0.0253752
0.0247999
0.0242482
0.0237222
0.0232249
0.0227552
0.022309
0.0218858
0.0214938
0.0211673
0.0209807
0.0211179
0.0218759
0.0235841
0.0249871
0.0258201
0.0268867
0.0296972
0.0355579
0.0431642
0.0502706
0.0559466
0.0600927
0.0633232
0.0657102
0.0675332
0.0688652
0.0699045
0.0708579
0.0718195
0.0727461
0.0735191
0.0740229
0.0741905
0.0740091
0.0735065
0.0727318
0.0717422
0.0705926
0.0693318
0.0680004
0.0666309
0.0652489
0.0638735
0.0625192
0.0611964
0.0599126
0.0586728
0.0574805
0.0563377
0.0552455