/*--------------------------------*- C++ -*----------------------------------*\
| =========                 |                                                 |
| \\      /  F ield         | OpenFOAM: The Open Source CFD Toolbox           |
|  \\    /   O peration     | Version:  v2012                                 |
|   \\  /    A nd           | Website:  www.openfoam.com                      |
|    \\/     M anipulation  |                                                 |
\*---------------------------------------------------------------------------*/
FoamFile
{
    version     2.0;
    format      ascii;
    class       volScalarField;
    location    "100/air";
    object      nut;
}
// * * * * * * * * * * * * * * * * * * * * * * * * * * * * * * * * * * * * * //

dimensions      [0 2 -1 0 0 0 0];


internalField   nonuniform List<scalar> 
287104
(
0.00648471
0.00601194
0.00564817
0.00535788
0.00512071
0.00492345
0.00475706
0.00461503
0.00449255
0.00438598
0.00429252
0.00420998
0.00413662
0.00407103
0.00401206
0.00395876
0.00391033
0.00386611
0.00382549
0.00378797
0.00375309
0.00372045
0.0036897
0.00366051
0.00363261
0.00360577
0.0035798
0.00355456
0.00352998
0.00350601
0.00348269
0.00346006
0.00343823
0.00341734
0.00339753
0.00337898
0.00336182
0.0033462
0.00333224
0.00332002
0.00330957
0.00330089
0.00329394
0.00328864
0.00328485
0.00328245
0.00328124
0.00328106
0.00328172
0.00328304
0.00328485
0.003287
0.00328937
0.00329184
0.00329432
0.00329675
0.00329909
0.0033013
0.00330338
0.00330532
0.00330714
0.00330885
0.0033105
0.00331212
0.00331374
0.00331541
0.00331716
0.00331904
0.00332109
0.00332334
0.00332582
0.00332855
0.00333155
0.00333485
0.00333845
0.00334234
0.00334651
0.00335095
0.00335565
0.00336057
0.00336569
0.003371
0.00337648
0.00338212
0.00338791
0.00339381
0.00339972
0.0034054
0.00341049
0.00341111
0.00648456
0.00601174
0.00564775
0.0053574
0.00512011
0.00492279
0.00475633
0.00461424
0.00449171
0.0043851
0.00429161
0.00420905
0.00413567
0.00407007
0.0040111
0.0039578
0.00390938
0.00386515
0.00382453
0.00378699
0.00375209
0.00371942
0.00368863
0.00365939
0.00363144
0.00360455
0.00357854
0.00355329
0.00352872
0.00350481
0.00348158
0.0034591
0.00343748
0.00341685
0.00339736
0.00337916
0.00336241
0.00334722
0.00333371
0.00332193
0.00331191
0.00330364
0.00329705
0.00329205
0.00328851
0.00328627
0.00328516
0.00328499
0.00328559
0.00328678
0.0032884
0.0032903
0.00329237
0.0032945
0.00329661
0.00329864
0.00330055
0.00330232
0.00330394
0.00330542
0.00330678
0.00330804
0.00330923
0.0033104
0.00331157
0.0033128
0.00331412
0.00331558
0.0033172
0.00331903
0.00332109
0.00332342
0.00332604
0.00332895
0.00333217
0.00333567
0.00333947
0.00334355
0.00334788
0.00335243
0.0033572
0.00336216
0.0033673
0.0033726
0.00337804
0.00338359
0.00338916
0.00339452
0.00339931
0.00339971
0.00648455
0.00601156
0.0056476
0.00535716
0.00511984
0.00492246
0.00475596
0.00461383
0.00449126
0.00438462
0.0042911
0.00420852
0.00413514
0.00406953
0.00401057
0.00395728
0.00390886
0.00386465
0.00382403
0.00378651
0.00375162
0.00371896
0.00368817
0.00365894
0.00363099
0.00360411
0.00357812
0.0035529
0.00352837
0.00350451
0.00348136
0.00345898
0.00343749
0.00341701
0.0033977
0.00337971
0.00336319
0.00334826
0.00333501
0.00332352
0.0033138
0.00330584
0.00329956
0.00329488
0.00329165
0.00328972
0.0032889
0.00328898
0.00328979
0.00329114
0.00329288
0.00329488
0.003297
0.00329916
0.0033013
0.00330334
0.00330525
0.00330703
0.00330866
0.00331016
0.00331154
0.00331283
0.00331406
0.00331527
0.00331649
0.00331777
0.00331915
0.00332067
0.00332236
0.00332426
0.00332639
0.0033288
0.00333148
0.00333445
0.00333772
0.00334128
0.00334511
0.00334921
0.00335353
0.00335807
0.00336281
0.00336772
0.00337278
0.00337798
0.00338332
0.00338876
0.00339423
0.00339949
0.00340421
0.0034048
0.00648446
0.00601147
0.00564739
0.00535689
0.00511949
0.00492203
0.00475546
0.00461326
0.00449062
0.00438393
0.00429037
0.00420776
0.00413435
0.00406874
0.00400976
0.00395647
0.00390806
0.00386385
0.00382324
0.00378571
0.00375082
0.00371815
0.00368735
0.00365811
0.00363016
0.00360327
0.00357728
0.00355206
0.00352755
0.00350372
0.00348061
0.00345829
0.00343687
0.0034165
0.00339732
0.00337947
0.00336312
0.00334838
0.00333535
0.00332409
0.00331462
0.00330692
0.00330093
0.00329658
0.00329368
0.00329205
0.0032915
0.00329182
0.00329281
0.0032943
0.00329613
0.00329818
0.00330034
0.00330252
0.00330468
0.00330676
0.00330875
0.00331064
0.0033124
0.00331406
0.00331563
0.00331713
0.00331859
0.00332004
0.00332153
0.00332308
0.00332475
0.00332656
0.00332855
0.00333075
0.00333319
0.00333589
0.00333886
0.00334212
0.00334566
0.00334948
0.00335356
0.00335787
0.0033624
0.00336712
0.003372
0.00337702
0.00338219
0.00338749
0.00339292
0.00339847
0.00340405
0.00340949
0.00341443
0.00341562
0.00648444
0.00601134
0.00564722
0.00535665
0.00511918
0.00492166
0.00475501
0.00461274
0.00449004
0.00438328
0.00428967
0.00420702
0.0041336
0.00406797
0.004009
0.00395572
0.00390732
0.00386311
0.00382251
0.00378499
0.0037501
0.00371743
0.00368664
0.0036574
0.00362945
0.00360256
0.00357658
0.00355138
0.00352689
0.00350309
0.00348003
0.00345779
0.00343646
0.00341619
0.00339714
0.00337945
0.00336328
0.00334874
0.00333593
0.00332492
0.00331574
0.0033084
0.0033028
0.00329881
0.00329625
0.00329492
0.00329461
0.00329512
0.00329625
0.00329785
0.00329976
0.00330186
0.00330406
0.00330626
0.00330842
0.0033105
0.00331247
0.00331433
0.00331608
0.00331774
0.00331933
0.00332087
0.0033224
0.00332396
0.00332556
0.00332726
0.00332908
0.00333106
0.00333322
0.00333559
0.0033382
0.00334106
0.00334417
0.00334756
0.0033512
0.00335509
0.00335921
0.00336355
0.00336808
0.00337276
0.00337758
0.00338253
0.0033876
0.00339279
0.00339811
0.00340355
0.00340905
0.00341445
0.00341942
0.00342105
0.00648438
0.00601123
0.00564704
0.00535639
0.00511884
0.00492123
0.0047545
0.00461214
0.00448935
0.00438252
0.00428886
0.00420619
0.00413276
0.00406715
0.00400819
0.00395492
0.00390653
0.00386233
0.00382173
0.0037842
0.0037493
0.00371662
0.00368581
0.00365655
0.00362859
0.0036017
0.00357571
0.00355052
0.00352605
0.0035023
0.0034793
0.00345712
0.0034359
0.00341575
0.00339684
0.00337932
0.00336334
0.00334901
0.00333645
0.0033257
0.00331686
0.00330983
0.00330454
0.00330083
0.00329852
0.0032974
0.00329725
0.00329788
0.0032991
0.00330076
0.00330271
0.00330483
0.00330702
0.00330921
0.00331135
0.0033134
0.00331533
0.00331715
0.00331886
0.00332048
0.00332202
0.00332353
0.00332502
0.00332654
0.00332811
0.00332978
0.00333158
0.00333354
0.0033357
0.00333807
0.00334069
0.00334357
0.00334671
0.00335013
0.00335382
0.00335776
0.00336195
0.00336636
0.00337094
0.00337568
0.00338054
0.0033855
0.00339058
0.00339578
0.00340111
0.00340658
0.00341213
0.00341764
0.00342279
0.00342493
0.00648434
0.00601112
0.00564685
0.00535613
0.0051185
0.00492079
0.00475395
0.00461146
0.00448854
0.00438157
0.0042878
0.00420507
0.00413161
0.004066
0.00400705
0.00395379
0.00390542
0.00386123
0.00382063
0.0037831
0.0037482
0.00371551
0.00368468
0.00365541
0.00362744
0.00360054
0.00357457
0.00354939
0.00352496
0.00350126
0.00347833
0.00345626
0.00343514
0.00341513
0.00339639
0.00337905
0.00336328
0.00334919
0.0033369
0.00332651
0.00331799
0.00331129
0.00330628
0.00330281
0.00330068
0.00329967
0.0032996
0.00330027
0.0033015
0.00330313
0.00330504
0.00330709
0.00330921
0.00331131
0.00331336
0.00331531
0.00331714
0.00331887
0.00332048
0.00332201
0.00332346
0.00332489
0.0033263
0.00332775
0.00332927
0.00333089
0.00333266
0.0033346
0.00333674
0.00333912
0.00334175
0.00334465
0.00334783
0.00335129
0.00335505
0.00335908
0.00336337
0.00336788
0.00337259
0.00337744
0.0033824
0.00338744
0.00339258
0.00339783
0.00340323
0.00340877
0.00341442
0.00342006
0.00342538
0.00342798
0.00648429
0.006011
0.00564667
0.00535586
0.00511814
0.00492032
0.00475335
0.00461073
0.00448766
0.00438056
0.00428673
0.00420402
0.00413061
0.00406505
0.00400613
0.00395289
0.0039045
0.00386026
0.00381959
0.00378197
0.00374694
0.00371412
0.00368316
0.00365375
0.00362564
0.00359861
0.00357252
0.00354725
0.00352276
0.00349903
0.00347611
0.00345408
0.00343306
0.00341318
0.00339462
0.00337753
0.00336206
0.00334838
0.00333655
0.0033266
0.00331853
0.00331222
0.00330755
0.00330433
0.00330237
0.00330149
0.00330149
0.00330219
0.00330341
0.00330501
0.00330685
0.00330883
0.00331086
0.00331287
0.00331481
0.00331665
0.00331838
0.00332
0.00332151
0.00332294
0.00332431
0.00332564
0.00332698
0.00332836
0.00332982
0.00333139
0.00333311
0.00333502
0.00333714
0.00333951
0.00334215
0.00334509
0.00334835
0.00335192
0.00335581
0.00336
0.00336447
0.0033692
0.00337412
0.00337918
0.00338429
0.00338945
0.0033947
0.00340008
0.00340562
0.00341132
0.00341715
0.00342301
0.00342856
0.00343169
0.00648424
0.00601089
0.00564648
0.00535558
0.00511774
0.00491978
0.00475261
0.00460972
0.00448627
0.0043787
0.00428503
0.00420316
0.00413093
0.00406649
0.00400842
0.00395562
0.00390724
0.00386263
0.00382127
0.00378272
0.00374662
0.00371264
0.0036805
0.00364994
0.00362074
0.00359272
0.00356575
0.00353973
0.00351461
0.00349041
0.00346715
0.00344491
0.00342384
0.00340405
0.00338573
0.00336904
0.00335413
0.0033411
0.00332999
0.00332078
0.00331341
0.00330776
0.00330368
0.00330099
0.0032995
0.00329904
0.00329942
0.00330046
0.00330201
0.00330395
0.00330613
0.00330847
0.00331085
0.00331323
0.00331555
0.00331778
0.00331989
0.00332188
0.00332376
0.00332555
0.00332725
0.00332892
0.00333056
0.00333222
0.00333391
0.00333567
0.00333749
0.00333952
0.00334182
0.0033444
0.0033473
0.00335051
0.00335407
0.00335796
0.00336219
0.00336675
0.00337165
0.00337689
0.0033824
0.00338804
0.00339363
0.00339919
0.00340483
0.00341059
0.00341652
0.00342263
0.00342886
0.0034351
0.0034409
0.00344446
0.00648419
0.00601078
0.00564629
0.0053553
0.00511735
0.00491924
0.00475189
0.00460876
0.00448496
0.00437714
0.00434127
0.00432158
0.00429428
0.00425492
0.00420547
0.00414947
0.00409019
0.00403016
0.00397118
0.00391441
0.00386058
0.00381006
0.00376297
0.00371928
0.00367883
0.00364139
0.00360668
0.00357441
0.00354428
0.00351603
0.00348941
0.00346421
0.00344028
0.00341758
0.00339623
0.00337622
0.00335746
0.00334269
0.00333128
0.00332282
0.00331694
0.00331331
0.0033116
0.00331152
0.00331278
0.00331534
0.00331895
0.00332337
0.00332834
0.00333365
0.00333911
0.00334458
0.00334995
0.00335514
0.00336009
0.00336479
0.00336922
0.00337339
0.00337733
0.00338107
0.00338465
0.0033881
0.00339149
0.00339484
0.0033982
0.00340161
0.00340512
0.00340865
0.00341216
0.00341563
0.00341909
0.00342283
0.00342684
0.00343103
0.00343512
0.00343926
0.00344404
0.00345058
0.00345865
0.00346751
0.00347282
0.00347696
0.00348105
0.00348541
0.00349007
0.00349494
0.00349988
0.00350451
0.00350809
0.00350934
0.00648415
0.00601067
0.0056461
0.005355
0.0051169
0.00491859
0.00475086
0.00460706
0.00448145
0.00438016
0.00771157
0.00843677
0.00842581
0.0081681
0.00784323
0.00751924
0.007221
0.00695624
0.00672585
0.00652813
0.00636048
0.00622
0.0061037
0.00600863
0.00593184
0.00587049
0.00582186
0.00578347
0.00575314
0.00572903
0.00570967
0.00569394
0.00568105
0.0056705
0.00566202
0.00565551
0.00565094
0.00564786
0.00564786
0.00565098
0.00565689
0.00566507
0.00567491
0.00568592
0.00569766
0.00570948
0.00572104
0.00573201
0.00574213
0.00575117
0.00575896
0.00576535
0.0057703
0.0057738
0.00577591
0.00577672
0.00577637
0.00577502
0.00577285
0.00577005
0.00576684
0.00576342
0.00576002
0.00575689
0.00575426
0.00575236
0.00575141
0.00575165
0.00575322
0.00575639
0.00576118
0.00576754
0.00577561
0.00578548
0.00579743
0.00581174
0.00582895
0.00584953
0.00587847
0.00593032
0.00505089
0.00456623
0.00428258
0.00410754
0.00399422
0.00391765
0.00386358
0.00382366
0.003789
0.00375978
0.00648411
0.00601056
0.00564592
0.00535473
0.00511652
0.00491807
0.00475016
0.00460613
0.0044802
0.00437857
0.00771151
0.0084383
0.0084255
0.00816342
0.00783269
0.0075019
0.00719639
0.0069242
0.0066865
0.0064818
0.00630768
0.00616144
0.00604025
0.00594129
0.0058617
0.00579864
0.00574936
0.00571127
0.00568204
0.00565964
0.00564244
0.00562913
0.00561879
0.00561077
0.00560467
0.00560028
0.00559743
0.00559597
0.00559572
0.00559651
0.00559814
0.00560042
0.00560329
0.00560652
0.00560995
0.00561352
0.00561701
0.00562029
0.00562325
0.00562583
0.00562802
0.00562986
0.00563138
0.00563264
0.00563369
0.00563463
0.00563553
0.00563648
0.0056376
0.00563897
0.00564069
0.00564287
0.00564559
0.00564898
0.00565312
0.00565806
0.0056639
0.00567073
0.00567871
0.00568775
0.00569781
0.00570886
0.00572096
0.00573416
0.00574859
0.00576447
0.00578239
0.00580319
0.00583101
0.00587937
0.00503075
0.00456551
0.00429491
0.00412856
0.00402066
0.00394708
0.00389427
0.00385422
0.00381891
0.00378815
0.00648406
0.00601046
0.00564574
0.00535447
0.00511615
0.00491755
0.00474945
0.00460516
0.00447885
0.00437673
0.00770416
0.0084314
0.00842019
0.00815962
0.00782995
0.00749971
0.00719425
0.00692172
0.00668343
0.00647805
0.00630328
0.00615657
0.00603522
0.00593652
0.00585768
0.00579592
0.00574848
0.00571272
0.00568623
0.00566693
0.00565307
0.00564326
0.00563647
0.00563196
0.00562926
0.00562805
0.00562811
0.00562923
0.00563117
0.00563371
0.00563661
0.00563968
0.00564277
0.00564623
0.0056497
0.00565275
0.00565511
0.00565665
0.00565738
0.00565747
0.00565705
0.00565635
0.00565551
0.00565471
0.00565407
0.0056537
0.00565371
0.00565417
0.00565518
0.0056568
0.00565908
0.0056621
0.0056659
0.00567048
0.00567588
0.0056821
0.00568912
0.00569696
0.00570562
0.0057151
0.00572545
0.00573674
0.00574905
0.00576255
0.00577748
0.00579426
0.00581383
0.00583772
0.00587221
0.00592373
0.00506536
0.00459445
0.00432011
0.00415109
0.0040412
0.00396612
0.00391216
0.00387129
0.00383553
0.00380107
0.00648402
0.00601036
0.00564557
0.00535423
0.00511583
0.00491713
0.00474892
0.0046045
0.00447805
0.0043758
0.00770175
0.00842918
0.00841833
0.00815794
0.00782824
0.00749779
0.007192
0.00691908
0.0066804
0.00647464
0.00629958
0.00615267
0.00603127
0.00593267
0.00585412
0.00579284
0.00574607
0.00571119
0.00568578
0.00566773
0.0056553
0.00564708
0.00564203
0.00563937
0.00563858
0.00563927
0.00564117
0.00564396
0.00564738
0.00565115
0.00565558
0.0056603
0.00566478
0.00566863
0.00567172
0.00567393
0.00567515
0.00567538
0.00567475
0.00567347
0.00567174
0.0056698
0.00566783
0.00566599
0.00566441
0.00566322
0.00566249
0.00566231
0.00566274
0.00566383
0.00566561
0.00566812
0.00567142
0.00567554
0.00568049
0.00568628
0.00569292
0.00570042
0.00570881
0.00571811
0.00572837
0.00573966
0.00575205
0.00576572
0.00578092
0.00579807
0.00581807
0.0058424
0.00587726
0.00592883
0.00506837
0.00459629
0.00432134
0.00415205
0.00404208
0.00396704
0.00391322
0.0038726
0.00383734
0.00380397
0.00648398
0.00601026
0.00564542
0.005354
0.00511553
0.00491676
0.00474845
0.00460393
0.00447735
0.00437497
0.00769875
0.00842575
0.00841492
0.00815466
0.0078251
0.00749473
0.00718895
0.00691598
0.00667719
0.00647131
0.00629615
0.00614919
0.00602782
0.00592936
0.00585107
0.00579019
0.00574397
0.00570979
0.00568521
0.00566813
0.00565679
0.00564981
0.00564612
0.00564496
0.00564577
0.00564812
0.00565165
0.00565601
0.00566084
0.00566578
0.00567122
0.00567658
0.00568128
0.00568492
0.0056874
0.00568859
0.00568848
0.00568717
0.00568494
0.00568205
0.0056788
0.00567544
0.00567219
0.00566921
0.00566664
0.0056646
0.00566316
0.00566239
0.00566234
0.00566304
0.00566453
0.00566683
0.00566995
0.00567396
0.00567888
0.00568469
0.00569139
0.00569897
0.00570747
0.00571691
0.00572733
0.00573881
0.00575144
0.00576539
0.00578092
0.00579847
0.00581893
0.0058438
0.00587927
0.0059314
0.00506969
0.00459691
0.00432159
0.00415215
0.00404216
0.0039672
0.00391354
0.00387321
0.00383844
0.00380607
0.00648394
0.00601016
0.00564527
0.0053538
0.00511528
0.00491645
0.00474808
0.00460349
0.00447686
0.0043744
0.00769672
0.00842316
0.00841197
0.00815143
0.00782162
0.00749103
0.00718506
0.00691194
0.00667305
0.00646713
0.00629199
0.00614512
0.00602392
0.00592572
0.00584779
0.00578738
0.00574174
0.00570823
0.00568443
0.00566821
0.00565784
0.00565195
0.0056495
0.00564974
0.0056521
0.00565613
0.00566141
0.00566748
0.00567387
0.00568011
0.00568589
0.00569151
0.00569637
0.00569996
0.00570202
0.00570243
0.00570121
0.00569859
0.00569491
0.00569054
0.00568581
0.00568105
0.00567649
0.00567233
0.00566872
0.00566577
0.00566359
0.00566222
0.00566169
0.00566204
0.00566327
0.00566539
0.00566841
0.00567234
0.00567722
0.00568308
0.00568988
0.00569761
0.00570629
0.00571594
0.00572661
0.00573837
0.00575131
0.00576558
0.00578147
0.0057994
0.00582029
0.00584559
0.00588154
0.00593416
0.00507112
0.00459752
0.00432171
0.00415199
0.00404189
0.00396692
0.00391336
0.00387324
0.00383892
0.00380748
0.0064839
0.00601008
0.00564513
0.00535362
0.00511506
0.0049162
0.00474781
0.00460321
0.00447657
0.00437411
0.00769576
0.00842156
0.00840969
0.00814847
0.00781802
0.00748688
0.00718046
0.00690701
0.00666793
0.00646197
0.00628692
0.00614029
0.00601947
0.00592177
0.00584447
0.00578479
0.00573995
0.00570731
0.00568442
0.00566916
0.00565979
0.00565496
0.00565369
0.00565526
0.00565913
0.00566485
0.00567195
0.00567988
0.00568803
0.00569577
0.00570245
0.00570753
0.00571138
0.00571427
0.00571556
0.00571488
0.00571227
0.0057081
0.00570281
0.00569689
0.00569072
0.00568465
0.00567895
0.00567384
0.00566949
0.00566598
0.00566339
0.00566177
0.00566111
0.00566145
0.00566277
0.00566504
0.00566827
0.00567246
0.00567759
0.00568372
0.00569083
0.0056989
0.00570791
0.00571789
0.00572888
0.00574094
0.00575417
0.00576872
0.00578485
0.00580299
0.00582405
0.00584954
0.00588568
0.00593856
0.00507352
0.00459861
0.00432194
0.00415166
0.0040412
0.00396605
0.00391244
0.00387243
0.00383845
0.00380781
0.00648386
0.00600999
0.005645
0.00535346
0.00511487
0.00491598
0.00474759
0.00460299
0.00447636
0.00437389
0.00769393
0.00841834
0.00840537
0.00814342
0.00781257
0.00748129
0.00717494
0.00690174
0.00666305
0.00645762
0.00628326
0.0061375
0.00601774
0.00592131
0.00584545
0.00578735
0.00574418
0.00571324
0.00569203
0.00567838
0.00567055
0.00566718
0.00566732
0.00567029
0.00567556
0.00568266
0.00569102
0.00569994
0.00570862
0.0057162
0.0057219
0.00572521
0.00572599
0.00572452
0.00572111
0.00571719
0.00571278
0.00570763
0.00570182
0.00569558
0.00568918
0.0056829
0.00567703
0.00567177
0.00566731
0.00566378
0.00566126
0.00565979
0.0056594
0.00566005
0.00566177
0.00566451
0.00566824
0.00567295
0.00567861
0.00568524
0.00569285
0.00570144
0.00571099
0.0057215
0.005733
0.00574553
0.00575921
0.00577416
0.00579065
0.00580911
0.00583045
0.00585621
0.00589273
0.0059462
0.00507794
0.00460075
0.00432237
0.0041508
0.00403937
0.00396349
0.00390938
0.00386909
0.00383514
0.00380502
0.00648383
0.00600991
0.00564488
0.00535332
0.00511472
0.00491587
0.00474755
0.00460309
0.00447671
0.0043746
0.00769738
0.00842035
0.00840518
0.00814121
0.00780882
0.0074767
0.0071704
0.00689829
0.0066619
0.00646011
0.00629081
0.00615148
0.00603936
0.0059515
0.00588475
0.00583588
0.0058017
0.0057792
0.00576569
0.00575891
0.00575708
0.00575886
0.00576331
0.0057697
0.00577745
0.0057859
0.00579421
0.00580125
0.00580569
0.00580613
0.00580147
0.00579131
0.0057763
0.00575815
0.00574003
0.00572206
0.00570493
0.0056893
0.00567561
0.00566475
0.00565654
0.00565017
0.00564519
0.00564144
0.00563882
0.00563734
0.005637
0.00563778
0.00563966
0.0056426
0.00564656
0.00565149
0.00565734
0.00566408
0.00567167
0.00568011
0.00568953
0.00569989
0.00571116
0.00572337
0.0057365
0.00575054
0.00576553
0.00578159
0.00579894
0.00581799
0.00583959
0.00586528
0.00590146
0.00595499
0.00508069
0.00459758
0.00431401
0.00413812
0.00402329
0.00394485
0.00388893
0.0038475
0.00381309
0.00378324
0.00648379
0.00600982
0.00564477
0.00535318
0.00511458
0.00491574
0.00474748
0.00460312
0.00447692
0.00437494
0.00769209
0.008412
0.00839808
0.00813835
0.00781213
0.00749059
0.00720071
0.00695147
0.00674419
0.00657677
0.00644555
0.00634603
0.00627339
0.0062228
0.00618968
0.00616988
0.0061599
0.00615685
0.00615853
0.00616332
0.00617012
0.00617821
0.00618717
0.00619666
0.0062063
0.00621546
0.00622297
0.00622697
0.00622469
0.00621252
0.00618653
0.00614349
0.00608242
0.00600364
0.00591714
0.00583455
0.00576361
0.00570692
0.00566431
0.00563437
0.00561493
0.00560463
0.00560288
0.0056064
0.00561264
0.00562007
0.00562801
0.0056362
0.0056446
0.00565326
0.00566227
0.0056717
0.0056816
0.00569202
0.00570302
0.0057147
0.00572615
0.00573993
0.00575599
0.00577414
0.00579401
0.00581513
0.00583708
0.00585987
0.00588375
0.00590918
0.00593719
0.0059696
0.00601307
0.00607359
0.00512128
0.00458941
0.00427451
0.00407864
0.00395152
0.00386605
0.00380675
0.0037645
0.00373148
0.00370496
0.00648375
0.00600975
0.00564466
0.00535307
0.0051145
0.00491576
0.00474774
0.00460393
0.00447944
0.00437084
0.00429754
0.00423505
0.00417104
0.00410398
0.00404175
0.00398387
0.0039301
0.00388021
0.00383399
0.00379117
0.00375147
0.00371461
0.00368029
0.00364826
0.00361826
0.00359008
0.00356354
0.00353854
0.00351499
0.00349289
0.00347227
0.00345323
0.00343592
0.00342053
0.00340727
0.00339635
0.00338791
0.003382
0.00337851
0.00337707
0.0033771
0.00337789
0.00337867
0.0033787
0.00338824
0.00340848
0.00343274
0.00345643
0.00347685
0.00349272
0.00350378
0.00351042
0.00351344
0.00351362
0.00351168
0.00350869
0.00350536
0.00350179
0.00349799
0.00349387
0.00348931
0.0034842
0.00347846
0.00347208
0.00346506
0.00345747
0.00345138
0.00344849
0.00344762
0.00344814
0.00344959
0.0034518
0.00345468
0.00345819
0.00346226
0.00346681
0.00347183
0.00347727
0.00348313
0.00348936
0.00349149
0.00349248
0.00349365
0.00349542
0.0034979
0.00350112
0.00350499
0.00350952
0.00351367
0.00351807
0.00648372
0.00600967
0.00564455
0.00535294
0.00511437
0.00491564
0.00474768
0.00460396
0.00447964
0.00437116
0.00427602
0.00419214
0.00411762
0.00405091
0.00399081
0.00393633
0.00388667
0.00384116
0.00379923
0.00376038
0.00372418
0.00369026
0.00365829
0.003628
0.00359919
0.00357171
0.00354545
0.00352037
0.0034965
0.00347389
0.00345266
0.003433
0.00341512
0.00339928
0.00338578
0.00337491
0.00336694
0.003362
0.00336004
0.00336061
0.00336293
0.00336606
0.00336909
0.00337125
0.00337235
0.00337247
0.00337169
0.00337005
0.0033675
0.00336396
0.00335941
0.00335389
0.00334757
0.00334069
0.00333359
0.00332661
0.00332011
0.00331435
0.00330955
0.00330584
0.00330325
0.00330179
0.00330139
0.00330197
0.00330343
0.00330567
0.0033086
0.00331216
0.00331651
0.0033214
0.00332675
0.0033325
0.00333866
0.00334522
0.00335216
0.0033595
0.00336724
0.00337537
0.00338387
0.00339269
0.00340162
0.00341058
0.00341965
0.00342891
0.00343842
0.00344824
0.00345831
0.0034687
0.00347869
0.00348867
0.00648369
0.0060096
0.00564445
0.00535282
0.00511424
0.00491554
0.00474765
0.00460405
0.00447996
0.00437179
0.00427683
0.00419291
0.00411823
0.00405132
0.00399101
0.00393631
0.00388644
0.00384071
0.00379855
0.00375946
0.00372301
0.0036888
0.00365652
0.00362589
0.0035967
0.00356882
0.00354215
0.00351667
0.00349239
0.00346942
0.00344789
0.00342802
0.00341005
0.00339431
0.00338115
0.00337099
0.00336423
0.00336115
0.00336185
0.00336573
0.00337162
0.00337804
0.00338361
0.00338739
0.00338909
0.00338867
0.00338624
0.00338205
0.00337639
0.00336957
0.00336187
0.00335357
0.00334494
0.00333625
0.00332773
0.00331962
0.00331215
0.0033055
0.00329982
0.00329523
0.00329179
0.0032895
0.00328837
0.00328835
0.00328937
0.00329138
0.00329432
0.00329812
0.00330283
0.00330845
0.00331495
0.00332232
0.00333059
0.00333977
0.00334985
0.00336083
0.00337267
0.0033853
0.00339863
0.00341255
0.00342689
0.00344153
0.00345638
0.00347139
0.00348651
0.00350172
0.0035169
0.00353211
0.00354656
0.00356083
0.00648366
0.00600953
0.00564434
0.00535267
0.00511407
0.00491534
0.00474743
0.00460382
0.0044797
0.00437147
0.00427636
0.0041922
0.00411724
0.00405003
0.00398941
0.00393441
0.00388423
0.00383819
0.00379572
0.00375632
0.00371954
0.00368501
0.00365239
0.00362141
0.00359188
0.00356364
0.00353662
0.0035108
0.0034862
0.00346294
0.00344117
0.00342113
0.00340311
0.00338747
0.00337467
0.00336526
0.00335988
0.00335912
0.00336347
0.00337229
0.00338373
0.00339539
0.00340494
0.00341106
0.00341373
0.00341318
0.00340974
0.00340388
0.00339609
0.00338688
0.00337674
0.0033661
0.00335536
0.00334488
0.00333495
0.00332584
0.00331776
0.0033109
0.00330541
0.00330141
0.00329899
0.00329824
0.00329918
0.00330202
0.00330676
0.00331332
0.00332165
0.00333192
0.00334428
0.00335855
0.00337456
0.00339221
0.00341134
0.00343173
0.00345313
0.00347528
0.00349787
0.00352061
0.0035432
0.00356538
0.00358691
0.00360761
0.00362738
0.00364619
0.00366406
0.00368105
0.00369717
0.00371261
0.00372666
0.00374034
0.00648362
0.00600945
0.00564422
0.0053525
0.00511386
0.0049151
0.00474715
0.0046035
0.00447935
0.00437106
0.00427586
0.00419155
0.00411637
0.0040489
0.00398799
0.00393265
0.0038821
0.00383567
0.00379278
0.00375294
0.00371572
0.00368074
0.00364766
0.00361623
0.00358624
0.00355755
0.00353009
0.00350384
0.00347885
0.00345521
0.0034331
0.00341276
0.0033945
0.00337873
0.00336599
0.00335702
0.00335275
0.00335442
0.00336415
0.00338225
0.00340596
0.00343005
0.00344921
0.00346088
0.00346628
0.00346703
0.00346387
0.00345765
0.00344922
0.00343943
0.00342902
0.00341871
0.0034091
0.00340074
0.00339409
0.00338957
0.00338749
0.00338813
0.00339171
0.0033984
0.00340812
0.00342179
0.00343908
0.00345954
0.00348268
0.00350799
0.00353499
0.00356394
0.00359379
0.00362392
0.00365387
0.00368319
0.00371148
0.0037384
0.00376372
0.00378724
0.00380888
0.00382859
0.00384642
0.00386244
0.00387676
0.00388952
0.00390091
0.00391112
0.00392036
0.00392886
0.00393673
0.00394426
0.00395081
0.00395777
0.00648358
0.00600935
0.00564407
0.00535229
0.00511359
0.00491476
0.00474673
0.004603
0.00447874
0.00437032
0.00427494
0.0041904
0.00411495
0.00404717
0.00398592
0.00393022
0.00387928
0.00383243
0.0037891
0.0037488
0.00371109
0.00367561
0.00364204
0.00361009
0.00357959
0.0035504
0.00352244
0.0034957
0.00347023
0.00344613
0.00342356
0.00340278
0.00338408
0.00336791
0.00335482
0.00334581
0.00334211
0.00334655
0.0033701
0.00342103
0.00349369
0.00356859
0.00362833
0.00366844
0.00368894
0.00370538
0.00371864
0.00372937
0.00373809
0.00374528
0.00375147
0.00375724
0.0037632
0.00377001
0.00377825
0.00378843
0.00380097
0.00381571
0.00383466
0.00385668
0.00388072
0.00390593
0.00393157
0.00395705
0.00398189
0.00400572
0.00402822
0.00404872
0.00406765
0.00408484
0.00410016
0.00411355
0.00412502
0.00413462
0.00414245
0.00414864
0.00415335
0.00415674
0.00415899
0.00416027
0.00416077
0.00416064
0.00416006
0.00415921
0.00415825
0.00415734
0.00415656
0.00415617
0.00415542
0.004156
0.00648353
0.00600924
0.00564389
0.00535205
0.00511326
0.00491435
0.00474624
0.0046024
0.00447802
0.00436946
0.00427389
0.00418914
0.00411343
0.00404536
0.00398377
0.0039277
0.00387634
0.00382904
0.0037852
0.00374436
0.00370608
0.00367
0.00363581
0.00360324
0.00357211
0.00354228
0.0035137
0.00348635
0.00346028
0.00343557
0.00341239
0.00339095
0.00337152
0.0033545
0.00334036
0.00333024
0.00332559
0.00333398
0.00342278
0.0036362
0.00392708
0.00420266
0.0044113
0.00455617
0.00464666
0.00468973
0.00471103
0.00471329
0.00470068
0.00467802
0.00464987
0.00462022
0.00459213
0.00456796
0.00454892
0.00453697
0.00453006
0.00452672
0.00452579
0.00452635
0.00452768
0.00452921
0.00453051
0.00453122
0.00453112
0.00453005
0.00452788
0.00452433
0.00451915
0.00451293
0.00450574
0.00449763
0.00448867
0.00447898
0.0044687
0.00445795
0.00444688
0.00443563
0.00442431
0.00441308
0.00440202
0.00439127
0.00438092
0.00437107
0.00436183
0.0043533
0.00434548
0.00433862
0.00433188
0.00432723
0.00648348
0.00600912
0.00564369
0.00535177
0.0051129
0.00491389
0.00474567
0.0046017
0.00447718
0.00436844
0.00427267
0.00418767
0.00411167
0.00404328
0.00398132
0.00392484
0.00387303
0.00382523
0.00378085
0.0037394
0.00370047
0.0036637
0.00362879
0.00359548
0.0035636
0.00353302
0.00350369
0.0034756
0.00344878
0.00342333
0.00339939
0.00337716
0.00335686
0.00333885
0.00332337
0.00331165
0.00330479
0.0033283
0.00375227
0.00454451
0.00530736
0.00582755
0.00609862
0.00620026
0.00619192
0.00611686
0.00600032
0.00587209
0.00574573
0.00562994
0.00553008
0.00545015
0.00538686
0.00533521
0.00529183
0.0052543
0.00522085
0.00519017
0.00516132
0.00513362
0.00510661
0.00507996
0.00505346
0.00502698
0.00500046
0.00497385
0.00494717
0.00492046
0.00489375
0.00486686
0.0048399
0.00481315
0.00478679
0.00476092
0.0047356
0.00471094
0.00468702
0.00466391
0.00464167
0.00462036
0.00460005
0.00458077
0.00456256
0.00454548
0.00452955
0.00451485
0.00450132
0.00448918
0.00447755
0.00446862
0.00648343
0.00600899
0.00564349
0.00535149
0.00511252
0.00491341
0.00474507
0.00460098
0.0044763
0.00436737
0.00427139
0.00418614
0.00410986
0.00404112
0.00397878
0.00392186
0.00386957
0.00382121
0.00377621
0.00373408
0.0036944
0.00365681
0.00362101
0.0035868
0.00355399
0.00352249
0.00349223
0.00346322
0.00343549
0.0034091
0.0033842
0.00336099
0.00333967
0.00332051
0.00330334
0.00328905
0.00327658
0.00335322
0.0048255
0.00636361
0.00731615
0.00771756
0.00771746
0.00750726
0.00721569
0.0069161
0.00664734
0.00642348
0.00625138
0.00613062
0.00604995
0.00598988
0.00593939
0.00589264
0.00584671
0.00580034
0.00575308
0.00570495
0.00565611
0.00560684
0.0055574
0.00550804
0.00545899
0.00541042
0.00536253
0.00531542
0.00526923
0.00522404
0.00517996
0.00513703
0.00509535
0.00505485
0.00501555
0.00497754
0.00494097
0.00490588
0.00487232
0.00484029
0.00480981
0.0047809
0.00475355
0.00472776
0.00470353
0.00468087
0.00465976
0.00464026
0.00462226
0.00460599
0.00459052
0.00457826
0.00648339
0.00600888
0.00564331
0.00535122
0.00511217
0.00491296
0.0047445
0.00460027
0.00447543
0.00436631
0.0042701
0.00418459
0.00410799
0.00403889
0.00397613
0.00391873
0.00386589
0.00381692
0.00377123
0.00372831
0.00368775
0.00364919
0.00361236
0.00357705
0.00354312
0.0035105
0.00347915
0.00344905
0.00342021
0.00339273
0.00336675
0.00334262
0.00332074
0.00330176
0.00328584
0.00327432
0.00326483
0.0033472
0.00492034
0.00653824
0.00752747
0.00789843
0.0078866
0.00766591
0.00736418
0.007061
0.0067989
0.0065987
0.00647062
0.00639808
0.00635428
0.00632154
0.00628957
0.00625329
0.0062109
0.00616237
0.00610854
0.00605054
0.00598955
0.00592661
0.00586263
0.00579834
0.00573434
0.00567109
0.00560894
0.00554815