/*--------------------------------*- C++ -*----------------------------------*\
| =========                 |                                                 |
| \\      /  F ield         | OpenFOAM: The Open Source CFD Toolbox           |
|  \\    /   O peration     | Version:  v2012                                 |
|   \\  /    A nd           | Website:  www.openfoam.com                      |
|    \\/     M anipulation  |                                                 |
\*---------------------------------------------------------------------------*/
FoamFile
{
    version     2.0;
    format      ascii;
    class       volScalarField;
    location    "100/air";
    object      qin;
}
// * * * * * * * * * * * * * * * * * * * * * * * * * * * * * * * * * * * * * //

dimensions      [1 0 -3 0 0 0 0];


internalField   uniform 0;

boundaryField
{
    inlet
    {
        type            calculated;
        value           nonuniform List<scalar> 
3200
(
533.837
536.935
535.338
534.038
532.905
531.812
530.739
529.681
528.638
527.61
526.599
525.605
524.63
523.671
522.73
521.804
520.89
519.984
519.089
518.216
517.385
516.604
515.856
515.083
514.213
513.188
512.011
510.761
509.576
508.607
507.968
507.716
507.838
508.26
508.861
509.52
510.164
510.778
511.374
511.967
512.562
513.167
513.803
514.497
515.256
516.079
516.967
517.918
518.928
519.986
521.082
522.199
523.319
524.418
525.458
526.388
527.156
527.727
528.101
528.316
528.443
528.561
528.735
529
529.356
529.78
530.252
530.788
531.462
532.408
533.761
535.637
538.068
540.98
544.173
547.281
549.74
550.891
550.287
545.404
525.059
534.087
533.617
532.104
530.771
529.56
528.429
527.349
526.3
525.275
524.277
523.306
522.358
521.423
520.488
519.547
518.598
517.647
516.704
515.78
514.89
514.044
513.229
512.404
511.508
510.502
509.391
508.242
507.172
506.309
505.753
505.56
505.718
506.149
506.736
507.379
508.032
508.681
509.323
509.957
510.585
511.222
511.896
512.632
513.43
514.288
515.211
516.194
517.233
518.315
519.427
520.55
521.666
522.748
523.761
524.656
525.386
525.919
526.258
526.449
526.57
526.707
526.933
527.287
527.774
528.368
529.043
529.798
530.678
531.775
533.179
534.956
537.102
539.525
542.018
544.218
545.627
545.889
544.769
539.063
516.884
528.492
530.302
529.394
528.232
527.057
525.903
524.791
523.726
522.703
521.714
520.75
519.793
518.832
517.865
516.894
515.931
514.987
514.063
513.162
512.285
511.433
510.594
509.739
508.83
507.84
506.779
505.707
504.717
503.918
503.398
503.203
503.326
503.702
504.239
504.858
505.509
506.169
506.824
507.47
508.114
508.77
509.465
510.217
511.027
511.895
512.825
513.813
514.852
515.931
517.037
518.156
519.269
520.353
521.371
522.276
523.02
523.576
523.954
524.206
524.411
524.646
524.97
525.4
525.921
526.491
527.072
527.654
528.283
529.058
530.094
531.489
533.273
535.377
537.6
539.615
541.119
541.988
541.372
535.658
511.108
522.857
526.596
526.597
525.847
524.897
523.808
522.663
521.53
520.438
519.401
518.399
517.401
516.401
515.413
514.462
513.562
512.711
511.885
511.053
510.182
509.267
508.324
507.364
506.385
505.384
504.372
503.386
502.495
501.785
501.328
501.162
501.277
501.619
502.118
502.711
503.355
504.018
504.678
505.328
505.976
506.64
507.345
508.104
508.917
509.786
510.716
511.708
512.759
513.857
514.982
516.109
517.212
518.267
519.258
520.166
520.971
521.647
522.17
522.53
522.745
522.868
522.971
523.124
523.363
523.681
524.053
524.474
524.994
525.724
526.782
528.247
530.104
532.232
534.435
536.521
538.408
539.806
538.988
533.289
506.87
517.714
522.749
523.523
523.075
522.355
521.448
520.42
519.351
518.291
517.267
516.267
515.265
514.256
513.259
512.306
511.416
510.583
509.768
508.924
508.007
507.025
506.016
505.021
504.06
503.134
502.235
501.376
500.598
499.964
499.535
499.35
499.408
499.677
500.11
500.657
501.272
501.916
502.564
503.208
503.855
504.525
505.24
506.008
506.835
507.724
508.679
509.701
510.787
511.922
513.086
514.248
515.378
516.446
517.429
518.3
519.035
519.61
520.004
520.217
520.276
520.242
520.196
520.22
520.366
520.653
521.077
521.646
522.39
523.368
524.622
526.159
527.94
529.908
532.029
534.301
536.601
538.082
536.593
531.27
503.27
512.74
518.584
520.08
519.857
519.328
518.693
517.968
517.198
516.406
515.549
514.589
513.556
512.487
511.399
510.328
509.319
508.396
507.547
506.721
505.901
505.083
504.237
503.35
502.44
501.525
500.625
499.768
498.996
498.352
497.879
497.608
497.556
497.717
498.063
498.55
499.127
499.752
500.396
501.051
501.722
502.426
503.181
503.997
504.879
505.827
506.843
507.926
509.066
510.244
511.432
512.594
513.696
514.708
515.605
516.365
516.971
517.408
517.667
517.762
517.734
517.659
517.632
517.744
518.053
518.568
519.259
520.08
520.996
522.002
523.12
524.403
525.928
527.79
530.069
532.71
535.222
536.256
534.011
529.461
499.871
507.921
514.325
516.74
516.918
516.614
516.243
515.81
515.35
514.897
514.278
513.36
512.235
511.024
509.77
508.52
507.36
506.37
505.579
504.919
504.386
503.931
503.373
502.576
501.553
500.403
499.241
498.171
497.26
496.537
496.003
495.664
495.535
495.626
495.923
496.382
496.954
497.594
498.274
498.981
499.718
500.495
501.324
502.215
503.17
504.186
505.261
506.386
507.548
508.723
509.88
510.986
512.01
512.928
513.724
514.386
514.909
515.287
515.525
515.643
515.69
515.744
515.897
516.225
516.757
517.458
518.25
519.045
519.791
520.519
521.338
522.414
523.927
526.005
528.646
531.55
533.845
534.085
531.317
527.777
497.038
503.896
510.663
514.19
514.993
514.935
514.725
514.402
514.024
513.722
513.27
512.405
511.209
509.872
508.48
507.102
505.864
504.888
504.231
503.782
503.516
503.35
502.98
502.159
500.903
499.409
497.907
496.578
495.52
494.742
494.207
493.883
493.77
493.878
494.195
494.682
495.29
495.977
496.715
497.488
498.292
499.128
500.005
500.93
501.907
502.934
504.006
505.112
506.237
507.359
508.452
509.488
510.443
511.299
512.049
512.688
513.216
513.634
513.948
514.179
514.37
514.585
514.891
515.332
515.897
516.526
517.129
517.648
518.099
518.6
519.342
520.531
522.316
524.734
527.627
530.465
532.18
531.594
528.656
526.169
495.345
501.187
507.964
512.503
513.986
514.09
513.908
513.583
513.139
512.775
512.351
511.547
510.362
508.991
507.561
506.16
504.928
504.002
503.442
503.11
502.935
502.834
502.494
501.619
500.219
498.547
496.899
495.494
494.43
493.698
493.237
492.992
492.95
493.112
493.469
493.983
494.606
495.301
496.043
496.814
497.605
498.413
499.245
500.114
501.03
501.997
503.006
504.049
505.111
506.175
507.218
508.217
509.148
509.996
510.753
511.42
511.998
512.49
512.897
513.228
513.509
513.777
514.071
514.413
514.79
515.163
515.494
515.796
516.153
516.718
517.668
519.149
521.226
523.846
526.736
529.217
530.205
528.969
526.164
524.637
494.858
499.699
505.999
511.183
513.269
513.431
513.159
512.847
512.424
511.994
511.517
510.737
509.596
508.258
506.877
505.55
504.399
503.539
503.021
502.708
502.492
502.304
501.906
501.032
499.67
498.069
496.537
495.284
494.381
493.79
493.433
493.257
493.25
493.416
493.747
494.206
494.751
495.351
495.987
496.645
497.316
498.003
498.719
499.489
500.322
501.218
502.166
503.154
504.169
505.199
506.226
507.222
508.163
509.029
509.816
510.524
511.155
511.703
512.155
512.503
512.747
512.91
513.029
513.14
513.272
513.44
513.665
513.993
514.508
515.322
516.544
518.255
520.478
523.114
525.804
527.776
528.056
526.413
523.938
523.208
495.111
498.967
504.372
509.774
512.412
512.647
512.199
511.888
511.643
511.328
510.86
510.071
508.923
507.586
506.259
505.054
504.053
503.315
502.854
502.548
502.268
501.954
501.471
500.629
499.407
498.015
496.735
495.743
495.067
494.63
494.345
494.17
494.112
494.191
494.405
494.725
495.113
495.546
496.013
496.504
497.015
497.56
498.173
498.879
499.679
500.555
501.482
502.446
503.44
504.458
505.485
506.494
507.457
508.353
509.173
509.913
510.562
511.101
511.5
511.739
511.817
511.772
511.67
511.595
511.617
511.786
512.127
512.66
513.418
514.455
515.844
517.652
519.896
522.431
524.804
526.205
525.881
524.07
522.022
521.909
495.588
498.605
502.912
508.169
511.357
511.843
511.215
510.786
510.728
510.708
510.422
509.677
508.472
507.039
505.665
504.532
503.703
503.155
502.824
502.577
502.279
501.874
501.304
500.472
499.376
498.186
497.139
496.375
495.877
495.54
495.266
495.03
494.865
494.813
494.882
495.052
495.293
495.589
495.929
496.3
496.704
497.167
497.726
498.401
499.182
500.043
500.956
501.908
502.897
503.921
504.968
506.009
507.008
507.934
508.766
509.485
510.07
510.492
510.726
510.766
510.642
510.424
510.218
510.129
510.238
510.574
511.125
511.864
512.786
513.931
515.381
517.216
519.424
521.781
523.752
524.576
523.793
522.011
520.407
520.736
496.036
498.435
501.622
506.426
510.107
511.09
510.426
509.766
509.746
510.043
510.1
509.547
508.347
506.773
505.237
504.055
503.326
502.96
502.789
502.638
502.373
501.931
501.295
500.451
499.436
498.389
497.498
496.868
496.46
496.154
495.855
495.552
495.296
495.14
495.107
495.187
495.359
495.607
495.915
496.272
496.679
497.14
497.659
498.236
498.881
499.609
500.43
501.342
502.338
503.404
504.516
505.632
506.693
507.642
508.437
509.052
509.476
509.703
509.739
509.613
509.385
509.148
509.009
509.06
509.35
509.87
510.573
511.416
512.395
513.574
515.053
516.895
519.02
521.12
522.631
522.923
521.849
520.243
519.049
519.669
496.396
498.398
500.585
504.697
508.694
510.356
509.928
509.068
508.897
509.352
509.757
509.529
508.482
506.841
505.099
503.736
502.955
502.656
502.599
502.569
502.416
502.046
501.431
500.598
499.625
498.643
497.816
497.233
496.855
496.561
496.255
495.927
495.631
495.43
495.357
495.414
495.587
495.855
496.201
496.628
497.126
497.634
498.072
498.416
498.732
499.141
499.743
500.562
501.562
502.697
503.917
505.15
506.297
507.262
507.984
508.452
508.693
508.753
508.679
508.523
508.35
508.236
508.258
508.476
508.905
509.52
510.273
511.134
512.131
513.345
514.864
516.691
518.665
520.426
521.451
521.295
520.09
518.75
517.9
518.685
496.684
498.519
499.952
503.254
507.298
509.664
509.762
508.894
508.475
508.819
509.373
509.448
508.679
507.141
505.31
503.766
502.829
502.449
502.378
502.397
502.34
502.074
501.535
500.769
499.873
498.972
498.205
497.655
497.292
497.011
496.721
496.406
496.113
495.908
495.833
495.904
496.109
496.417
496.813
497.322
497.917
498.45
498.754
498.789
498.694
498.711
499.031
499.702
500.662
501.827
503.124
504.458
505.694
506.694
507.373
507.734
507.849
507.819
507.743
507.699
507.744
507.913
508.228
508.694
509.309
510.069
510.976
512.047
513.318
514.815
516.509
518.275
519.881
520.998
521.246
520.437
518.958
517.699
516.958
517.668
497.009
498.85
499.759
502.189
505.935
508.826
509.648
509.075
508.477
508.507
508.931
509.157
508.727
507.545
505.939
504.439
503.392
502.802
502.485
502.28
502.053
501.691
501.152
500.501
499.829
499.196
498.657
498.239
497.923
497.65
497.369
497.071
496.796
496.599
496.529
496.614
496.846
497.184
497.611
498.152
498.752
499.223
499.372
499.173
498.809
498.568
498.674
499.186
500.034
501.126
502.381
503.7
504.934
505.931
506.605
506.971
507.117
507.158
507.185
507.26
507.415
507.669
508.032
508.512
509.115
509.855
510.754
511.847
513.168
514.708
516.376
517.986
519.298
520.023
519.886
518.885
517.537
516.595
516.054
516.777
497.54
499.387
499.861
501.336
504.407
507.493
509.077
509.096
508.539
508.232
508.337
508.533
508.414
507.759
506.671
505.476
504.428
503.574
502.847
502.2
501.581
500.953
500.332
499.809
499.445
499.211
499.034
498.856
498.651
498.415
498.154
497.883
497.633
497.442
497.352
497.407
497.618
497.952
498.386
498.9
499.401
499.723
499.745
499.487
499.119
498.868
498.904
499.275
499.934
500.817
501.871
503.02
504.139
505.091
505.796
506.259
506.543
506.726
506.872
507.026
507.219
507.48
507.83
508.289
508.873
509.605
510.521
511.661
513.034
514.578
516.144
517.533
518.528
518.895
518.458
517.376
516.23
515.571
515.162
515.856
498.314
500.079
500.177
500.724
502.895
505.836
508.043
508.793
508.491
507.931
507.623
507.588
507.588
507.365
506.823
506.03
505.098
504.098
503.081
502.111
501.204
500.382
499.697
499.246
499.077
499.121
499.234
499.293
499.249
499.118
498.94
498.749
498.558
498.378
498.237
498.195
498.299
498.567
498.979
499.442
499.809
499.978
499.946
499.784
499.593
499.476
499.516
499.751
500.173
500.759
501.501
502.368
503.281
504.14
504.878
505.478
505.952
506.312
506.576
506.775
506.962
507.191
507.51
507.948
508.529
509.281
510.242
511.436
512.829
514.304
515.693
516.823
517.52
517.587
516.94
515.875
514.964
514.533
514.199
514.84
499.242
500.92
500.815
500.679
501.998
504.566
507.134
508.539
508.582
507.864
507.107
506.657
506.497
506.43
506.25
505.831
505.144
504.245
503.237
502.229
501.266
500.393
499.673
499.194
499.018
499.105
499.321
499.518
499.62
499.631
499.598
499.551
499.477
499.349
499.174
499.013
498.955
499.095
499.439
499.836
500.104
500.199
500.202
500.193
500.179
500.146
500.132
500.194
500.358
500.635
501.051
501.625
502.32
503.069
503.823
504.55
505.211
505.753
506.139
506.386
506.564
506.759
507.048
507.474
508.07
508.864
509.883
511.111
512.461
513.788
514.947
515.821
516.262
516.093
515.323
514.355
513.688
513.421
513.12
513.698
500.233
501.876
501.775
501.278
501.935
504.008
506.637
508.511
508.941
508.216
507.1
506.187
505.688
505.524
505.472
505.308
504.91
504.279
503.494
502.631
501.738
500.87
500.101
499.524
499.22
499.197
499.363
499.578
499.747
499.86
499.961
500.076
500.171
500.185
500.094
499.927
499.771
499.771
499.978
500.252
500.441
500.549
500.668
500.808
500.867
500.77
500.574
500.399
500.307
500.313
500.464
500.811
501.345
502.009
502.754
503.549
504.333
505.009
505.5
505.8
505.98
506.151
506.41
506.827
507.445
508.29
509.353
510.565
511.795
512.913
513.835
514.486
514.715
514.366
513.555
512.753
512.32
512.155
511.863
512.384
501.569
503.15
503.17
502.519
502.649
504.079
506.438
508.604
509.585
509.233
508.093
506.877
506.011
505.555
505.342
505.15
504.844
504.406
503.866
503.231
502.523
501.763
501.013
500.372
499.938
499.761
499.796
499.931
500.071
500.194
500.336
500.528
500.762
500.999
501.191
501.276
501.242
501.183
501.173
501.181
501.218
501.376
501.676
501.972
502.032
501.752
501.265
500.788
500.429
500.21
500.179
500.396
500.85
501.458
502.15
502.891
503.634
504.296
504.793
505.104
505.286
505.444
505.689
506.108
506.753
507.623
508.656
509.731
510.73
511.592
512.294
512.747
512.766
512.269
511.519
510.977
510.774
510.654
510.361
510.832
503.119
504.548
504.685
503.978
503.727
504.483
506.279
508.422
509.921
510.23
509.453
508.227
507.115
506.316
505.753
505.266
504.768
504.268
503.802
503.346
502.909
502.426
501.882
501.347
500.919
500.672
500.608
500.658
500.739
500.807
500.859
500.931
501.109
501.467
501.975
502.457
502.717
502.701
502.467
502.155
502.015
502.245
502.764
503.24
503.327
502.921
502.216
501.501
500.931
500.54
500.372
500.487
500.866
501.402
501.985
502.557
503.091
503.55
503.896
504.125
504.282
504.45
504.724
505.177
505.832
506.644
507.509
508.325
509.049
509.698
510.241
510.51
510.324
509.755
509.191
508.969
508.951
508.824
508.542
508.982
504.908
506.166
506.393
505.696
505.258
505.512
506.665
508.459
510.157
511.052
510.801
509.805
508.641
507.608
506.74
505.955
505.198
504.501
503.929
503.494
503.254
503.082
502.86
502.595
502.344
502.175
502.115
502.131
502.156
502.117
501.953
501.706
501.585
501.825
502.453
503.197
503.678
503.686
503.269
502.737
502.542
502.926
503.687
504.352
504.534
504.168
503.479
502.745
502.105
501.583
501.229
501.132
501.317
501.693
502.119
502.499
502.797
503.015
503.169
503.282
503.4
503.586
503.902
504.377
504.983
505.635
506.247
506.79
507.31
507.828
508.229
508.289
507.917
507.356
507.023
507.048
507.101
506.933
506.685
507.118
506.717
507.852
508.173
507.535
507.05
507.005
507.592
508.849
510.4
511.621
511.869
511.243
510.205
509.093
508.056
507.105
506.204
505.36
504.638
504.092
503.877
503.875
503.91
503.926
503.927
503.934
503.958
503.972
503.914
503.684
503.187
502.495
501.941
501.908
502.473
503.288
503.836
503.784
503.198
502.555
502.45
503.109
504.188
505.096
505.45
505.258
504.78
504.233
503.649
502.99
502.327
501.849
501.697
501.835
502.106
502.365
502.553
502.68
502.767
502.834
502.912
503.051
503.302
503.67
504.101
504.511
504.868
505.221
505.63
506.046
506.262
506.086
505.583
505.119
505.018
505.192
505.228
505.015
504.822
505.261
508.446
509.529
509.971
509.43
508.981
508.808
508.996
509.703
510.882
512.15
512.772
512.576
511.813
510.768
509.674
508.657
507.724
506.838
506.021
505.323
504.981
504.936
505.021
505.168
505.347
505.526
505.662
505.684
505.507
505.021
504.144
503.01
502.05
501.727
502.135
502.891
503.4
503.262
502.559
501.877
501.907
502.858
504.285
505.49
506.073
506.11
505.908
505.628
505.167
504.374
503.343
502.405
501.853
501.725
501.86
502.091
502.351
502.628
502.884
503.046
503.082
503.037
503.004
503.043
503.146
503.282
503.462
503.735
504.088
504.362
504.332
503.928
503.383
503.077
503.166
503.386
503.352
503.109
502.985
503.433
510.001
511.105
511.703
511.29
510.913
510.726
510.698
510.973
511.708
512.812
513.634
513.837
513.435
512.569
511.486
510.418
509.454
508.557
507.695
506.874
506.347
506.113
506.051
506.127
506.322
506.574
506.779
506.803
506.516
505.807
504.649
503.239
502.032
501.481
501.679
502.269
502.684
502.517
501.823
501.171
501.259
502.323
503.926
505.339
506.122
506.352
506.361
506.295
505.962
505.121
503.859
502.599
501.747
501.403
501.433
501.704
502.183
502.825
503.461
503.846
503.825
503.444
502.905
502.422
502.115
502.019
502.133
502.407
502.69
502.755
502.449
501.877
501.374
501.243
501.448
501.632
501.508
501.257
501.208
501.662
511.275
512.466
513.247
512.984
512.685
512.542
512.444
512.452
512.794
513.607
514.436
514.913
514.869
514.252
513.229
512.085
511.009
510.029
509.106
508.198
507.52
507.091
506.816
506.7
506.761
506.944
507.12
507.115
506.767
505.981
504.777
503.368
502.137
501.445
501.382
501.696
501.961
501.832
501.296
500.758
500.794
501.667
503.08
504.416
505.236
505.55
505.648
505.677
505.454
504.719
503.523
502.27
501.36
500.921
500.888
501.23
501.987
503.078
504.172
504.812
504.701
503.899
502.766
501.726
501.062
500.849
500.997
501.293
501.458
501.271
500.723
500.068
499.661
499.666
499.895
499.984
499.771
499.534
499.557
500.011
512.17
513.493
514.466
514.362
514.131
514.044
513.968
513.862
513.915
514.385
515.04
515.6
515.821
515.475
514.571
513.359
512.106
510.944
509.896
508.913
508.159
507.625
507.203
506.897
506.751
506.744
506.776
506.693
506.349
505.664
504.671
503.522
502.46
501.715
501.382
501.362
501.429
501.349
501.04
500.678
500.606
501.063
501.946
502.877
503.507
503.774
503.855
503.879
503.739
503.236
502.383
501.452
500.73
500.331
500.284
500.695
501.691
503.158
504.621
505.438
505.202
504.01
502.383
500.945
500.102
499.915
500.157
500.456
500.47
500.058
499.359
498.711
498.405
498.465
498.624
498.57
498.274
498.059
498.143
498.59
512.647
514.117
515.263
515.308
515.126
515.078
515.057
514.936
514.804
514.936
515.284
515.728
516.065
515.959
515.235
514.026
512.612
511.231
510.01
508.948
508.173
507.636
507.176
506.752
506.404
506.153
505.969
505.779
505.489
505.031
504.397
503.635
502.833
502.108
501.572
501.268
501.144
501.081
500.968
500.782
500.631
500.665
500.927
501.3
501.596
501.725
501.739
501.715
501.624
501.369
500.937
500.444
500.019
499.735
499.705
500.153
501.266
502.913
504.529
505.378
505.013
503.577
501.71
500.155
499.358
499.312
499.658
499.931
499.812
499.27
498.551
497.984
497.758
497.787
497.794
497.565
497.18
496.976
497.098
497.528
512.753
514.346
515.628
515.796
515.635
515.597
515.619
515.52
515.28
515.119
515.102
515.282
515.571
515.62
515.105
513.999
512.526
510.982
509.601
508.462
507.688
507.2
506.776
506.305
505.8
505.321
504.93
504.65
504.445
504.241
503.956
503.528
502.945
502.275
501.653
501.209
500.988
500.939
500.948
500.896
500.734
500.511
500.327
500.237
500.215
500.194
500.144
500.078
500.008
499.918
499.793
499.636
499.453
499.277
499.258
499.674
500.733
502.298
503.806
504.539
504.084
502.625
500.835
499.456
498.885
499.025
499.446
499.684
499.501
498.969
498.359
497.931
497.76
497.702
497.517
497.096
496.611
496.392
496.519
496.909
512.627
514.286
515.65
515.903
515.735
515.669
515.695
515.612
515.308
514.923
514.566
514.411
514.518
514.6
514.262
513.33
511.929
510.346
508.882
507.696
506.93
506.495
506.123
505.637
505.026
504.387
503.86
503.545
503.437
503.424
503.351
503.089
502.604
501.981
501.389
500.979
500.806
500.819
500.909
500.941
500.819
500.532
500.166
499.841
499.626
499.504
499.418
499.34
499.28
499.255
499.261
499.259
499.195
499.074
499.035
499.329
500.146
501.37
502.53
503.035
502.565
501.316
499.887
498.9
498.637
498.937
499.382
499.594
499.441
499.049
498.651
498.403
498.285
498.132
497.761
497.165
496.58
496.32
496.416
496.735
512.405
514.056
515.448
515.747
515.548
515.424
515.417
515.324
514.984
514.453
513.832
513.353
513.195
513.186
512.941
512.202
510.978
509.495
508.059
506.885
506.138
505.743
505.411
504.921
504.247
503.521
502.944
502.65
502.622
502.697
502.666
502.393
501.886
501.291
500.806
500.559
500.553
500.695
500.864
500.95
500.876
500.627
500.262
499.891
499.61
499.44
499.341
499.269
499.22
499.211
499.245
499.281
499.259
499.16
499.068
499.163
499.585
500.273
500.92
501.138
500.731
499.865
498.974
498.475
498.51
498.901
499.321
499.524
499.477
499.309
499.175
499.126
499.077
498.861
498.356
497.632
496.973
496.665
496.708
496.932
512.186
513.752
515.128
515.444
515.203
515.006
514.94
514.82
514.459
513.854
513.065
512.324
511.883
511.695
511.457
510.885
509.895
508.617
507.313
506.215
505.514
505.157
504.859
504.374
503.672
502.916
502.343
502.091
502.105
502.171
502.062
501.675
501.091
500.521
500.173
500.131
500.33
500.625
500.877
500.998
500.955
500.756
500.446
500.106
499.819
499.624
499.506
499.435
499.397
499.402
499.454
499.522
499.548
499.482
499.338
499.199
499.161
499.237
499.319
499.247
498.949
498.527
498.202
498.16
498.415
498.819
499.175
499.382
499.474
499.551
499.679
499.825
499.861
499.631
499.062
498.282
497.596
497.258
497.249
497.376
511.984
513.408
514.744
515.066
514.786
514.517
514.386
514.229
513.856
513.226
512.355
511.434
510.749
510.365
510.087
509.656
508.918
507.897
506.785
505.806
505.172
504.868
504.62
504.167
503.472
502.721
502.168
501.944
501.953
501.952
501.719
501.203
500.55
500.012
499.784
499.905
500.256
500.657
500.964
501.103
501.072
500.9
500.633
500.326
500.04
499.815
499.659
499.562
499.522
499.552
499.655
499.803
499.924
499.931
499.761
499.416
498.962
498.494
498.084
497.772
497.579
497.535
497.664
497.95
498.322
498.679
498.957
499.169
499.386
499.67
500.014
500.326
500.453
500.249
499.677
498.907
498.248
497.915
497.878
497.929
511.762
513.014
514.304
514.638
514.332
514.003
513.812
513.619
513.24
512.611
511.714
510.694
509.841
509.304
508.992
508.686
508.187
507.424
506.512
505.661
505.109
504.879
504.712
504.332
503.687
502.966
502.434
502.214
502.187
502.096
501.743
501.124
500.427
499.913
499.754
499.946
500.343
500.76
501.062
501.196
501.168
501.013
500.776
500.495
500.209
499.952
499.744
499.6
499.54
499.589
499.76
500.017
500.267
500.374
500.215
499.738
499.002
498.166
497.43
496.962
496.836
497.021
497.404
497.847
498.233
498.514
498.716
498.925
499.225
499.647
500.138
500.571
500.777
500.617
500.083
499.372
498.783
498.489
498.45
498.465
511.466
512.541
513.791
514.144
513.826
513.448
513.207
512.983
512.6
511.985
511.098
510.046
509.11
508.495
508.182
507.99
507.687
507.134
506.388
505.653
505.189
505.055
505.005
504.744
504.195
503.54
503.043
502.817
502.735
502.546
502.077
501.363
500.618
500.096
499.939
500.111
500.457
500.803
501.043
501.145
501.119
500.987
500.787
500.543
500.274
500.001
499.754
499.564
499.472
499.525
499.744
500.093
500.455
500.657
500.536
500.017
499.165
498.176
497.308
496.778
496.671
496.924
497.368
497.817
498.148
498.343
498.478
498.669
499.003
499.492
500.062
500.568
500.83
500.714
500.237
499.61
499.115
498.881
498.862
498.873
511.07
511.982
513.197
513.573
513.254
512.837
512.554
512.309
511.928
511.333
510.476
509.44
508.492
507.859
507.567
507.453
507.273
506.853
506.227
505.597
505.238
505.225
505.318
505.208
504.796
504.248
503.813
503.588
503.438
503.125
502.515
501.68
500.858
500.294
500.097
500.201
500.447
500.678
500.82
500.872
500.843
500.738
500.583
500.393
500.166
499.909
499.652
499.438
499.32
499.359
499.591
499.981
500.405
500.672
500.604
500.121
499.294
498.327
497.48
496.961
496.844
497.061
497.441
497.807
498.049
498.164
498.239
498.398
498.727
499.231
499.829
500.367
500.659
500.578
500.161
499.628
499.231
499.063
499.071
499.096
510.53
511.291
512.469
512.869
512.558
512.115
511.807
511.554
511.186
510.62
509.808
508.817
507.891
507.258
506.957
506.841
506.68
506.31
505.769
505.258
505.033
505.158
505.393
505.43
505.169
504.76
504.418
504.205
503.974
503.513
502.733
501.757
500.845
500.232
499.991
500.027
500.175
500.295
500.345
500.342
500.301
500.214
500.096
499.96
499.788
499.574
499.344
499.141
499.02
499.041
499.248
499.617
500.037
500.324
500.308
499.912
499.204
498.372
497.642
497.188
497.07
497.224
497.508
497.77
497.917
497.955
497.971
498.086
498.385
498.873
499.468
500.009
500.31
500.253
499.896
499.456
499.152
499.04
499.07
499.105
510.053
510.693
511.833
512.246
511.936
511.469
511.142
510.89
510.54
510.008
509.248
508.313
507.427
506.799
506.461
506.276
506.049
505.662
505.18
504.797
504.73
505.002
505.367
505.532
505.412
505.143
504.894
504.677
504.333
503.677
502.688
501.552
500.558
499.925
499.684
499.697
499.79
499.836
499.818
499.768
499.707
499.621
499.525
499.43
499.311
499.145
498.949
498.766
498.646
498.648
498.818
499.149
499.55
499.856
499.903
499.613
499.039
498.343
497.722
497.326
497.208
497.318
497.535
497.726
497.809
497.79
497.759
497.836
498.104
498.571
499.151
499.68
499.97
499.916
499.596
499.224
498.987
498.912
498.954
498.988
508.921
509.368
510.424
510.875
510.626
510.191
509.893
509.686
509.398
508.934
508.244
507.359
506.449
505.684
505.096
504.611
504.148
503.7
503.361
503.241
503.408
503.795
504.177
504.353
504.308
504.166
504.019
503.811
503.381
502.612
501.554
500.429
499.502
498.935
498.715
498.704
498.746
498.759
498.724
498.641
498.53
498.408
498.286
498.17
498.058
497.943
497.833
497.745
497.697
497.703
497.789
497.966
498.207
498.43
498.525
498.415
498.112
497.713
497.36
497.171
497.184
497.344
497.537
497.648
497.625
497.509
497.406
497.437
497.68
498.133
498.702
499.217
499.496
499.461
499.205
498.918
498.736
498.66
498.671
498.672
)
;
    }
    outlet
    {
        type            calculated;
        value           nonuniform List<scalar> 
3200
(
575.547
576.643
573.677
571.254
569.075
567.046
565.173
563.461
561.823
560.056
557.875
556.659
555.637
554.698
553.727
552.705
551.638
550.563
549.584
548.861
548.656
547.992
546.759
544.986
543.036
541.08
539.09
537.109
535.271
533.743
532.656
532.067
531.947
532.201
532.698
533.295
533.857
534.286
534.555
534.753
535.023
535.396
535.716
535.628
534.703
533.547
532.68
532.067
531.669
531.483
531.506
531.728
532.13
532.703
533.524
534.841
536.271
536.974
537.503
538.04
538.463
538.646
538.599
538.491
538.566
539.013
539.87
541.023
542.283
543.533
544.762
546.089
547.714
549.818
552.448
555.421
558.324
560.63
562.167
561.151
560.699
571.213
570.373
568.263
566.198
564.251
562.46
560.83
559.292
557.678
555.698
554.458
553.466
552.566
551.64
550.666
549.649
548.627
547.689
546.956
546.664
546.001
544.826
543.157
541.265
539.308
537.3
535.302
533.45
531.902
530.781
530.141
529.956
530.134
530.553
531.078
531.587
531.988
532.256
532.45
532.679
532.97
533.197
533.084
532.307
531.295
530.483
529.896
529.515
529.335
529.353
529.551
529.91
530.417
531.127
532.203
533.353
534.005
534.513
535.005
535.378
535.528
535.474
535.387
535.508
536.011
536.915
538.091
539.344
540.559
541.739
543.028
544.636
546.726
549.286
552.032
554.504
556.305
556.791
551.389
548.987
563.507
565.598
564.518
562.865
561.036
559.229
557.561
556.016
554.484
552.678
551.416
550.414
549.528
548.639
547.711
546.74
545.746
544.813
544.029
543.61
542.912
541.782
540.229
538.436
536.539
534.579
532.628
530.812
529.275
528.129
527.429
527.155
527.231
527.55
527.993
528.445
528.823
529.092
529.287
529.487
529.719
529.885
529.784
529.194
528.388
527.698
527.184
526.849
526.694
526.713
526.884
527.182
527.595
528.168
529.005
529.899
530.501
531.032
531.543
531.926
532.079
532.022
531.923
532.018
532.487
533.36
534.523
535.797
537.071
538.336
539.7
541.312
543.253
545.445
547.666
549.76
551.548
551.463
544.758
541.146
555.963
560.252
560.265
559.295
557.903
556.312
554.711
553.155
551.653
549.946
548.663
547.655
546.787
545.919
545.003
544.029
543.025
542.084
541.253
540.747
540.041
538.962
537.512
535.832
534.02
532.123
530.22
528.432
526.902
525.741
525.003
524.672
524.681
524.925
525.292
525.678
526.005
526.246
526.431
526.621
526.83
526.968
526.883
526.439
525.816
525.252
524.817
524.528
524.39
524.398
524.532
524.77
525.107
525.574
526.235
526.936
527.475
528.007
528.533
528.934
529.105
529.064
528.979
529.089
529.582
530.5
531.735
533.103
534.457
535.737
536.987
538.308
539.791
541.481
543.435
545.735
547.769
546.938
540.268
535.985
549.726
555.321
556.048
555.536
554.623
553.437
552.1
550.678
549.284
547.645
546.282
545.214
544.335
543.454
542.504
541.486
540.453
539.507
538.632
538.078
537.421
536.431
535.09
533.527
531.822
530.022
528.205
526.482
524.982
523.812
523.026
522.618
522.528
522.664
522.925
523.217
523.475
523.684
523.867
524.065
524.267
524.383
524.309
523.973
523.5
523.052
522.692
522.447
522.32
522.31
522.407
522.6
522.89
523.279
523.802
524.358
524.841
525.367
525.905
526.328
526.527
526.524
526.488
526.664
527.238
528.239
529.536
530.906
532.155
533.194
534.076
534.976
536.12
537.738
540.008
542.742
544.511
542.635
536.776
532.314
544.466
550.934
552.233
551.924
551.28
550.403
549.347
548.177
547.043
545.566
544.136
542.95
541.996
541.06
540.056
539.001
537.966
537.04
536.139
535.558
534.984
534.111
532.873
531.397
529.769
528.044
526.299
524.64
523.182
522.023
521.211
520.742
520.564
520.595
520.744
520.936
521.125
521.305
521.489
521.689
521.873
521.964
521.895
521.639
521.285
520.937
520.648
520.445
520.335
520.319
520.399
520.575
520.834
521.153
521.555
521.997
522.436
522.962
523.521
523.982
524.236
524.303
524.348