/*--------------------------------*- C++ -*----------------------------------*\
| =========                 |                                                 |
| \\      /  F ield         | OpenFOAM: The Open Source CFD Toolbox           |
|  \\    /   O peration     | Version:  v2012                                 |
|   \\  /    A nd           | Website:  www.openfoam.com                      |
|    \\/     M anipulation  |                                                 |
\*---------------------------------------------------------------------------*/
FoamFile
{
    version     2.0;
    format      ascii;
    class       volScalarField;
    location    "100/air";
    object      qr;
}
// * * * * * * * * * * * * * * * * * * * * * * * * * * * * * * * * * * * * * //

dimensions      [1 0 -3 0 0 0 0];


internalField   uniform 0;

boundaryField
{
    inlet
    {
        type            calculated;
        value           nonuniform List<scalar> 
3200
(
25.3257
28.4241
26.8271
25.5266
24.3934
23.301
22.2277
21.1698
20.1265
19.0985
18.0874
17.094
16.1182
15.16
14.219
13.2931
12.3787
11.4726
10.5774
9.70504
8.87368
8.09299
7.34431
6.57215
5.7015
4.67645
3.4993
2.24994
1.06483
0.0952288
-0.543398
-0.795547
-0.673207
-0.251253
0.349893
1.00862
1.65272
2.26652
2.86282
3.45551
4.05064
4.6553
5.29179
5.98578
6.74512
7.56763
8.45536
9.40675
10.4163
11.475
12.5703
13.6872
14.8078
15.9068
16.9464
17.8763
18.6446
19.2161
19.5898
19.8051
19.9317
20.0493
20.2234
20.4888
20.845
21.2687
21.7404
22.2767
22.9503
23.8968
25.2501
27.1258
29.5565
32.4687
35.6617
38.7701
41.2289
42.3801
41.7756
36.8926
16.5478
25.5755
25.1058
23.5929
22.2594
21.0483
19.9177
18.8379
17.7885
16.7639
15.7655
14.7944
13.8465
12.9114
11.9771
11.0355
10.0865
9.13603
8.19283
7.26837
6.37855
5.53278
4.71813
3.89224
2.99711
1.99084
0.879195
-0.268982
-1.33883
-2.20264
-2.75818
-2.95151
-2.79349
-2.36249
-1.77552
-1.13193
-0.479141
0.169766
0.811282
1.44525
2.07408
2.71035
3.38433
4.12033
4.91878
5.77712
6.69939
7.68307
8.7214
9.80374
10.9152
12.0387
13.1543
14.2367
15.2495
16.1451
16.8747
17.4072
17.7464
17.9379
18.0588
18.1959
18.4216
18.7761
19.2623
19.8562
20.5312
21.2869
22.1665
23.2638
24.668
26.4447
28.5905
31.0132
33.5069
35.7069
37.1157
37.3776
36.2574
30.5516
8.37242
19.9809
21.7902
20.8827
19.7203
18.5461
17.3915
16.2794
15.2143
14.1913
13.2032
12.2382
11.2813
10.321
9.35321
8.38266
7.42017
6.47529
5.55173
4.65073
3.77392
2.92154
2.08272
1.22795
0.318317
-0.671725
-1.73205
-2.80461
-3.7943
-4.59344
-5.11362
-5.30797
-5.18547
-4.80943
-4.27193
-3.65354
-3.00194
-2.34214
-1.68738
-1.04085
-0.397512
0.258479
0.95349
1.70539
2.51531
3.38359
4.31335
5.30136
6.34041
7.41986
8.52615
9.64437
10.7574
11.8413
12.8596
13.7646
14.5084
15.0642
15.4424
15.6949
15.8994
16.1351
16.4584
16.8891
17.4099
17.9799
18.5602
19.1431
19.7714
20.5469
21.5831
22.9777
24.762
26.8661
29.0889
31.1039
32.6074
33.4771
32.8604
27.1468
2.59676
14.346
18.0848
18.0852
17.3361
16.3852
15.2967
14.1517
13.019
11.9272
10.8898
9.88736
8.88969
7.88919
6.90153
5.95034
5.05107
4.20003
3.37323
2.54126
1.67076
0.756087
-0.186919
-1.14739
-2.1264
-3.12706
-4.13971
-5.12552
-6.01609
-6.72644
-7.18356
-7.34937
-7.23463
-6.89237
-6.39375
-5.80043
-5.15608
-4.49324
-3.83338
-3.18304
-2.53518
-1.87084
-1.16596
-0.407569
0.40521
1.27456
2.20482
3.19692
4.24752
5.34566
6.47113
7.59801
8.70026
9.75584
10.7467
11.6551
12.4599
13.1357
13.6584
14.0183
14.2336
14.3563
14.46
14.6131
14.8513
15.1693
15.5413
15.963
16.4829
17.2124
18.2705
19.7358
21.5928
23.721
25.9234
28.0101
29.897
31.2948
30.477
24.7772
-1.64128
9.20304
14.2373
15.0118
14.5642
13.8434
12.9371
11.9084
10.8398
9.77932
8.75593
7.75591
6.75357
5.74455
4.74792
3.79452
2.90517
2.07203
1.25686
0.412177
-0.504287
-1.48663
-2.49532
-3.49066
-4.45134
-5.37764
-6.27612
-7.13505
-7.91335
-8.54759
-8.97611
-9.16155
-9.10357
-8.83406
-8.40126
-7.85467
-7.23961
-6.59523
-5.94733
-5.30373
-4.65632
-3.98589
-3.2718
-2.50306
-1.67619
-0.787233
0.167775
1.19003
2.27538
3.41103
4.57451
5.7366
6.86636
7.93511
8.9173
9.78865
10.5241
11.0986
11.493
11.7059
11.7647
11.7303
11.685
11.7087
11.8547
12.1412
12.5658
13.1346
13.8788
14.8563
16.1106
17.6479
19.4288
21.3971
23.518
25.79
28.0896
29.5709
28.0818
22.7587
-5.24117
4.22824
10.0727
11.5685
11.3462
10.817
10.1815
9.45711
8.68695
7.8948
7.03726
6.07749
5.04497
3.97531
2.88777
1.81679
0.807932
-0.11513
-0.96472
-1.79006
-2.60991
-3.42864
-4.2746
-5.16106
-6.07166
-6.98634
-7.88637
-8.74297
-9.51548
-10.1591
-10.6326
-10.9037
-10.9556
-10.7941
-10.448
-9.96167
-9.38447
-8.75952
-8.115
-7.46057
-6.78968
-6.08551
-5.33041
-4.51412
-3.63279
-2.68438
-1.66793
-0.585305
0.554598
1.7328
2.92045
4.08281
5.18509
6.19686
7.09332
7.85383
8.46006
8.89652
9.15608
9.25082
9.2228
9.1473
9.12028
9.23254
9.54154
10.0568
10.7477
11.569
12.4848
13.4906
14.609
15.8919
17.4164
19.2788
21.5574
24.1986
26.7107
27.7449
25.4997
20.9499
-8.64057
-0.589996
5.81335
8.22866
8.40642
8.10315
7.73172
7.29886
6.83864
6.38571
5.76677
4.84842
3.72363
2.51309
1.25917
0.00842523
-1.15128
-2.14178
-2.93268
-3.59222
-4.12539
-4.58068
-5.13879
-5.93549
-6.9581
-8.10824
-9.27006
-10.3407
-11.2508
-11.9741
-12.5081
-12.8477
-12.9768
-12.8852
-12.5886
-12.1291
-11.5575
-10.9175
-10.2377
-9.53047
-8.7937
-8.01664
-7.18684
-6.29588
-5.34132
-4.3249
-3.25059
-2.12548
-0.963733
0.211322
1.3688
2.47493
3.4989
4.4168
5.21237
5.87512
6.39778
6.77608
7.01349
7.13131
7.17842
7.23281
7.38608
7.71401
8.24529
8.94695
9.73881
10.5332
11.2801
12.0081
12.8263
13.903
15.4156
17.4937
20.1343
23.0385
25.3333
25.574
22.8062
19.2657
-11.4737
-4.61502
2.15216
5.67827
6.4821
6.424
6.21332
5.8906
5.51286
5.2102
4.75856
3.89383
2.69772
1.36057
-0.0311902
-1.40938
-2.64736
-3.62314
-4.28049
-4.72921
-4.9951
-5.16155
-5.53107
-6.35209
-7.6083
-9.10227
-10.6042
-11.933
-12.9913
-13.7694
-14.3046
-14.6283
-14.7413
-14.6338
-14.3168
-13.8296
-13.2217
-12.5345
-11.7964
-11.0233
-10.2196
-9.38291
-8.50616
-7.58136
-6.60438
-5.57698
-4.50525
-3.39913
-2.27411
-1.1519
-0.0590447
0.976733
1.93137
2.78797
3.5375
4.17664
4.7046
5.12232
5.43627
5.66732
5.85844
6.07352
6.38012
6.82049
7.38611
8.0143
8.61774
9.13677
9.58788
10.0889
10.831
12.0196
13.8046
16.223
19.1158
21.9533
23.6686
23.0826
20.1442
17.6574
-13.1668
-7.32428
-0.547015
3.99195
5.4746
5.5788
5.39646
5.07194
4.62752
4.26388
3.83964
3.03538
1.85058
0.480007
-0.949961
-2.35122
-3.58294
-4.50918
-5.0689
-5.40179
-5.57647
-5.67709
-6.01773
-6.8921
-8.29226
-9.96478
-11.6122
-13.0175
-14.0815
-14.813
-15.2743
-15.5189
-15.5617
-15.3989
-15.042
-14.5285
-13.9051
-13.2098
-12.4684
-11.6974
-10.9067
-10.0987
-9.26662
-8.3975
-7.48088
-6.51478
-5.50499
-4.46213
-3.40013
-2.33648
-1.29294
-0.294164
0.636935
1.48442
2.24148
2.90819
3.48673
3.97844
4.38536
4.71713
4.9977
5.26529
5.55963
5.90166
6.27887
6.65126
6.98299
7.28495
7.64133
8.20629
9.15698
10.6377
12.7145
15.3346
18.2242
20.7056
21.6941
20.4574
17.6524
16.1253
-13.6537
-8.81185
-2.51267
2.67217
4.75762
4.91943
4.64741
4.33577
3.91252
3.48296
3.00544
2.22561
1.08436
-0.253385
-1.63428
-2.96087
-4.11198
-4.97206
-5.49012
-5.80295
-6.01884
-6.20723
-6.60531
-7.47934
-8.84161
-10.4426
-11.9742
-13.2269
-14.1302
-14.7216
-15.0779
-15.254
-15.2617
-15.0951
-14.7645
-14.3052
-13.7599
-13.1603
-12.5248
-11.8663
-11.1948
-10.5088
-9.79184
-9.02269
-8.18909
-7.29288
-6.34492
-5.35769
-4.34247
-3.31205
-2.28568
-1.28924
-0.348798
0.517883
1.30472
2.01317
2.64407
3.19172
3.64415
3.99132
4.23566
4.39882
4.51725
4.62897
4.76099
4.92893
5.15329
5.48126
5.99632
6.8103
8.03269
9.74403
11.9667
14.6031
17.2928
19.2648
19.5447
17.9017
15.4266
14.6966
-13.4001
-9.5446
-4.13918
1.26291
3.90045
4.13548
3.6873
3.37676
3.13134
2.817
2.34824
1.55944
0.411228
-0.924924
-2.25259
-3.45729
-4.45821
-5.19602
-5.65691
-5.96321
-6.24382
-6.55748
-7.04015
-7.88202
-9.10449
-10.4964
-11.7768
-12.7683
-13.4447
-13.8813
-14.1661
-14.3416
-14.3997
-14.3203
-14.1058
-13.7864
-13.3986
-12.9656
-12.4983
-12.0069
-11.4964
-10.9511
-10.3384
-9.63264
-8.83227
-7.95645
-7.0291
-6.06553
-5.07162
-4.05319
-3.02604
-2.01685
-1.05423
-0.158328
0.661811
1.40163
2.05116
2.5896
2.98889
3.2272
3.30567
3.26034
3.159
3.08341
3.10593
3.27447
3.61523
4.14864
4.9066
5.94409
7.33242
9.14107
11.3851
13.9201
16.2925
17.694
17.3697
15.5583
13.5105
13.3978
-12.9232
-9.90585
-5.59913
-0.342667
2.84592
3.3312
2.70319
2.27438
2.21681
2.1967
1.91097
1.16581
-0.0388318
-1.4727
-2.8468
-3.97899
-4.8088
-5.35631
-5.68725
-5.93453
-6.23251
-6.6376
-7.20749
-8.03915
-9.13505
-10.3251
-11.3719
-12.1365
-12.6339
-12.9717
-13.2457
-13.4816
-13.6459
-13.6985
-13.6293
-13.4596
-13.2182
-12.9225
-12.5827
-12.2111
-11.8072
-11.3445
-10.7856
-10.1108
-9.32893
-8.46788
-7.55483
-6.60339
-5.6148
-4.59007
-3.5429
-2.50235
-1.50381
-0.577636
0.25441
0.973863
1.55841
1.98043
2.2148
2.25515
2.13051
1.91296
1.70632
1.61806
1.72671
2.06248
2.61344
3.35295
4.27482
5.41996
6.87001
8.70486
10.9126
13.2698
15.2411
16.0652
15.2822
13.4995
11.8955
12.2251
-12.4753
-10.076
-6.88928
-2.08558
1.5961
2.57897
1.91493
1.25497
1.23418
1.53168
1.58837
1.03587
-0.164748
-1.73855
-3.27435
-4.45621
-5.18564
-5.55128
-5.72266
-5.87311
-6.13857
-6.5806
-7.21654
-8.06021
-9.07521
-10.1226
-11.0131
-11.6432
-12.0513
-12.3576
-12.6562
-12.9591
-13.2157
-13.3714
-13.4041
-13.3243
-13.1522
-12.9045
-12.5964
-12.2391
-11.8326
-11.3714
-10.8528
-10.2751
-9.62984
-8.90227
-8.08168
-7.16906
-6.17336
-5.10739
-3.99486
-2.87901
-1.8181
-0.869176
-0.0744588
0.541116
0.964636
1.19128
1.22748
1.10159
0.873798
0.636631
0.497647
0.549118
0.838661
1.35827
2.0619
2.9042
3.88326
5.06243
6.54169
8.38339
10.509
12.6089
14.1195
14.4112
13.3373
11.7315
10.5376
11.1576
-12.1152
-10.1138
-7.92587
-3.81411
0.182295
1.8451
1.41714
0.556356
0.386174
0.840327
1.24537
1.01776
-0.0293125
-1.67049
-3.41187
-4.77527
-5.55653
-5.85499
-5.91243
-5.94262
-6.09556
-6.46496
-7.08079
-7.91317
-8.88614
-9.86841
-10.6957
-11.2783
-11.6564
-11.9506
-12.2561
-12.5844
-12.8804
-13.0815
-13.1543
-13.0974
-12.9243
-12.6565
-12.3108
-11.8838
-11.3854
-10.8773
-10.4392
-10.0954
-9.77957
-9.36985
-8.76787
-7.9498
-6.94935
-5.81401
-4.59407
-3.36135
-2.21403
-1.24907
-0.527281
-0.0594201
0.182016
0.241615
0.167539
0.012155
-0.161126
-0.275554
-0.252857
-0.0353827
0.393908
1.00859
1.76127
2.62295
3.61927
4.83368
6.35273
8.17932
10.1536
11.915
12.9394
12.7836
11.5789
10.2386
9.38844
10.1737
-11.8275
-9.99248
-8.55936
-5.25701
-1.21314
1.15241
1.25099
0.383084
-0.0367757
0.307261
0.861359
0.936975
0.16742
-1.37011
-3.20158
-4.74562
-5.68195
-6.06223
-6.13302
-6.1141
-6.17106
-6.43753
-6.97595
-7.74248
-8.63834
-9.53975
-10.3061
-10.8563
-11.2192
-11.5001
-11.7899
-12.1056
-12.3985
-12.6038
-12.6783
-12.6077
-12.4019
-12.0941
-11.6981
-11.1889
-10.5948
-10.0616
-9.7573
-9.72273
-9.81755
-9.80068
-9.48065
-8.80948
-7.84936
-6.68428
-5.38763
-4.05367
-2.81719
-1.8174
-1.13799
-0.776855
-0.662299
-0.692177
-0.76838
-0.81225
-0.767711
-0.598083
-0.283457
0.182568
0.797794
1.55755
2.46436
3.53603
4.80648
6.30321
7.99728
9.7633
11.3701
12.4871
12.7343
11.9256
10.4468
9.1877
8.44619
9.15655
-11.5026
-9.6611
-8.75192
-6.32185
-2.57628
0.3146
1.13702
0.564126
-0.0347506
-0.00473621
0.419333
0.645367
0.216108
-0.96635
-2.57245
-4.07211
-5.11915
-5.70912
-6.02589
-6.23126
-6.45845
-6.82009
-7.35897
-8.01
-8.68278
-9.3152
-9.85452
-10.2727
-10.5885
-10.8611
-11.1427
-11.4405
-11.7157
-11.9119
-11.9821
-11.8977
-11.6648
-11.3272
-10.9005
-10.3597
-9.75898
-9.28807
-9.13919
-9.33842
-9.70253
-9.9432
-9.83688
-9.32549
-8.47714
-7.3856
-6.13019
-4.81153
-3.57714
-2.57984
-1.90593
-1.54074
-1.39406
-1.35343
-1.32592
-1.25117
-1.09591
-0.842177
-0.479341
0.000206018
0.604105
1.34386
2.24233
3.33527
4.65622
6.19715
7.86429
9.47504
10.787
11.5119
11.375
10.3732
9.02595
8.08361
7.54271
8.26556
-10.9715
-9.12463
-8.65053
-7.17497
-4.10393
-1.0183
0.565316
0.584467
0.0280855
-0.279019
-0.174125
0.0213658
-0.0969752
-0.752717
-1.84006
-3.03562
-4.08334
-4.93692
-5.664
-6.31094
-6.92997
-7.5584
-8.17908
-8.70248
-9.06649
-9.30028
-9.47691
-9.65561
-9.86019
-10.0961
-10.3578
-10.6284
-10.8784
-11.0698
-11.1594
-11.104
-10.893
-10.5592
-10.1257
-9.61165
-9.11062
-8.78805
-8.76639
-9.02393
-9.39234
-9.64375
-9.6077
-9.23681
-8.57735
-7.69414
-6.64022
-5.49145
-4.37266
-3.42017
-2.71487
-2.25232
-1.96838
-1.78493
-1.63888
-1.48556
-1.29219
-1.03155
-0.681055
-0.222474
0.3615
1.09378
2.01003
3.1496
4.52248
6.06657
7.6327
9.02124
10.0167
10.3832
9.94668
8.86449
7.71821
7.05929
6.65072
7.34442
-10.197
-8.43216
-8.33482
-7.78761
-5.61599
-2.67563
-0.46851
0.281399
-0.0203666
-0.580521
-0.888578
-0.923441
-0.923643
-1.14584
-1.68804
-2.48101
-3.41294
-4.41323
-5.43032
-6.40082
-7.30757
-8.12975
-8.81393
-9.26521
-9.43466
-9.39069
-9.27693
-9.21851
-9.26269
-9.39379
-9.57113
-9.76225
-9.95292
-10.1338
-10.274
-10.3163
-10.2128
-9.94444
-9.53196
-9.06979
-8.70273
-8.53306
-8.56509
-8.72734
-8.9186
-9.03579
-8.99555
-8.75993
-8.33863
-7.7522
-7.01028
-6.14309
-5.23
-4.37113
-3.63351
-3.03325
-2.5596
-2.19923
-1.93554
-1.73586
-1.54947
-1.32011
-1.00168
-0.563602
0.0172728
0.769436
1.73074
2.92473
4.31722
5.7926
7.18131
8.31148
9.00878
9.07573
8.42917
7.36332
6.45287
6.02205
5.68816
6.32835
-9.26883
-7.59091
-7.69663
-7.83195
-6.51362
-3.94495
-1.37717
0.0274388
0.0709559
-0.647678
-1.40391
-1.85426
-2.01482
-2.08127
-2.26093
-2.68049
-3.36728
-4.26658
-5.27401
-6.28254
-7.24546
-8.11814
-8.83871
-9.31769
-9.49344
-9.40603
-9.19048
-8.99336
-8.89147
-8.88024
-8.91337
-8.96054
-9.03406
-9.16282
-9.33768
-9.49878
-9.55675
-9.41678
-9.07228
-8.67489
-8.40697
-8.31265
-8.30924
-8.3181
-8.33262
-8.36484
-8.37922
-8.31736
-8.15297
-7.87645
-7.46006
-6.88681
-6.19181
-5.44188
-4.6884
-3.96152
-3.30015
-2.75829
-2.37212
-2.12495
-1.94778
-1.75188
-1.46379
-1.0373
-0.441711
0.352915
1.37142
2.59932
3.94924
5.27623
6.43599
7.3097
7.75028
7.58141
6.81201
5.8438
5.17675
4.90936
4.60828
5.18649
-8.2779
-6.63508
-6.73616
-7.23346
-6.57677
-4.50354
-1.87447
-0.000313679
0.429671
-0.29551
-1.41088
-2.32436
-2.82324
-2.98775
-3.03935
-3.20287
-3.6018
-4.23227
-5.01777
-5.88077
-6.77381
-7.64129
-8.41013
-8.98759
-9.29139
-9.31418
-9.14868
-8.93369
-8.76465
-8.65163
-8.55033
-8.43553
-8.34052
-8.3266
-8.41724
-8.58447
-8.74016
-8.73989
-8.53349
-8.25967
-8.07064
-7.96223
-7.84362
-7.70374
-7.644
-7.74147
-7.93765
-8.11183
-8.20435
-8.19852
-8.04742
-7.70008
-7.16615
-6.50274
-5.75703
-4.96195
-4.17857
-3.50196
-3.01086
-2.71134
-2.53109
-2.36074
-2.10135
-1.68468
-1.06656
-0.221469
0.842166
2.05384
3.28406
4.40152
5.32336
5.97476
6.20373
5.85439
5.04368
4.24163
3.80883
3.64404
3.35169
3.87236
-6.94269
-5.36103
-5.34083
-5.99195
-5.86271
-4.43212
-2.07315
0.0929213
1.07366
0.721733
-0.41859
-1.63466
-2.50072
-2.95644
-3.16967
-3.36177
-3.66781
-4.10556
-4.64575
-5.28031
-5.98853
-6.74846
-7.49821
-8.13957
-8.57306
-8.75064
-8.71575
-8.58039
-8.4406
-8.3173
-8.17504
-7.98331
-7.74943
-7.51239
-7.32059
-7.23551
-7.26965
-7.32783
-7.33854
-7.3305
-7.29318
-7.13576
-6.83524
-6.539
-6.47916
-6.75906
-7.24616
-7.72318
-8.0819
-8.3014
-8.33282
-8.11489
-7.66129
-7.05343
-6.36162
-5.62063
-4.87734
-4.21572
-3.71839
-3.40726
-3.22536
-3.0671
-2.82201
-2.40293
-1.7586
-0.888151
0.144317
1.21969
2.21847
3.08045
3.78281
4.23584
4.25508
3.75797
3.00732
2.46536
2.26238
2.14229
1.84968
2.32113
-5.39226
-3.96314
-3.82598
-4.5333
-4.78476
-4.02802
-2.23269
-0.0888763
1.40979
1.71868
0.941417
-0.284788
-1.39633
-2.19535
-2.75859
-3.24511
-3.7437
-4.24316
-4.7094
-5.16511
-5.6022
-6.08563
-6.62959
-7.16418
-7.59212
-7.8398
-7.90311
-7.85311
-7.7725
-7.7045
-7.65271
-7.58036
-7.40273
-7.04477
-6.5359
-6.05392
-5.79475
-5.81037
-6.044
-6.35678
-6.49628
-6.26597
-5.74685
-5.27132
-5.18433
-5.59071
-6.29553
-7.01034
-7.58047
-7.97169
-8.1391
-8.02393
-7.64507
-7.10946
-6.52658
-5.95393
-5.4204
-4.96161
-4.61532
-4.38646
-4.22979
-4.06133
-3.78729
-3.33461
-2.67953
-1.86771
-1.00206
-0.186799
0.537439
1.18714
1.72919
1.99823
1.81314
1.24402
0.680154
0.457988
0.439197
0.312691
0.0305853
0.47063
-3.60341
-2.3449
-2.11804
-2.81499
-3.25332
-2.99898
-1.84604
-0.0525512
1.64586
2.54049
2.28921
1.29355
0.12935
-0.903009
-1.77101
-2.55664
-3.3131
-4.01049
-4.58208
-5.01734
-5.25692
-5.42953
-5.65093
-5.91652
-6.16688
-6.33637
-6.39621
-6.38074
-6.35563
-6.39465
-6.55843
-6.8049
-6.9263
-6.68616
-6.05791
-5.31439
-4.83298
-4.82483
-5.24225
-5.77454
-5.96934
-5.58522
-4.82417
-4.15954
-3.97691
-4.34288
-5.03282
-5.76599
-6.40599
-6.92846
-7.2826
-7.379
-7.19387
-6.81869
-6.39204
-6.0125
-5.71474
-5.4961
-5.34274
-5.22947
-5.11137
-4.92531
-4.60942
-4.13413
-3.52844
-2.87584
-2.26442
-1.72103
-1.20153
-0.683154
-0.282493
-0.222726
-0.594689
-1.15512
-1.48831
-1.46311
-1.41053
-1.57799
-1.8265
-1.39354
-1.79445
-0.65949
-0.338306
-0.976219
-1.46094
-1.50655
-0.919255
0.337235
1.88881
3.10954
3.35724
2.73138
1.69323
0.581893
-0.455398
-1.40681
-2.30698
-3.15137
-3.87337
-4.41979
-4.63396
-4.63593
-4.60114
-4.58508
-4.58431
-4.5775
-4.55285
-4.539
-4.59761
-4.82756
-5.32406
-6.01614
-6.5699
-6.60302
-6.03878
-5.22288
-4.67518
-4.72782
-5.31363
-5.95651
-6.06104
-5.40278
-4.32359
-3.41516
-3.06162
-3.25283
-3.73138
-4.27851
-4.86188
-5.5215
-6.18481
-6.66185
-6.81413
-6.67622
-6.40511
-6.14644
-5.95823
-5.83171
-5.74431
-5.677
-5.59973
-5.46062
-5.20968
-4.84097
-4.41068
-4.00019
-3.64285
-3.29071
-2.88121
-2.46571
-2.24894
-2.42581
-2.92806
-3.39271
-3.49355
-3.31973
-3.28344
-3.49588
-3.68919
-3.25015
-0.0650853
1.0176
1.45968
0.918842
0.469655
0.296222
0.484287
1.19209
2.37078
3.63917
4.26113
4.0647
3.30135
2.25624
1.16229
0.145963
-0.787612
-1.67313
-2.49056
-3.18831
-3.53019
-3.57508
-3.49048
-3.3436
-3.16408
-2.98489
-2.8496
-2.8272
-3.00388
-3.49066
-4.36754
-5.50115
-6.46119
-6.78476
-6.37625
-5.62027
-5.11102
-5.24936
-5.9524
-6.63413
-6.60447
-5.6529
-4.22661
-3.02153
-2.43848
-2.40126
-2.60377
-2.88297
-3.34479
-4.13755
-5.16794
-6.10584
-6.65868
-6.78681
-6.65144
-6.42046
-6.16046
-5.883
-5.62778
-5.46491
-5.42921
-5.47432
-5.50772
-5.46878
-5.36524
-5.2292
-5.04899
-4.7759
-4.42337
-4.14928
-4.17894
-4.58284
-5.12838
-5.43432
-5.34538
-5.12491
-5.15939
-5.40251
-5.5264
-5.07823
1.48984
2.59379
3.1915
2.77879
2.4015
2.21478
2.18643
2.4612
3.19713
4.30046
5.12283
5.3257
4.92397
4.05805
2.97456
1.90701
0.942634
0.0456455
-0.816212
-1.63766
-2.16475
-2.39785
-2.46037
-2.38467
-2.18919
-1.93692
-1.73194
-1.70798
-1.99562
-2.70456
-3.86238
-5.27227
-6.47909
-7.03011
-6.83185
-6.2427
-5.82783
-5.99431
-6.68814
-7.34024
-7.2523
-6.18801
-4.5856
-3.17259
-2.38922
-2.15933
-2.15067
-2.21627
-2.54901
-3.3904
-4.65276
-5.91214
-6.76475
-7.10878
-7.0788
-6.80721
-6.3281
-5.68606
-5.05017
-4.66522
-4.68666
-5.06758
-5.60599
-6.08939
-6.39657
-6.49196
-6.378
-6.10447
-5.821
-5.75656
-6.06185
-6.63466
-7.13706
-7.26852
-7.06343
-6.87885
-7.00328
-7.25386
-7.30301
-6.84944
2.76374
3.9543
4.73536
4.47294
4.17411
4.03029
3.93272
3.94082
4.28296
5.09519
5.92448
6.40163
6.35771
5.74089
4.71751
3.57334
2.49807
1.51807
0.594893
-0.31373
-0.991034
-1.4202
-1.69559
-1.81176
-1.75029
-1.56691
-1.3909
-1.39635
-1.74388
-2.53065
-3.73442
-5.1438
-6.37449
-7.06603
-7.1292
-6.815
-6.55031
-6.67886
-7.21538
-7.75311
-7.7171
-6.8439
-5.43118
-4.09501
-3.27534
-2.96104
-2.86378
-2.83441
-3.05717
-3.79275
-4.98796
-6.24171
-7.15162
-7.59007
-7.62306
-7.28086
-6.52445
-5.43342
-4.33892
-3.69894
-3.81034
-4.61218
-5.74517
-6.78516
-7.44981
-7.66242
-7.51437
-7.21856
-7.0529
-7.2399
-7.78823
-8.44306
-8.84996
-8.84578
-8.61606
-8.52769
-8.74022
-8.97713
-8.95397
-8.5005
3.65865
4.98205
5.95444
5.85072
5.62015
5.53231
5.45686
5.35099
5.40391
5.87394
6.52829
7.08855
7.30976
6.9636
6.05963
4.84764
3.59444
2.43264
1.38454
0.402006
-0.352317
-0.885965
-1.30851
-1.61482
-1.76053
-1.76733
-1.7355
-1.81792
-2.16204
-2.84688
-3.84059
-4.98904
-6.05092
-6.79613
-7.12975
-7.1489
-7.08223
-7.16238
-7.47088
-7.83357
-7.90519
-7.4485
-6.56535
-5.63458
-5.00413
-4.7371
-4.65633
-4.63226
-4.77275
-5.27516
-6.12813
-7.05949
-7.78136
-8.18004
-8.22724
-7.81587
-6.82064
-5.35316
-3.8905
-3.0736
-3.30893
-4.50111
-6.12827
-7.56656
-8.40938
-8.59593
-8.35417
-8.05563
-8.04126
-8.45369
-9.15206
-9.80045
-10.1061
-10.0464
-9.8877
-9.94105
-10.2375
-10.4524
-10.3681
-9.92085
4.13544
5.60525
6.75168
6.79702
6.61433
6.56681
6.5461
6.42476
6.29269
6.42512
6.7724
7.21709
7.55401
7.44722
6.72363
5.51457
4.10102
2.71969
1.49847
0.436852
-0.338438
-0.875342
-1.33495
-1.75889
-2.10683
-2.35878
-2.54251
-2.73242
-3.0226
-3.48042
-4.11406
-4.87636
-5.67868
-6.4031
-6.93912
-7.24344
-7.36734
-7.4299
-7.54377
-7.72902
-7.87992
-7.84679
-7.58393
-7.21141
-6.91515
-6.78616
-6.77215
-6.79659
-6.88781
-7.14257
-7.57394
-8.06707
-8.49265
-8.77594
-8.80597
-8.35872
-7.24505
-5.59845
-3.98255
-3.13333
-3.49854
-4.93468
-6.80149
-8.35655
-9.15292
-9.19901
-8.85338
-8.58015
-8.69975
-9.24091
-9.96041
-10.5271
-10.7538
-10.7248
-10.7169
-10.9462
-11.3318
-11.5355
-11.4131
-10.9834
4.24148
5.83449
7.11634
7.28474
7.12414
7.08598
7.10776
7.00883
6.76842
6.60746
6.5911
6.77042
7.06003
7.10862
6.59383
5.48773
4.0151
2.47114
1.08939
-0.0496163
-0.823659
-1.31161
-1.73503
-2.20653
-2.71139
-3.18994
-3.58133
-3.86175
-4.06596
-4.27024
-4.55566
-4.98337
-5.56634
-6.23663
-6.85834
-7.30245
-7.52308
-7.5723
-7.5636
-7.61505
-7.77745
-8.00042
-8.18472
-8.27405
-8.29652
-8.31748
-8.36744
-8.43304
-8.50308
-8.59348
-8.71869
-8.87546
-9.05873
-9.23474
-9.2531
-8.83748
-7.77856
-6.21334
-4.70509
-3.97187
-4.42696
-5.88585
-7.67609
-9.05518
-9.6267
-9.48648
-9.06575
-8.8278
-9.01043
-9.54267
-10.1525
-10.5802
-10.7509
-10.8093
-10.9944
-11.4151
-11.9002
-12.1189
-11.9923
-11.6026
4.11587
5.7749
7.13885
7.39166
7.2238
7.15778
7.18415
7.10046
6.79707
6.41186
6.05431
5.89991
6.00696
6.089
5.75038
4.81888
3.41729
1.83474
0.370584
-0.814941
-1.58118
-2.01666
-2.38839
-2.87394
-3.48509
-4.12447
-4.65171
-4.96665
-5.07476
-5.08716
-5.16026
-5.42196
-5.90751
-6.5305
-7.12277
-7.53219
-7.70561
-7.69204
-7.60271
-7.5699
-7.69255
-7.97969
-8.34562
-8.67004
-8.88512
-9.00779
-9.0929
-9.17092
-9.23161
-9.25623
-9.25
-9.25267
-9.31622
-9.43694
-9.47679
-9.18197
-8.36555
-7.14133
-5.98095
-5.476
-5.94596
-7.19527
-8.62463
-9.61139
-9.87424
-9.57395
-9.12892
-8.91734
-9.07044
-9.46249
-9.86035
-10.1085
-10.2259
-10.3797
-10.75
-11.3467
-11.9312
-12.1909
-12.0955
-11.7762
3.89408
5.54476
6.93668
7.23544
7.03675
6.91299
6.90531
6.81317
6.47275
5.9421
5.32092
4.84211
4.68412
4.67434
4.43011
3.6907
2.4665
0.983229
-0.452121
-1.62657
-2.37289
-2.76831
-3.10051
-3.59059
-4.26479
-4.98986
-5.56731
-5.86133
-5.88947
-5.81452
-5.8449
-6.11807
-6.62543
-7.22002
-7.7057
-7.95234
-7.95862
-7.81628
-7.64698
-7.56156
-7.6355
-7.88383
-8.24895
-8.62003
-8.90144
-9.07156
-9.17067
-9.24211
-9.29124
-9.29998
-9.26671
-9.23061
-9.25244
-9.35181
-9.44328
-9.34858
-8.9266
-8.23849
-7.59134
-7.37361
-7.78026
-8.64616
-9.53738
-10.0364
-10.0012
-9.61008
-9.19072
-8.98712
-9.0344
-9.20196
-9.33589
-9.38507
-9.43454
-9.65072
-10.1554
-10.8789
-11.5381
-11.8462
-11.8035
-11.5792
3.6748
5.2409
6.61651
6.93272
6.69143
6.4948
6.4288
6.3087
5.94739
5.34225
4.55384
3.81246
3.37123
3.18362
2.94586
2.37407
1.38414
0.105494
-1.19834
-2.29659
-2.99774
-3.35383
-3.65201
-4.13694
-4.83951
-5.59491
-6.16811
-6.42003
-6.40652
-6.34033
-6.44938
-6.83649
-7.42018
-7.99002
-8.33841
-8.37984
-8.18084
-7.88583
-7.63386
-7.51284
-7.55641
-7.75523
-8.06492
-8.4053
-8.69254
-8.88771
-9.00505
-9.07667
-9.11433
-9.10887
-9.05721
-8.98902
-8.96347
-9.02918
-9.17375
-9.31275
-9.35056
-9.27398
-9.19202
-9.26419
-9.56225
-9.98438
-10.309
-10.3516
-10.0959
-9.69279
-9.33652
-9.12915
-9.03769
-8.9606
-8.83219
-8.68655
-8.65017
-8.87997
-9.44906
-10.2295
-10.9157
-11.2536
-11.2619
-11.1354
3.47268
4.8968
6.23218
6.55517
6.27474
6.00611
5.87491
5.71806
5.34516
4.71505
3.84331
2.92249
2.23737
1.8537
1.57605
1.14451
0.406518
-0.613913
-1.72597
-2.70564
-3.33895
-3.64289
-3.89142
-4.34434
-5.03901
-5.79055
-6.34328
-6.56769
-6.55791
-6.5594
-6.79254
-7.30882
-7.96091
-8.4994
-8.72688
-8.60594
-8.2555
-7.85387
-7.54759
-7.40791
-7.4398
-7.61135
-7.87848
-8.18546
-8.47156
-8.6965
-8.85265
-8.94978
-8.98908
-8.95956
-8.85658
-8.70881
-8.58686
-8.57996
-8.75042
-9.09564
-9.54884
-10.0171
-10.4271
-10.7397
-10.9321
-10.976
-10.8476
-10.5616
-10.1898
-9.83236
-9.55402
-9.34192
-9.12513
-8.84136
-8.4972
-8.18559
-8.05819
-8.26243
-8.83386
-9.60385
-10.2629
-10.5958
-10.6336
-10.582
3.25099
4.50277
5.7931
6.12666
5.82074
5.49118
5.3003
5.10766
4.7283
4.10002
3.20269
2.18272
1.32922
0.792656
0.480962
0.175171
-0.323877
-1.087
-1.99917
-2.84995
-3.40183
-3.6326
-3.79962
-4.17918
-4.82451
-5.54548
-6.07688
-6.29752
-6.32477
-6.4153
-6.76794
-7.38734
-8.08396
-8.59798
-8.75741
-8.56561
-8.1684
-7.7514
-7.44908
-7.3152
-7.34356
-7.49811
-7.73546
-8.01606
-8.3019
-8.55947
-8.76698
-8.91095
-8.97125
-8.92184
-8.75131
-8.49393
-8.2442
-8.13714
-8.29652
-8.77349
-9.50933
-10.3454
-11.0809
-11.549
-11.675
-11.4907
-11.1075
-10.6648
-10.278
-9.99753
-9.79528
-9.58679
-9.28642
-8.8642
-8.37294
-7.94033
-7.73386
-7.89422
-8.42789
-9.13906
-9.72813
-10.0218
-10.061
-10.0461
2.9543
4.02946
5.2798
5.63224
5.31509
4.93665
4.69519
4.472
4.089
3.4741
2.58651
1.53479
0.59906
-0.0168073
-0.329062
-0.521532
-0.824084
-1.37732
-2.12318
-2.85847
-3.32195
-3.45638
-3.50621
-3.76712
-4.31611
-4.97111
-5.4685
-5.69453
-5.7763
-5.96573
-6.43415
-7.14799
-7.89304
-8.41506
-8.57246
-8.40057
-8.05416
-7.708
-7.46856
-7.36616
-7.39242
-7.5239
-7.72473
-7.96804
-8.23727
-8.51008
-8.75733
-8.94735
-9.0389
-8.9865
-8.7669
-8.41792
-8.05646
-7.85465
-7.97537
-8.49391
-9.34627
-10.3355
-11.2032
-11.7336
-11.84
-11.587
-11.1432
-10.6946
-10.3636
-10.1681
-10.033
-9.84251
-9.50853
-9.01904
-8.44888
-7.94366
-7.68145
-7.79753
-8.27475
-8.90097
-9.39675
-9.63014
-9.64957
-9.63785
2.55879
3.47035
4.68609
5.06201
4.74289
4.32521
4.04303
3.79781
3.41621
2.82132
1.96439
0.929001
-0.019337
-0.652341
-0.944459
-1.05863
-1.23837
-1.65784
-2.28472
-2.9147
-3.27365
-3.28661
-3.19286
-3.30353
-3.71576
-4.26307
-4.69786
-4.92332
-5.07369
-5.38631
-5.99679
-6.83114
-7.65294
-8.21715
-8.41439
-8.31031
-8.0641
-7.83368
-7.69093
-7.63925
-7.66837
-7.77317
-7.92882
-8.11824
-8.34498
-8.6019
-8.85887
-9.07344
-9.19113
-9.15213
-8.92065
-8.5302
-8.10633
-7.83902
-7.90694
-8.38987
-9.21729
-10.1841
-11.0311
-11.5507
-11.6669
-11.4507
-11.0703
-10.704
-10.462
-10.3474
-10.2718
-10.1129
-9.78435
-9.28008
-8.68196
-8.14439
-7.85226
-7.93371
-8.35062
-8.88339
-9.2804
-9.44845
-9.44016
-9.4158
2.01882
2.77955
3.95725
4.35781
4.04702
3.60373
3.2957
3.04302
2.67427
2.10881
1.29698
0.305645
-0.620334
-1.25368
-1.55457
-1.67063
-1.83182
-2.20133
-2.74219
-3.25345
-3.47822
-3.35337
-3.11832
-3.08165
-3.34252
-3.75094
-4.09307
-4.30654
-4.53695
-4.9984
-5.7786
-6.75479
-7.66639
-8.2797
-8.52015
-8.48421
-8.33634
-8.21654
-8.16649
-8.16884
-8.21011
-8.29751
-8.41514
-8.55152
-8.72346
-8.93747
-9.16771
-9.37063
-9.4918
-9.4703
-9.26377
-8.89401
-8.47466
-8.18707
-8.20354
-8.59943
-9.30727
-10.1397
-10.8697
-11.323
-11.4409
-11.2869
-11.0034
-10.7417
-10.594
-10.5564
-10.5401
-10.4249
-10.1263
-9.6382
-9.04365
-8.50227
-8.20165
-8.25864
-8.61582
-9.05522
-9.35961
-9.47115
-9.44095
-9.40589
1.5421
2.18192
3.32175
3.73453
3.42456
2.9575
2.63053
2.37827
2.02852
1.49709
0.736319
-0.197964
-1.08402
-1.71256
-2.05054
-2.23505
-2.46218
-2.84977
-3.33176
-3.71407
-3.78159
-3.50932
-3.14434
-2.9794
-3.09931
-3.36811
-3.61754
-3.83397
-4.1787
-4.83395
-5.82294
-6.95954
-7.95325
-8.58602
-8.82758
-8.81393
-8.72161
-8.67526
-8.69289
-8.74289
-8.80482
-8.89008
-8.98667
-9.08171
-9.20064
-9.3664
-9.56209
-9.74553
-9.86524
-9.86357
-9.69374
-9.36193
-8.96101
-8.65516
-8.60845
-8.89868
-9.47259
-10.1683
-10.7893
-11.1852
-11.3029
-11.1929
-10.976
-10.7852
-10.7027
-10.7212
-10.7519
-10.6753
-10.4072
-9.94076
-9.36056
-8.83132
-8.54161
-8.59507
-8.91544
-9.28731
-9.52463
-9.59922
-9.5571
-9.52307
0.40958
0.856708
1.91242
2.3635
2.11456
1.67943
1.38158
1.17504
0.886467
0.422767
-0.266959
-1.15204
-2.06192
-2.82755
-3.41494
-3.89996
-4.36349
-4.81172
-5.15035
-5.27018
-5.10302
-4.71629
-4.33444
-4.15874
-4.20352
-4.34493
-4.49208
-4.7
-5.12988
-5.89974
-6.95741
-8.08274
-9.00977
-9.57664
-9.79641
-9.80756
-9.7649
-9.75211
-9.78718
-9.86986
-9.98088
-10.1029
-10.2256
-10.3413
-10.4533
-10.5681
-10.6782
-10.766
-10.8147
-10.8078
-10.7226
-10.5456
-10.3041
-10.0812
-9.98669
-10.0959
-10.3993
-10.7983
-11.1512
-11.3405
-11.3278
-11.1671
-10.974
-10.8631
-10.8859
-11.0027
-11.1057
-11.0739
-10.831
-10.3783
-9.80897
-9.29422
-9.01536
-9.05064
-9.30673
-9.59288
-9.77518
-9.85097
-9.84082
-9.83926
)
;
    }
    outlet
    {
        type            calculated;
        value           nonuniform List<scalar> 
3200
(
33.0503
34.9164
33.1968
32.2724
31.6515
30.9608
30.2051
29.5088
29.207
28.8357
27.2797
27.175
27.381
27.3494
27.2444
27.0507
26.7728
26.4132
25.9451
25.6375
25.8459
25.0896
24.9306
25.0918
24.7686
23.8396
22.5582
21.1684
19.856
18.764
17.9901
17.5722
17.4909
17.6835
18.0608
18.5328
19.0318
19.5328
20.031
20.4572
20.6808
20.7268
20.742
20.7685
20.5806
20.0445
19.485
19.0929
18.9092
18.9156
19.0552
19.3061
19.6677
20.1369
20.7098
21.1727
21.1123
20.9639
21.0496
21.3388
21.6335
21.7435
21.6254
21.4187
21.3572
21.628
22.2641
23.1418
24.0942
25.0185
25.7401
26.4251
27.2721
28.418
29.869
31.405
32.5943
32.9674
32.6299
30.7089
38.6368
49.2168
49.0598
47.9233
46.8269
45.7011
44.5569
43.4457
42.3682
40.5287
37.1621
36.4278
36.2493
35.9838
35.6614
35.2628
34.7937
34.269
33.7269
33.5238
34.4268
34.2367
33.5711
32.438
30.907
29.1204
27.1948
25.2839
23.545
22.1186
21.1029
20.5347
20.3885
20.592
21.0462
21.6471
22.2974
22.9243
23.4827
23.9201
24.1906
24.3462
24.4625
24.383
23.6789
22.6783
21.8441
21.2577
20.927
20.8363
20.9513
21.2513
21.7278
22.3763
23.2244
24.3661
25.5234
25.9871
26.2751
26.6172
26.9057
27.0054
26.9089
26.7713
26.8251
27.2444
28.0473
29.1015
30.2235
31.3098
32.268
33.2671
34.5166
36.1582
38.1525
40.1862
41.7646
42.4803
41.7535
35.8598
34.3252
48.8525
51.2858
50.7248
49.6224
48.2769
46.8631