/*--------------------------------*- C++ -*----------------------------------*\
| =========                 |                                                 |
| \\      /  F ield         | OpenFOAM: The Open Source CFD Toolbox           |
|  \\    /   O peration     | Version:  v2012                                 |
|   \\  /    A nd           | Website:  www.openfoam.com                      |
|    \\/     M anipulation  |                                                 |
\*---------------------------------------------------------------------------*/
FoamFile
{
    version     2.0;
    format      ascii;
    class       volScalarField;
    location    "100/air";
    object      rho;
}
// * * * * * * * * * * * * * * * * * * * * * * * * * * * * * * * * * * * * * //

dimensions      [1 -3 0 0 0 0 0];


internalField   nonuniform List<scalar> 
287104
(
0.999202
0.998464
0.997823
0.997262
0.996767
0.996322
0.995914
0.995534
0.995176
0.994838
0.994516
0.994208
0.993913
0.993628
0.993353
0.993088
0.992831
0.992581
0.99234
0.992106
0.99188
0.99166
0.991445
0.991236
0.991031
0.99083
0.990632
0.990437
0.990245
0.990055
0.989869
0.989686
0.989507
0.989333
0.989163
0.989
0.988843
0.988693
0.98855
0.988414
0.988285
0.988163
0.988048
0.98794
0.987837
0.98774
0.987648
0.98756
0.987475
0.987392
0.987312
0.987232
0.987154
0.987076
0.986999
0.986921
0.986843
0.986764
0.986685
0.986606
0.986525
0.986445
0.986364
0.986284
0.986203
0.986123
0.986043
0.985964
0.985886
0.98581
0.985735
0.985662
0.98559
0.98552
0.985452
0.985386
0.985323
0.985262
0.985205
0.985149
0.985095
0.985042
0.984987
0.984926
0.984856
0.98477
0.984668
0.984553
0.984432
0.984296
0.999215
0.99849
0.99786
0.997311
0.996826
0.996391
0.995992
0.995621
0.995272
0.994942
0.994629
0.994329
0.994041
0.993764
0.993497
0.993239
0.992989
0.992747
0.992513
0.992286
0.992066
0.991853
0.991645
0.991443
0.991245
0.99105
0.990859
0.990671
0.990486
0.990304
0.990125
0.98995
0.989778
0.989611
0.989449
0.989294
0.989144
0.989001
0.988864
0.988735
0.988612
0.988496
0.988386
0.988283
0.988184
0.988091
0.988002
0.987916
0.987833
0.987753
0.987673
0.987596
0.987518
0.987441
0.987365
0.987288
0.98721
0.987133
0.987054
0.986976
0.986896
0.986817
0.986737
0.986657
0.986577
0.986497
0.986419
0.986341
0.986264
0.986188
0.986114
0.986042
0.98597
0.985901
0.985833
0.985768
0.985704
0.985643
0.985585
0.985529
0.985474
0.985419
0.985362
0.9853
0.985227
0.985139
0.985034
0.984917
0.984791
0.984651
0.999229
0.998516
0.997897
0.997358
0.996884
0.996457
0.996067
0.995704
0.995363
0.995041
0.994734
0.994441
0.99416
0.99389
0.993629
0.993377
0.993133
0.992897
0.992668
0.992447
0.992233
0.992026
0.991824
0.991627
0.991435
0.991246
0.991061
0.990878
0.990699
0.990523
0.99035
0.99018
0.990015
0.989854
0.989699
0.989549
0.989405
0.989268
0.989138
0.989014
0.988897
0.988787
0.988684
0.988586
0.988495
0.988408
0.988326
0.988247
0.98817
0.988095
0.988022
0.98795
0.987878
0.987806
0.987735
0.987663
0.98759
0.987518
0.987445
0.987372
0.987298
0.987224
0.98715
0.987076
0.987003
0.98693
0.986858
0.986786
0.986716
0.986648
0.98658
0.986514
0.98645
0.986387
0.986326
0.986267
0.98621
0.986156
0.986103
0.986053
0.986003
0.985953
0.985901
0.985843
0.985774
0.985689
0.985587
0.985472
0.985349
0.985211
0.999242
0.998542
0.997934
0.997406
0.996941
0.996524
0.996142
0.995787
0.995454
0.995139
0.994839
0.994553
0.994278
0.994014
0.993759
0.993513
0.993275
0.993044
0.992821
0.992605
0.992397
0.992194
0.991998
0.991806
0.991618
0.991435
0.991254
0.991077
0.990903
0.990731
0.990564
0.990399
0.990239
0.990083
0.989932
0.989787
0.989648
0.989516
0.98939
0.989272
0.98916
0.989056
0.988958
0.988868
0.988785
0.988707
0.988634
0.988563
0.988495
0.988427
0.98836
0.988293
0.988226
0.988159
0.988092
0.988025
0.987959
0.987893
0.987827
0.987761
0.987695
0.987629
0.987564
0.987498
0.987434
0.98737
0.987307
0.987245
0.987185
0.987126
0.987069
0.987014
0.98696
0.986908
0.986857
0.986808
0.986761
0.986717
0.986674
0.986633
0.986592
0.986551
0.986507
0.986457
0.986396
0.986319
0.986223
0.986114
0.985997
0.985864
0.999255
0.998568
0.997971
0.997453
0.996998
0.99659
0.996216
0.99587
0.995544
0.995237
0.994944
0.994664
0.994396
0.994138
0.993889
0.993649
0.993416
0.993191
0.992974
0.992763
0.99256
0.992363
0.992171
0.991984
0.991802
0.991623
0.991448
0.991276
0.991106
0.99094
0.990777
0.990618
0.990463
0.990312
0.990167
0.990027
0.989893
0.989766
0.989646
0.989533
0.989428
0.989332
0.989245
0.989167
0.989094
0.989026
0.988962
0.988901
0.988841
0.988782
0.988723
0.988665
0.988607
0.988549
0.98849
0.988432
0.988373
0.988314
0.988255
0.988196
0.988138
0.98808
0.988022
0.987965
0.98791
0.987855
0.987803
0.987752
0.987702
0.987655
0.987609
0.987565
0.987522
0.987481
0.987442
0.987404
0.987368
0.987334
0.987301
0.987269
0.987238
0.987205
0.987169
0.987127
0.987072
0.987001
0.986909
0.986801
0.986677
0.986539
0.999269
0.998593
0.998008
0.997501
0.997055
0.996655
0.99629
0.995952
0.995634
0.995333
0.995047
0.994774
0.994512
0.99426
0.994017
0.993783
0.993556
0.993336
0.993124
0.992919
0.992721
0.992528
0.992342
0.99216
0.991983
0.991809
0.991639
0.991471
0.991306
0.991145
0.990986
0.990832
0.990682
0.990536
0.990396
0.990261
0.990133
0.990011
0.989896
0.989788
0.989691
0.989604
0.989526
0.989456
0.989391
0.98933
0.989273
0.989218
0.989165
0.989113
0.989061
0.98901
0.988958
0.988907
0.988855
0.988803
0.988752
0.9887
0.988648
0.988597
0.988545
0.988494
0.988444
0.988395
0.988346
0.988299
0.988253
0.988209
0.988167
0.988126
0.988087
0.988049
0.988014
0.987979
0.987946
0.987915
0.987885
0.987856
0.987829
0.987803
0.987778
0.987751
0.987721
0.987684
0.987635
0.987568
0.987482
0.987378
0.987251
0.987111
0.999282
0.998619
0.998045
0.997547
0.99711
0.99672
0.996363
0.996032
0.995722
0.995428
0.995149
0.994882
0.994626
0.99438
0.994143
0.993914
0.993692
0.993477
0.99327
0.99307
0.992876
0.992689
0.992507
0.99233
0.992157
0.991988
0.991822
0.991659
0.991499
0.991341
0.991186
0.991036
0.990891
0.99075
0.990615
0.990486
0.990363
0.990246
0.990138
0.990041
0.989954
0.989878
0.989808
0.989746
0.989688
0.989634
0.989582
0.989533
0.989485
0.989437
0.98939
0.989343
0.989296
0.989249
0.989202
0.989155
0.989108
0.98906
0.989013
0.988965
0.988918
0.988871
0.988825
0.98878
0.988735
0.988692
0.98865
0.98861
0.988571
0.988534
0.988499
0.988465
0.988433
0.988402
0.988372
0.988344
0.988318
0.988293
0.98827
0.988248
0.988227
0.988204
0.988178
0.988145
0.9881
0.988037
0.987955
0.987855
0.987728
0.98759
0.999294
0.998644
0.99808
0.997593
0.997165
0.996783
0.996435
0.996112
0.995808
0.995522
0.995249
0.994988
0.994738
0.994498
0.994266
0.994041
0.993824
0.993614
0.993411
0.993215
0.993026
0.992842
0.992664
0.992491
0.992322
0.992157
0.991995
0.991836
0.991679
0.991524
0.991373
0.991226
0.991084
0.990948
0.990819
0.990695
0.99058
0.990476
0.990384
0.990302
0.99023
0.990165
0.990106
0.990053
0.990003
0.989956
0.989911
0.989867
0.989824
0.989782
0.989739
0.989697
0.989654
0.989611
0.989567
0.989523
0.989479
0.989434
0.989389
0.989343
0.989298
0.989253
0.989209
0.989165
0.989121
0.989079
0.989039
0.988999
0.988962
0.988926
0.988892
0.988859
0.988828
0.988799
0.988771
0.988746
0.988722
0.9887
0.988681
0.988663
0.988645
0.988626
0.988604
0.988575
0.988533
0.988474
0.988395
0.988299
0.988177
0.988039
0.999307
0.998668
0.998115
0.997637
0.997219
0.996846
0.996505
0.996189
0.995893
0.995613
0.995346
0.99509
0.994844
0.994607
0.994376
0.994151
0.993933
0.993722
0.993516
0.993318
0.993125
0.992939
0.992758
0.992583
0.992413
0.992247
0.992084
0.991925
0.991768
0.991614
0.991463
0.991317
0.99118
0.991055
0.990943
0.990843
0.990753
0.990674
0.990604
0.990542
0.990488
0.99044
0.990398
0.990359
0.990323
0.990288
0.990255
0.990222
0.990189
0.990157
0.990126
0.990094
0.990061
0.990027
0.989992
0.989956
0.989919
0.989881
0.989843
0.989803
0.989763
0.989723
0.989682
0.989642
0.989601
0.989562
0.989523
0.989486
0.98945
0.989417
0.989385
0.989355
0.989326
0.9893
0.989276
0.989254
0.989235
0.989219
0.989206
0.989197
0.98919
0.989182
0.989169
0.989149
0.989116
0.989065
0.988994
0.988905
0.988791
0.988647
0.999319
0.998692
0.99815
0.997681
0.997272
0.996907
0.996574
0.996266
0.995976
0.995702
0.995434
0.995165
0.994894
0.994622
0.99435
0.994081
0.993817
0.993559
0.993309
0.993068
0.992836
0.992614
0.992402
0.992199
0.992005
0.991819
0.99164
0.991468
0.991301
0.991139
0.990983
0.990833
0.990694
0.990569
0.99046
0.990366
0.990285
0.990217
0.990158
0.990108
0.990066
0.990031
0.990003
0.989981
0.989963
0.989948
0.989934
0.989922
0.989912
0.989903
0.989895
0.989886
0.989876
0.989864
0.989851
0.989837
0.989821
0.989804
0.989786
0.989766
0.989746
0.989725
0.989704
0.989682
0.989661
0.989639
0.989618
0.989597
0.989576
0.989555
0.989535
0.989515
0.989496
0.989479
0.989464
0.989452
0.989445
0.989445
0.989451
0.989467
0.989488
0.989507
0.989522
0.98953
0.989523
0.989497
0.989449
0.989384
0.989295
0.989177
0.999332
0.998716
0.998184
0.997725
0.997324
0.996967
0.996642
0.99634
0.996057
0.995781
0.995289
0.994755
0.994213
0.993677
0.993155
0.992652
0.992173
0.991723
0.991306
0.990926
0.990584
0.990282
0.990019
0.989793
0.989602
0.989442
0.989308
0.989194
0.989094
0.989001
0.988913
0.988833
0.988763
0.988707
0.988663
0.988628
0.988598
0.98857
0.988547
0.988527
0.98851
0.988496
0.988484
0.988475
0.988465
0.988453
0.988441
0.988433
0.988429
0.988431
0.988436
0.988441
0.988444
0.988444
0.988442
0.988439
0.988433
0.988427
0.988419
0.98841
0.988399
0.988388
0.988377
0.988366
0.988355
0.988346
0.988337
0.988331
0.988328
0.988327
0.988328
0.988331
0.988336
0.988342
0.988351
0.988361
0.988373
0.988389
0.988416
0.988548
0.988769
0.988954
0.989105
0.989226
0.989317
0.989376
0.989402
0.989403
0.989376
0.989316
0.999344
0.998739
0.998217
0.997768
0.997376
0.997027
0.996709
0.996415
0.996138
0.995868
0.995392
0.994876
0.994349
0.993826
0.993314
0.992819
0.992345
0.991898
0.991483
0.991102
0.990759
0.990455
0.99019
0.989963
0.989771
0.989612
0.989481
0.989372
0.989277
0.98919
0.989107
0.989029
0.98896
0.988906
0.988867
0.98884
0.988819
0.988801
0.988783
0.988766
0.988749
0.988732
0.988714
0.988696
0.988675
0.988651
0.988628
0.988612
0.988605
0.988606
0.988611
0.988619
0.988625
0.98863
0.988635
0.98864
0.988644
0.988648
0.988652
0.988655
0.988658
0.988661
0.988664
0.988668
0.988674
0.98868
0.988689
0.988698
0.988708
0.98872
0.988732
0.988745
0.988759
0.988773
0.988789
0.988806
0.988824
0.988846
0.988877
0.989006
0.989222
0.989407
0.989563
0.98969
0.989787
0.989851
0.989882
0.989887
0.989865
0.989808
0.999356
0.998762
0.998251
0.99781
0.997427
0.997086
0.996776
0.996488
0.996217
0.995954
0.995491
0.994988
0.994476
0.993967
0.993468
0.992985
0.992523
0.992088
0.991683
0.991312
0.990979
0.990683
0.990427
0.990208
0.990024
0.989874
0.989751
0.989652
0.989568
0.989492
0.989418
0.989347
0.989282
0.989232
0.989198
0.989178
0.989166
0.989159
0.989152
0.989143
0.989134
0.989125
0.989112
0.989099
0.989083
0.989063
0.989045
0.989035
0.989034
0.98904
0.989051
0.989061
0.98907
0.989078
0.989084
0.989091
0.989097
0.989104
0.98911
0.989116
0.989123
0.989129
0.989136
0.989144
0.989152
0.989161
0.989172
0.989184
0.989197
0.989211
0.989226
0.989242
0.98926
0.989278
0.989297
0.989319
0.989345
0.989378
0.98943
0.989568
0.989788
0.989976
0.990133
0.990262
0.99036
0.990424
0.990455
0.990461
0.990441
0.990381
0.999368
0.998785
0.998283
0.997852
0.997477
0.997144
0.996841
0.996561
0.996297
0.996039
0.99559
0.995101
0.994603
0.994107
0.993622
0.993152
0.992703
0.992279
0.991886
0.991526
0.991203
0.990917
0.990668
0.990456
0.990279
0.990133
0.990015
0.989921
0.989842
0.989772
0.989703
0.989634
0.98957
0.989518
0.989482
0.989461
0.989452
0.989449
0.989448
0.989445
0.989442
0.989439
0.98943
0.989419
0.989404
0.989386
0.989372
0.989366
0.989371
0.989384
0.989399
0.989414
0.989428
0.98944
0.989451
0.989461
0.989472
0.989482
0.989491
0.9895
0.989509
0.989518
0.989526
0.989535
0.989545
0.989555
0.989566
0.989579
0.989592
0.989608
0.989624
0.989641
0.989659
0.989679
0.9897
0.989723
0.989751
0.989786
0.989839
0.989977
0.990194
0.99038
0.990535
0.990663
0.99076
0.990824
0.990855
0.990861
0.990842
0.990786
0.999379
0.998808
0.998316
0.997894
0.997527
0.997202
0.996906
0.996632
0.996375
0.996124
0.995687
0.995212
0.994728
0.994246
0.993774
0.993317
0.99288
0.992468
0.992086
0.991737
0.991424
0.991147
0.990907
0.990703
0.990531
0.99039
0.990275
0.990183
0.990108
0.990042
0.989978
0.989915
0.989853
0.989799
0.98976
0.989736
0.989725
0.989724
0.989726
0.989726
0.989727
0.989725
0.989715
0.989703
0.989688
0.989672
0.989661
0.989661
0.98967
0.989686
0.989705
0.989723
0.98974
0.989755
0.989771
0.989785
0.989799
0.989813
0.989826
0.989838
0.98985
0.989861
0.989873
0.989883
0.989895
0.989908
0.989921
0.989936
0.989952
0.989969
0.989988
0.990007
0.990028
0.990049
0.990073
0.990099
0.990129
0.990166
0.990221
0.990359
0.990573
0.990757
0.990912
0.991038
0.991135
0.991199
0.99123
0.991236
0.991219
0.991166
0.999391
0.99883
0.998348
0.997934
0.997576
0.997259
0.99697
0.996703
0.996452
0.996207
0.995784
0.995323
0.994852
0.994384
0.993925
0.99348
0.993055
0.992655
0.992283
0.991945
0.991641
0.991374
0.991143
0.990947
0.990782
0.990645
0.990532
0.990441
0.990366
0.990302
0.990243
0.990184
0.990126
0.990073
0.990032
0.990004
0.989989
0.989988
0.989993
0.989996
0.989997
0.989994
0.989983
0.989969
0.989955
0.989942
0.989936
0.989941
0.989954
0.989973
0.989994
0.990015
0.990035
0.990055
0.990075
0.990094
0.990112
0.99013
0.990146
0.990162
0.990178
0.990192
0.990207
0.990221
0.990235
0.99025
0.990266
0.990284
0.990303
0.990322
0.990343
0.990365
0.990388
0.990412
0.990438
0.990466
0.990498
0.990538
0.990595
0.990732
0.990942
0.991123
0.991276
0.991401
0.991497
0.99156
0.99159
0.991597
0.99158
0.99153
0.999402
0.998852
0.998379
0.997975
0.997625
0.997315
0.997034
0.996773
0.996529
0.99629
0.995879
0.995432
0.994975
0.994521
0.994075
0.993643
0.993229
0.992839
0.992478
0.992148
0.991855
0.991597
0.991376
0.991188
0.991031
0.990898
0.990788
0.990695
0.990618
0.990552
0.990493
0.990438
0.990384
0.990334
0.990292
0.99026
0.99024
0.990236
0.990243
0.990249
0.990251
0.990245
0.990229
0.990214
0.990203
0.990195
0.990195
0.990204
0.990221
0.990242
0.990266
0.990291
0.990316
0.990342
0.990367
0.990391
0.990414
0.990436
0.990457
0.990477
0.990497
0.990515
0.990533
0.990551
0.990569
0.990587
0.990606
0.990626
0.990648
0.99067
0.990694
0.990718
0.990744
0.99077
0.990798
0.990828
0.990862
0.990903
0.99096
0.991096
0.991302
0.99148
0.99163
0.991753
0.991846
0.991907
0.991936
0.991942
0.991925
0.991878
0.999413
0.998874
0.998411
0.998015
0.997673
0.997371
0.997097
0.996843
0.996605
0.996373
0.995975
0.995541
0.995098
0.994657
0.994225
0.993805
0.993403
0.993023
0.99267
0.992349
0.992065
0.991817
0.991607
0.991429
0.991281
0.991156
0.991049
0.990955
0.990873
0.990801
0.990737
0.99068
0.990628
0.99058
0.990537
0.990501
0.990475
0.990466
0.990471
0.990478
0.99048
0.990471
0.990449
0.990427
0.990412
0.990405
0.99041
0.990423
0.990444
0.99047
0.9905
0.990533
0.990567
0.990601
0.990634
0.990666
0.990696
0.990724
0.990751
0.990777
0.990801
0.990825
0.990847
0.990869
0.990891
0.990912
0.990934
0.990957
0.990981
0.991006
0.991032
0.991059
0.991086
0.991114
0.991143
0.991174
0.991208
0.991249
0.991305
0.991439
0.991639
0.991812
0.991957
0.992077
0.992167
0.992225
0.992251
0.992255
0.992238
0.992191
0.999424
0.998895
0.998442
0.998055
0.997721
0.997426
0.99716
0.996913
0.996681
0.996456
0.996071
0.995651
0.995222
0.994795
0.994376
0.993971
0.993581
0.993212
0.99287
0.99256
0.992287
0.992055
0.991861
0.991701
0.99157
0.99146
0.991363
0.991273
0.991188
0.991108
0.991035
0.99097
0.990912
0.990859
0.990812
0.990768
0.990731
0.990709
0.990703
0.9907
0.99069
0.990668
0.990633
0.990602
0.990582
0.99057
0.990568
0.990574
0.99059
0.990615
0.990648
0.990687
0.990729
0.990773
0.990815
0.990855
0.990894
0.99093
0.990965
0.990998
0.99103
0.99106
0.991089
0.991116
0.991143
0.99117
0.991196
0.991223
0.991251
0.99128
0.991308
0.991337
0.991366
0.991395
0.991424
0.991455
0.991488
0.991527
0.991581
0.991709
0.9919
0.992065
0.992203
0.992316
0.992401
0.992454
0.992476
0.992476
0.992456
0.992408
0.999435
0.998917
0.998473
0.998094
0.997769
0.997482
0.997222
0.996982
0.996757
0.996537
0.996163
0.995753
0.995336
0.994923
0.994523
0.994141
0.993781
0.993448
0.993146
0.992882
0.99266
0.992479
0.992338
0.992228
0.992141
0.992066
0.991994
0.991918
0.991836
0.991749
0.991663
0.991582
0.991507
0.991439
0.991375
0.991314
0.991255
0.991203
0.99116
0.991115
0.991057
0.990977
0.990878
0.990776
0.990694
0.990634
0.990596
0.990579
0.990583
0.990606
0.990646
0.990702
0.990769
0.99084
0.990908
0.990972
0.991032
0.991087
0.991138
0.991185
0.991228
0.991268
0.991305
0.991339
0.991371
0.991402
0.991432
0.991463
0.991495
0.991528
0.991561
0.991593
0.991625
0.991655
0.991684
0.991714
0.991746
0.991784
0.991837
0.991964
0.99215
0.992308
0.992438
0.992543
0.992619
0.992664
0.992678
0.992671
0.992645
0.992592
0.999446
0.998938
0.998503
0.998133
0.997815
0.997535
0.997282
0.997049
0.996831
0.996624
0.996426
0.996234
0.996047
0.995866
0.99569
0.995518
0.99535
0.995185
0.995024
0.994868
0.99472
0.994581
0.994451
0.994328
0.994212
0.994097
0.993982
0.993865
0.993743
0.993619
0.993495
0.993374
0.99326
0.993153
0.993055
0.992965
0.992881
0.992806
0.992737
0.992675
0.992614
0.992553
0.99249
0.992429
0.99236
0.99228
0.992191
0.992097
0.992003
0.991914
0.991834
0.991764
0.991708
0.991664
0.991632
0.991618
0.99162
0.991637
0.991666
0.991705
0.991751
0.991803
0.991859
0.991918
0.991979
0.992041
0.992104
0.992166
0.992228
0.992288
0.992348
0.992406
0.992462
0.992516
0.992569
0.99262
0.992669
0.992718
0.992768
0.992819
0.99287
0.992915
0.992954
0.992982
0.992995
0.992987
0.992958
0.992913
0.992853
0.992779
0.999456
0.998957
0.998531
0.998169
0.997858
0.997585
0.997339
0.997112
0.9969
0.996699
0.996508
0.996325
0.99615
0.995982
0.995819
0.995662
0.995508
0.995357
0.995209
0.995065
0.994926
0.994795
0.994673
0.994559
0.994451
0.994344
0.994236
0.994125
0.994009
0.993889
0.993768
0.993647
0.993531
0.993423
0.993323
0.993232
0.993147
0.993069
0.992996
0.99293
0.992869
0.99281
0.992758
0.992713
0.992674
0.992634
0.992592
0.992548
0.992502
0.992457
0.992414
0.992372
0.992334
0.9923
0.99227
0.992247
0.992231
0.992222
0.992221
0.992227
0.992239
0.992256
0.992278
0.992303
0.992331
0.992361
0.992393
0.992425
0.992458
0.992492
0.992527
0.992561
0.992596
0.99263
0.992665
0.992699
0.992734
0.99277
0.992808
0.992847
0.992886
0.992924
0.992955
0.992978
0.992986
0.992975
0.992944
0.992897
0.992836
0.992762
0.999466
0.998976
0.998557
0.998203
0.997899
0.997633
0.997393
0.997171
0.996965
0.996769
0.996584
0.996407
0.996237
0.996074
0.995918
0.995767
0.99562
0.995475
0.995331
0.995191
0.995054
0.994925
0.994805
0.994693
0.994587
0.994484
0.99438
0.994273
0.994162
0.994047
0.993929
0.993811
0.993696
0.993587
0.993486
0.993391
0.9933
0.993216
0.993133
0.993056
0.992986
0.992922
0.992868
0.992821
0.992782
0.992746
0.992711
0.992678
0.992649
0.992623
0.992601
0.992581
0.992564
0.992548
0.992534
0.992523
0.992515
0.992512
0.992512
0.992517
0.992526
0.992539
0.992554
0.992574
0.992595
0.992619
0.992645
0.992673
0.992703
0.992736
0.992771
0.992808
0.992847
0.992888
0.992932
0.992977
0.993026
0.993076
0.993129
0.993184
0.993239
0.993292
0.99334
0.993379
0.993405
0.993411
0.993397
0.993366
0.993322
0.993265
0.999475
0.998994
0.998584
0.998237
0.99794
0.99768
0.997446
0.997231
0.99703
0.99684
0.996659
0.996487
0.996323
0.996165
0.996013
0.995867
0.995726
0.995586
0.995449
0.995312
0.995179
0.995052
0.994933
0.994823
0.99472
0.994621
0.994522
0.994422
0.994319
0.994212
0.994103
0.993994
0.993886
0.993782
0.993683
0.993587
0.993491
0.993401
0.993308
0.993222
0.993145
0.993077
0.993024
0.992977
0.992941
0.992909
0.992879
0.99285
0.992824
0.992803
0.992786
0.992773
0.992762
0.992754
0.992749
0.992747
0.992748
0.992753
0.992762
0.992775
0.992792
0.992814
0.992841
0.992877
0.992919
0.992967
0.993021
0.993081
0.993148
0.993221
0.993299
0.993381
0.993466
0.993553
0.993641
0.99373
0.993818
0.993905
0.99399
0.994072
0.994149
0.994219
0.994279
0.994327
0.994358
0.994366
0.99435
0.994316
0.994269
0.99421
0.999485
0.999014
0.998613
0.998274
0.997985
0.997732
0.997505
0.997296
0.997101
0.996918
0.996743
0.996577
0.996418
0.996265
0.996119
0.995979
0.995843
0.995711
0.99558
0.99545
0.995322
0.995199
0.995083
0.994976
0.994877
0.994782
0.994689
0.994594
0.994499
0.994402
0.994303
0.994205
0.994107
0.994014
0.993922
0.993827
0.993727
0.99363
0.993532
0.993443
0.99337
0.993314
0.993273
0.993236
0.993211
0.993191
0.993171
0.993153
0.993139
0.993129
0.993124
0.993125
0.993131
0.993143
0.993162
0.993187
0.99322
0.99326
0.993309
0.993366
0.993435
0.993517
0.993611
0.993714
0.993823
0.993937
0.994054
0.994174
0.994294
0.994412
0.994527
0.994636
0.99474
0.994836
0.994925
0.995007
0.99508
0.995146
0.995205
0.995256
0.9953
0.995335
0.995359
0.99537
0.995364
0.995336
0.995285
0.995219
0.995141
0.995056
0.999497
0.999038
0.998646
0.998317
0.998037
0.997793
0.997574
0.997373
0.997186
0.997009
0.996842
0.996682
0.99653
0.996384
0.996244
0.996109
0.995981
0.995855
0.995732
0.99561
0.99549
0.995372
0.995261
0.995158
0.995063
0.994973
0.994885
0.994797
0.994708
0.994619
0.994531
0.994444
0.994359
0.994278
0.994196
0.994106
0.994003
0.993907
0.993815
0.993754
0.993737
0.993756
0.9938
0.993843
0.993888
0.993938
0.993986
0.994032
0.994078
0.994126
0.994177
0.994231
0.99429
0.994353
0.994422
0.994496
0.994576
0.994666
0.994766
0.994873
0.994984
0.995097
0.995209
0.995318
0.995424
0.995524
0.995619
0.995705
0.995785
0.995856
0.995919
0.995974
0.996021
0.99606
0.996091
0.996116
0.996134
0.996146
0.996153
0.996155
0.996152
0.996143
0.996126
0.996098
0.996056
0.995995
0.995915
0.99582
0.995719
0.995614
0.999512
0.999065
0.998686
0.998368
0.998098
0.997864
0.997655
0.997463
0.997285
0.997116
0.996957
0.996806
0.996661
0.996523
0.99639
0.996262
0.996139
0.996021
0.995906
0.995792
0.99568
0.995571
0.995466
0.995368
0.995278
0.995193
0.995111
0.995029
0.994946
0.994863
0.994782
0.994704
0.99463
0.99456
0.994489
0.994406
0.994301
0.994235
0.994257
0.994364
0.994552
0.994784
0.995016
0.995222
0.995408
0.995551
0.995662
0.995746
0.99581
0.995863
0.99591
0.995955
0.996003
0.996054
0.996113
0.996179
0.996248
0.99632
0.996392
0.996462
0.99653
0.996592
0.99665
0.996703
0.996749
0.996789
0.996823
0.99685
0.99687
0.996882
0.996888
0.996888
0.996883
0.996872
0.996856
0.996836
0.996813
0.996786
0.996758
0.996726
0.996693
0.996655
0.996613
0.996562
0.9965
0.99642
0.996323
0.996215
0.996102
0.995987
0.999527
0.999095
0.99873
0.998424
0.998166
0.997943
0.997744
0.997563
0.997394
0.997235
0.997085
0.996942
0.996806
0.996675
0.99655
0.996428
0.996312
0.996199
0.99609
0.995984
0.995879
0.995778
0.99568
0.995588
0.995503
0.995424
0.995347
0.99527
0.995192
0.995114
0.995037
0.994964
0.994897
0.994834
0.99477
0.994691
0.994589
0.994629
0.994938
0.995372
0.995769
0.996093
0.996407
0.996641
0.996834
0.996972
0.99706
0.997119
0.997161
0.997196
0.997229
0.997271
0.997317
0.997365
0.997412
0.997456
0.997496
0.997532
0.997563
0.997589
0.99761
0.997625
0.997634
0.997637
0.997635
0.997628
0.997615
0.997598
0.997575
0.997548
0.997515
0.997478
0.997438
0.997395
0.997349
0.997302
0.997253
0.997204
0.997154
0.997104
0.997054
0.997002
0.996947
0.996885
0.996813
0.996726
0.996622
0.996509
0.996393
0.996277
0.999543
0.999126
0.998773
0.99848
0.998234
0.998022
0.997834
0.997662
0.997502
0.997352
0.997211
0.997077
0.99695
0.996827
0.996709
0.996594
0.996481
0.996372
0.996267
0.996165
0.996066
0.995971
0.99588
0.995794
0.995713
0.995637
0.995565
0.995492
0.995417
0.995341
0.995266
0.995194
0.995127
0.995064
0.994999
0.994919
0.994852
0.995093
0.996
0.996676
0.997124
0.997427
0.997633
0.997772
0.997891
0.997973
0.998025
0.998058
0.998089
0.998127
0.99817
0.998214
0.998254
0.998289
0.998317
0.998338
0.998351
0.998356
0.998355
0.998347
0.998333
0.998313
0.998287
0.998257
0.998221
0.998181
0.998138
0.99809
0.998039
0.997986
0.997929
0.997871
0.99781
0.997747
0.997684
0.997621
0.997558
0.997496
0.997435
0.997376
0.997318
0.997259
0.997199
0.997133
0.997057
0.996968
0.996863
0.99675
0.996635
0.99652
0.999556
0.999152
0.998812
0.998529
0.998293
0.998091
0.997912
0.997748
0.997597
0.997455
0.997322
0.997195
0.997075
0.99696
0.996848
0.996738
0.996629
0.996522
0.996418
0.996318
0.996221
0.996129
0.996042
0.99596
0.995882
0.995807
0.995734
0.995661
0.995586
0.99551
0.995434
0.995359
0.995287
0.995217
0.995143
0.995059
0.994986
0.995232
0.996384
0.997268
0.997901
0.998357
0.998457
0.998535
0.998616
0.998676
0.998723
0.998765
0.998809
0.998852
0.998889
0.998919
0.998941
0.998955
0.99896
0.998957
0.998945
0.998926
0.998898
0.998864
0.998825
0.998779
0.998729
0.998674
0.998616
0.998554
0.998489
0.998421
0.998352
0.998281
0.998209
0.998136
0.998063
0.997989
0.997916
0.997844
0.997773
0.997705
0.997639
0.997575
0.997513
0.997452
0.99739
0.997323
0.997247
0.997157
0.997053
0.996941
0.996828
0.996715
0.999566
0.999172
0.99884
0.998566
0.998337
0.998142
0.997969
0.997813
0.997667
0.997531
0.997403
0.997282
0.997167
0.997057
0.99695
0.996845
0.996739
0.996634
0.996529
0.996428
0.996331
0.996239
0.996152
0.99607
0.995991
0.995913
0.995833
0.995753
0.995673
0.995591
0.995511
0.995431
0.995351
0.995268
0.995184
0.995098
0.995022
0.995249
0.996559
0.997608
0.998394
0.998981
0.998982
0.998992
0.999024
0.999056
0.999097
0.999141
0.999194
0.999245
0.999287
0.999317
0.999336
0.999344
0.999343
0.999331
0.999309
0.999277
0.999236
0.999188
0.999133
0.999073
0.999007
0.998938
0.998865
0.998789
0.998712
0.998632
0.998551
0.99847
0.998389
0.998308
0.998227
0.998147
0.998068
0.997991
0.997916
0.997845
0.997776
0.997711
0.997647
0.997585
0.997522
0.997455
0.997379
0.99729
0.997187
0.997076
0.996964
0.996853
0.999572
0.999183
0.998856
0.998587
0.998363
0.998171
0.998003
0.997849
0.997708
0.997575
0.99745
0.997331
0.997219
0.997111
0.997008
0.996905
0.996802
0.996698
0.996594
0.996491
0.996392
0.996297
0.996207
0.996121
0.996036
0.995949
0.995855
0.995761
0.995668
0.995575
0.995489
0.995403
0.995316
0.995227
0.995144
0.995081
0.995013
0.995192
0.996494
0.997609
0.998467
0.999095
0.999011
0.998952
0.998934
0.998952
0.999001
0.999067
0.999149
0.999233
0.99931
0.999372
0.999418
0.999449
0.999465
0.999466
0.999453
0.999427
0.999388
0.999339
0.999281
0.999217
0.999147
0.999073
0.998995
0.998913
0.99883
0.998745
0.998659
0.998574
0.998488
0.998402
0.998318
0.998234
0.998152
0.998073
0.997996
0.997922
0.997852
0.997785
0.997721
0.997658
0.997595
0.997527
0.997451
0.997363
0.997259
0.997148
0.997037
0.996927
0.999574
0.999186
0.998861
0.998592
0.99837
0.99818
0.998012
0.99786
0.997719
0.997588
0.997463
0.997345
0.997233
0.997126
0.997024
0.996923
0.996822
0.99672
0.996616
0.996513
0.996411
0.996313
0.996217
0.996122
0.996025
0.995923
0.995811
0.995697
0.995586
0.99548
0.995389
0.995303
0.99522
0.995151
0.995111
0.995128
0.99511
0.995076
0.995718
0.996399
0.997103
0.997745
0.997755
0.997788
0.997859
0.997964
0.998109
0.998286
0.998476
0.998663
0.998835
0.998986
0.99911
0.999208
0.99928
0.999327
0.999352
0.999355
0.999343
0.999314
0.999271
0.999219
0.999158
0.99909
0.999017
0.998939
0.998858
0.998775
0.99869
0.998605
0.998519
0.998433
0.998348
0.998264
0.998181
0.998101
0.998023
0.997949
0.997878
0.99781
0.997744
0.99768
0.997616
0.997547
0.99747
0.99738
0.997276
0.997164
0.997052
0.99694
0.999572
0.999183
0.998856
0.998587
0.998363
0.998172
0.998004
0.997851
0.997709
0.997577
0.997452
0.997333
0.99722
0.997112
0.997009
0.996909
0.99681
0.99671
0.996609
0.996506
0.996404
0.996302
0.9962
0.996092
0.995978
0.995857
0.995722
0.995586
0.995456
0.995341
0.995254
0.995189
0.995153
0.995162
0.995236
0.995407
0.995415
0.995346
0.995873
0.996358
0.996803
0.997214
0.997008
0.996868
0.996817
0.996848
0.99701
0.997263
0.997557
0.997853
0.998131
0.998378
0.998589
0.998764
0.998903
0.999009
0.999085
0.999131
0.999155
0.999156
0.99914
0.999108
0.999065
0.999012
0.998951
0.998884
0.998812
0.998736
0.998658
0.998578
0.998496
0.998414
0.998331
0.998249
0.998168
0.998089
0.998012
0.997937
0.997865
0.997797
0.99773
0.997665
0.997599
0.997528
0.997449
0.997357
0.997251
0.997137
0.997022
0.996908
0.999568
0.999176
0.998846
0.998574
0.998347
0.998154
0.997984
0.997829
0.997686
0.997552
0.997425
0.997305
0.997191
0.997081
0.996977
0.996877
0.996779
0.996682
0.996583
0.996483
0.996382
0.99628
0.996172
0.996052
0.995917
0.995774
0.995616
0.995458
0.995317
0.99521
0.995155
0.995155
0.995221
0.995365
0.995577
0.995919
0.995834
0.995629
0.996204
0.996747
0.997224
0.997623
0.997208
0.996888
0.996667
0.9966
0.996661
0.996822
0.997064
0.997343
0.997624
0.997889
0.998126
0.99833
0.998502
0.998641
0.99875
0.998828
0.998883
0.998912
0.99892
0.99891
0.998887
0.998853
0.998809
0.998756
0.998698
0.998634
0.998567
0.998496
0.998423
0.998348
0.998272
0.998195
0.998119
0.998043
0.997968
0.997895
0.997825
0.997756
0.997689
0.997623
0.997556
0.997484
0.997403
0.997308
0.997199
0.997082
0.996964
0.996847
0.999564
0.999168
0.998834
0.998558
0.998329
0.998133
0.997959
0.997802
0.997656
0.99752
0.997392
0.99727
0.997153
0.997042
0.996936
0.996834
0.996736
0.996641
0.996546
0.99645
0.996352
0.996251
0.996141
0.996011
0.995858
0.995695
0.995511
0.995339
0.995215
0.995163
0.995203
0.995321
0.995521
0.995782
0.996061
0.996556
0.99614
0.99549
0.996206
0.996895
0.99743
0.997678
0.99513
0.993346
0.995796
0.996439
0.996882
0.996969
0.997094
0.997288
0.997505
0.997718
0.997913
0.998083
0.99823
0.998353
0.998454
0.998531
0.998592
0.998631
0.998651
0.998656
0.998648
0.99863
0.998602
0.998566
0.998523
0.998474
0.99842
0.998363
0.998302
0.998238
0.998173
0.998105
0.998036
0.997967
0.997898
0.99783
0.997762
0.997696
0.997631
0.997566
0.997498
0.997426
0.997344
0.997249
0.997138
0.997019
0.996898
0.996778
0.99956
0.99916
0.998823
0.998544
0.998312
0.998113
0.997937
0.997777
0.997629
0.99749
0.99736
0.997235
0.997117
0.997004
0.996895
0.996791
0.996692
0.996596
0.996502
0.996409
0.996315
0.996218
0.996109
0.995975
0.995809
0.995636
0.995467
0.99535
0.995328
0.995407
0.995573
0.995787