/*--------------------------------*- C++ -*----------------------------------*\
| =========                 |                                                 |
| \\      /  F ield         | OpenFOAM: The Open Source CFD Toolbox           |
|  \\    /   O peration     | Version:  v2012                                 |
|   \\  /    A nd           | Website:  www.openfoam.com                      |
|    \\/     M anipulation  |                                                 |
\*---------------------------------------------------------------------------*/
FoamFile
{
    version     2.0;
    format      ascii;
    class       volScalarField;
    location    "100/air";
    object      TLeaf;
}
// * * * * * * * * * * * * * * * * * * * * * * * * * * * * * * * * * * * * * //

dimensions      [0 0 0 1 0 0 0];


internalField   nonuniform List<scalar> 
287104
(
310.266
310.512
310.726
310.913
311.078
311.226
311.362
311.489
311.608
311.721
311.828
311.931
312.029
312.124
312.216
312.304
312.39
312.473
312.553
312.631
312.707
312.78
312.852
312.921
312.99
313.057
313.123
313.188
313.252
313.315
313.377
313.438
313.498
313.556
313.612
313.667
313.719
313.769
313.817
313.862
313.905
313.946
313.984
314.02
314.054
314.087
314.117
314.147
314.175
314.203
314.229
314.256
314.282
314.308
314.334
314.36
314.386
314.412
314.438
314.465
314.492
314.518
314.545
314.572
314.599
314.626
314.652
314.679
314.705
314.73
314.755
314.779
314.803
314.827
314.849
314.871
314.892
314.913
314.932
314.95
314.968
314.986
315.004
315.025
315.048
315.077
315.111
315.149
315.189
315.235
310.262
310.503
310.713
310.896
311.058
311.203
311.336
311.46
311.576
311.686
311.79
311.89
311.986
312.079
312.168
312.254
312.337
312.418
312.496
312.571
312.645
312.716
312.785
312.852
312.918
312.983
313.047
313.11
313.171
313.232
313.292
313.35
313.407
313.463
313.517
313.569
313.619
313.666
313.712
313.755
313.796
313.835
313.871
313.906
313.939
313.97
313.999
314.028
314.056
314.082
314.109
314.135
314.161
314.186
314.212
314.237
314.263
314.289
314.315
314.341
314.368
314.394
314.421
314.448
314.474
314.501
314.527
314.553
314.579
314.604
314.629
314.653
314.677
314.7
314.722
314.744
314.765
314.786
314.805
314.824
314.842
314.86
314.879
314.9
314.924
314.954
314.989
315.028
315.07
315.116
310.257
310.495
310.701
310.881
311.039
311.181
311.311
311.432
311.546
311.653
311.755
311.853
311.947
312.037
312.124
312.208
312.289
312.368
312.444
312.518
312.589
312.658
312.725
312.791
312.855
312.918
312.98
313.041
313.1
313.159
313.217
313.273
313.328
313.382
313.434
313.484
313.532
313.577
313.621
313.662
313.701
313.738
313.772
313.805
313.835
313.864
313.891
313.918
313.943
313.968
313.993
314.017
314.041
314.065
314.088
314.112
314.137
314.161
314.185
314.209
314.234
314.259
314.283
314.308
314.332
314.357
314.381
314.405
314.428
314.451
314.473
314.495
314.517
314.538
314.558
314.578
314.597
314.615
314.632
314.649
314.666
314.682
314.7
314.719
314.742
314.77
314.804
314.843
314.884
314.93
310.253
310.486
310.689
310.865
311.02
311.159
311.286
311.404
311.515
311.62
311.72
311.816
311.907
311.995
312.08
312.162
312.242
312.319
312.393
312.465
312.534
312.602
312.667
312.731
312.794
312.855
312.915
312.974
313.032
313.09
313.145
313.2
313.254
313.306
313.356
313.404
313.451
313.495
313.537
313.576
313.613
313.648
313.681
313.711
313.738
313.764
313.789
313.812
313.835
313.858
313.88
313.902
313.925
313.947
313.969
313.992
314.014
314.036
314.058
314.08
314.102
314.124
314.145
314.167
314.189
314.21
314.231
314.252
314.272
314.291
314.31
314.329
314.347
314.364
314.381
314.397
314.413
314.428
314.442
314.456
314.469
314.483
314.498
314.514
314.535
314.56
314.592
314.629
314.668
314.712
310.248
310.477
310.676
310.849
311.001
311.137
311.261
311.377
311.485
311.588
311.685
311.779
311.868
311.954
312.037
312.117
312.195
312.27
312.342
312.412
312.48
312.546
312.61
312.672
312.733
312.792
312.851
312.908
312.965
313.02
313.074
313.127
313.179
313.229
313.278
313.324
313.369
313.411
313.451
313.489
313.524
313.556
313.585
313.611
313.635
313.658
313.679
313.7
313.72
313.739
313.759
313.778
313.798
313.817
313.837
313.856
313.876
313.895
313.915
313.935
313.954
313.973
313.993
314.012
314.03
314.048
314.066
314.083
314.099
314.115
314.13
314.145
314.159
314.173
314.186
314.199
314.211
314.222
314.233
314.244
314.254
314.265
314.277
314.291
314.309
314.333
314.364
314.4
314.441
314.487
310.244
310.469
310.664
310.833
310.982
311.115
311.237
311.349
311.455
311.556
311.651
311.742
311.829
311.913
311.994
312.072
312.148
312.221
312.292
312.36
312.426
312.491
312.553
312.613
312.672
312.73
312.787
312.843
312.898
312.952
313.005
313.056
313.106
313.155
313.201
313.246
313.289
313.33
313.368
313.404
313.436
313.465
313.491
313.515
313.536
313.557
313.576
313.594
313.612
313.629
313.646
313.663
313.681
313.698
313.715
313.732
313.749
313.767
313.784
313.801
313.818
313.835
313.852
313.868
313.885
313.9
313.916
313.93
313.944
313.958
313.971
313.984
313.995
314.007
314.018
314.028
314.038
314.048
314.057
314.066
314.074
314.083
314.093
314.105
314.122
314.144
314.173
314.207
314.25
314.296
310.239
310.46
310.652
310.818
310.963
311.093
311.212
311.323
311.426
311.524
311.617
311.706
311.791
311.873
311.952
312.029
312.103
312.174
312.243
312.31
312.375
312.437
312.498
312.557
312.614
312.671
312.726
312.78
312.834
312.886
312.938
312.988
313.036
313.083
313.128
313.171
313.212
313.251
313.287
313.32
313.349
313.374
313.397
313.418
313.437
313.455
313.473
313.489
313.505
313.521
313.537
313.552
313.568
313.584
313.599
313.615
313.631
313.647
313.662
313.678
313.694
313.71
313.725
313.74
313.755
313.769
313.783
313.797
313.81
313.822
313.834
313.845
313.856
313.866
313.876
313.885
313.894
313.902
313.91
313.917
313.924
313.932
313.941
313.952
313.967
313.988
314.015
314.048
314.091
314.137
310.235
310.452
310.64
310.802
310.945
311.072
311.188
311.296
311.397
311.493
311.584
311.671
311.754
311.834
311.911
311.986
312.059
312.129
312.196
312.262
312.325
312.386
312.445
312.503
312.559
312.614
312.668
312.721
312.774
312.825
312.876
312.925
312.972
313.017
313.06
313.102
313.14
313.175
313.205
313.233
313.257
313.278
313.298
313.316
313.332
313.348
313.363
313.378
313.392
313.406
313.42
313.434
313.449
313.463
313.478
313.492
313.507
313.522
313.537
313.552
313.567
313.582
313.597
313.612
313.626
313.64
313.654
313.667
313.679
313.691
313.703
313.714
313.724
313.734
313.743
313.751
313.759
313.767
313.773
313.779
313.785
313.791
313.799
313.808
313.822
313.842
313.868
313.9
313.941
313.987
310.231
310.444
310.628
310.788
310.927
311.051
311.165
311.27
311.369
311.462
311.551
311.637
311.719
311.798
311.875
311.95
312.022
312.093
312.161
312.227
312.292
312.354
312.414
312.472
312.529
312.584
312.639
312.692
312.744
312.795
312.846
312.894
312.94
312.982
313.019
313.052
313.082
313.109
313.132
313.153
313.171
313.187
313.201
313.214
313.226
313.237
313.248
313.259
313.27
313.281
313.291
313.302
313.313
313.324
313.336
313.348
313.36
313.373
313.386
313.399
313.412
313.426
313.439
313.453
313.466
313.479
313.492
313.505
313.517
313.528
313.538
313.548
313.558
313.567
313.575
313.582
313.588
313.594
313.598
313.601
313.603
313.606
313.61
313.617
313.628
313.645
313.669
313.698
313.736
313.784
310.227
310.436
310.617
310.773
310.909
311.031
311.142
311.245
311.341
311.433
311.522
311.612
311.702
311.793
311.883
311.973
312.061
312.147
312.23
312.311
312.388
312.462
312.533
312.6
312.665
312.727
312.787
312.844
312.9
312.954
313.006
313.056
313.102
313.144
313.18
313.211
313.238
313.261
313.281
313.297
313.311
313.323
313.332
313.34
313.346
313.351
313.355
313.359
313.363
313.366
313.368
313.371
313.375
313.379
313.383
313.388
313.393
313.399
313.405
313.411
313.418
313.425
313.432
313.439
313.446
313.454
313.461
313.468
313.475
313.482
313.488
313.495
313.501
313.507
313.512
313.516
313.518
313.518
313.516
313.511
313.504
313.498
313.493
313.49
313.492
313.501
313.517
313.539
313.568
313.608
310.223
310.428
310.605
310.758
310.892
311.011
311.119
311.22
311.314
311.406
312.126
312.17
312.282
312.412
312.543
312.668
312.785
312.892
312.988
313.073
313.144
313.202
313.246
313.278
313.298
313.312
313.329
313.359
313.413
313.486
313.558
313.604
313.607
313.571
313.522
313.488
313.477
313.472
313.471
313.475
313.475
313.48
313.488
313.482
313.49
313.51
313.522
313.521
313.508
313.491
313.48
313.479
313.488
313.501
313.516
313.532
313.55
313.57
313.592
313.617
313.644
313.672
313.701
313.73
313.76
313.79
313.82
313.85
313.882
313.915
313.948
313.982
314.014
314.043
314.067
314.085
314.094
314.096
314.092
314.078
313.744
313.682
313.632
313.591
313.561
313.541
313.533
313.532
313.541
313.561
310.219
310.42
310.594
310.744
310.875
310.991
311.097
311.195
311.287
311.377
311.981
312.017
312.124
312.251
312.38
312.504
312.621
312.728
312.826
312.912
312.985
313.044
313.09
313.124
313.146
313.16
313.174
313.201
313.254
313.335
313.424
313.49
313.508
313.472
313.408
313.354
313.325
313.307
313.302
313.309
313.311
313.32
313.336
313.336
313.351
313.38
313.395
313.39
313.37
313.349
313.337
313.338
313.349
313.364
313.379
313.394
313.41
313.429
313.449
313.472
313.496
313.521
313.547
313.573
313.6
313.627
313.655
313.683
313.712
313.742
313.773
313.804
313.834
313.862
313.884
313.898
313.905
313.904
313.897
313.884
313.593
313.531
313.479
313.437
313.404
313.383
313.373
313.371
313.378
313.397
310.215
310.413
310.583
310.73
310.858
310.971
311.075
311.171
311.261
311.349
311.861
311.894
311.997
312.12
312.245
312.364
312.476
312.58
312.674
312.758
312.829
312.888
312.933
312.967
312.99
313.004
313.016
313.038
313.085
313.164
313.263
313.348
313.386
313.36
313.291
313.219
313.171
313.134
313.121
313.131
313.132
313.143
313.167
313.17
313.186
313.217
313.226
313.214
313.188
313.164
313.152
313.156
313.168
313.183
313.198
313.212
313.228
313.247
313.267
313.289
313.312
313.337
313.362
313.389
313.416
313.443
313.471
313.499
313.528
313.557
313.588
313.618
313.647
313.673
313.693
313.705
313.708
313.703
313.69
313.674
313.404
313.341
313.289
313.246
313.213
313.192
313.182
313.18
313.186
313.206
310.211
310.405
310.572
310.716
310.841
310.952
311.053
311.146
311.234
311.32
311.744
311.775
311.874
311.993
312.114
312.229
312.337
312.436
312.526
312.606
312.675
312.732
312.777
312.811
312.837
312.855
312.868
312.887
312.925
312.996
313.095
313.193
313.252
313.246
313.183
313.104
313.038
312.98
312.955
312.966
312.968
312.982
313.015
313.02
313.034
313.063
313.066
313.047
313.018
312.995
312.986
312.991
313.003
313.016
313.03
313.044
313.059
313.077
313.097
313.118
313.142
313.167
313.193
313.22
313.248
313.276
313.304
313.332
313.361
313.39
313.42
313.45
313.478
313.502
313.52
313.529
313.53
313.523
313.51
313.494
313.269
313.207
313.155
313.112
313.08
313.059
313.048
313.046
313.053
313.071
310.207
310.397
310.561
310.702
310.824
310.933
311.031
311.123
311.208
311.292
311.628
311.657
311.753
311.868
311.985
312.097
312.202
312.298
312.383
312.459
312.524
312.577
312.621
312.656
312.685
312.709
312.728
312.747
312.778
312.836
312.925
313.023
313.097
313.113
313.068
312.993
312.917
312.836
312.794
312.803
312.807
312.828
312.872
312.876
312.884
312.907
312.904
312.883
312.856
312.837
312.831
312.836
312.846
312.857
312.869
312.882
312.898
312.915
312.934
312.956
312.98
313.005
313.033
313.06
313.088
313.116
313.144
313.171
313.199
313.228
313.257
313.285
313.311
313.332
313.348
313.355
313.354
313.347
313.334
313.319
313.142
313.081
313.029
312.987
312.955
312.934
312.923
312.921
312.927
312.945
310.203
310.39
310.551
310.689
310.808
310.914
311.01
311.099
311.183
311.264
311.514
311.54
311.632
311.743
311.857
311.968
312.072
312.166
312.249
312.319
312.378
312.426
312.466
312.501
312.533
312.566
312.596
312.623
312.652
312.697
312.767
312.853
312.929
312.963
312.94
312.882
312.806
312.703
312.638
312.64
312.648
312.677
312.731
312.733
312.731
312.747
312.74
312.722
312.701
312.688
312.685
312.687
312.692
312.7
312.71
312.723
312.739
312.756
312.776
312.798
312.822
312.849
312.876
312.904
312.931
312.959
312.986
313.012
313.039
313.067
313.093
313.119
313.142
313.161
313.175
313.181
313.18
313.173
313.162
313.15
313.019
312.959
312.908
312.866
312.834
312.813
312.803
312.801
312.807
312.823
310.199
310.383
310.54
310.675
310.792
310.895
310.989
311.076
311.157
311.237
311.401
311.425
311.513
311.62
311.731
311.842
311.948
312.043
312.125
312.191
312.242
312.281
312.314
312.346
312.381
312.423
312.468
312.512
312.551
312.591
312.641
312.704
312.766
312.804
312.801
312.766
312.699
312.582
312.488
312.478
312.487
312.527
312.592
312.589
312.577
312.587
312.581
312.569
312.557
312.549
312.544
312.541
312.541
312.545
312.554
312.568
312.583
312.601
312.621
312.644
312.669
312.695
312.722
312.749
312.776
312.802
312.828
312.854
312.879
312.904
312.928
312.951
312.972
312.989
313.002
313.008
313.009
313.004
312.995
312.985
312.899
312.84
312.79
312.749
312.718
312.698
312.688
312.686
312.692
312.707
310.196
310.375
310.53
310.662
310.776
310.876
310.968
311.052
311.132
311.209
311.291
311.312
311.395
311.498
311.607
311.717
311.826
311.928
312.013
312.076
312.119
312.146
312.168
312.192
312.227
312.276
312.339
312.407
312.468
312.516
312.555
312.591
312.628
312.654
312.658
312.642
312.592
312.469
312.348
312.318
312.328
312.378
312.454
312.446
312.426
312.435
312.433
312.431
312.427
312.42
312.41
312.399
312.393
312.395
312.403
312.417
312.433
312.452
312.472
312.495
312.519
312.545
312.571
312.597
312.622
312.647
312.672
312.695
312.718
312.74
312.762
312.782
312.802
312.819
312.833
312.841
312.843
312.841
312.834
312.827
312.787
312.729
312.681
312.641
312.611
312.592
312.583
312.582
312.587
312.603
310.192
310.368
310.519
310.648
310.76
310.858
310.947
311.029
311.106
311.181
311.184
311.204
311.283
311.38
311.485
311.594
311.708
311.817
311.91
311.975
312.01
312.022
312.025
312.034
312.061
312.113
312.19
312.282
312.372
312.442
312.485
312.504
312.513
312.514
312.507
312.498
312.467
312.349
312.213
312.164
312.171
312.23
312.313
312.303
312.279
312.294
312.304
312.312
312.314
312.306
312.289
312.271
312.261
312.261
312.27
312.285
312.301
312.319
312.339
312.361
312.384
312.408
312.432
312.457
312.48
312.503
312.525
312.546
312.565
312.584
312.603
312.623
312.643
312.662
312.677
312.688
312.693
312.693
312.688
312.682
312.7
312.645
312.599
312.561
312.533
312.515
312.508
312.508
312.515
312.531
310.188
310.361
310.509
310.635
310.744
310.839
310.926
311.006
311.081
311.154
311.098
311.122
311.197
311.288
311.384
311.488
311.599
311.71
311.806
311.869
311.891
311.88
311.854
311.835
311.842
311.884
311.964
312.071
312.187
312.285
312.345
312.366
312.36
312.338
312.312
312.297
312.279
312.183
312.058
311.998
312.002
312.066
312.153
312.153
312.139
312.173
312.201
312.222
312.228
312.216
312.192
312.169
312.156
312.156
312.164
312.177
312.191
312.207
312.224
312.243
312.264
312.285
312.307
312.33
312.351
312.371
312.389
312.405
312.421
312.438
312.455
312.474
312.495
312.514
312.531
312.543
312.549
312.549
312.543
312.535
312.617
312.564
312.521
312.486
312.46
312.445
312.441
312.443
312.452
312.469
310.185
310.354
310.499
310.622
310.728
310.822
310.906
310.984
311.056
311.125
311.191
311.255
311.318
311.378
311.437
311.494
311.55
311.605
311.659
311.711
311.76
311.806
311.85
311.891
311.929
311.968
312.006
312.045
312.086
312.127
312.168
312.209
312.247
312.282
312.315
312.345
312.373
312.398
312.421
312.442
312.462
312.482
312.503
312.524
312.547
312.573
312.603
312.634
312.666
312.695
312.722
312.745
312.764
312.779
312.789
312.794
312.793
312.788
312.778
312.765
312.75
312.732
312.714
312.694
312.674
312.653
312.632
312.611
312.591
312.571
312.551
312.531
312.513
312.495
312.477
312.46
312.444
312.427
312.411
312.394
312.377
312.362
312.349
312.339
312.335
312.338
312.347
312.362
312.382
312.407
310.181
310.348
310.49
310.61
310.714
310.805
310.887
310.963
311.033
311.1
311.164
311.225
311.283
311.339
311.394
311.446
311.497
311.548
311.597
311.645
311.691
311.735
311.776
311.814
311.85
311.885
311.921
311.958
311.997
312.037
312.077
312.118
312.156
312.192
312.226
312.256
312.284
312.31
312.335
312.357
312.377
312.397
312.414
312.429
312.442
312.455
312.469
312.484
312.499
312.514
312.529
312.543
312.555
312.567
312.577
312.584
312.59
312.593
312.593
312.591
312.587
312.581
312.574
312.566
312.556
312.546
312.536
312.525
312.514
312.503
312.491
312.48
312.468
312.457
312.445
312.434
312.422
312.41
312.397
312.384
312.371
312.359
312.348
312.341
312.338
312.342
312.352
312.368
312.388
312.413
310.178
310.341
310.481
310.599
310.7
310.789
310.869
310.943
311.012
311.077
311.139
311.198
311.254
311.309
311.361
311.411
311.46
311.508
311.556
311.603
311.649
311.692
311.732
311.769
311.804
311.839
311.873
311.909
311.946
311.984
312.024
312.063
312.101
312.138
312.171
312.203
312.233
312.261
312.289
312.315
312.338
312.359
312.377
312.393
312.406
312.418
312.43
312.441
312.45
312.459
312.466
312.473
312.479
312.484
312.489
312.492
312.495
312.496
312.496
312.494
312.491
312.487
312.482
312.475
312.468
312.46
312.452
312.442
312.432
312.421
312.41
312.397
312.384
312.371
312.356
312.341
312.325
312.308
312.29
312.272
312.254
312.236
312.22
312.207
312.198
312.196
312.201
312.211
312.226
312.245
310.175
310.335
310.472
310.588
310.687
310.773
310.851
310.923
310.99
311.053
311.114
311.171
311.226
311.278
311.329
311.378
311.425
311.471
311.517
311.563
311.607
311.649
311.689
311.726
311.76
311.793
311.826
311.859
311.894
311.929
311.966
312.002
312.038
312.073
312.106
312.138
312.17
312.2
312.231
312.259
312.285
312.308
312.325
312.341
312.353
312.364
312.374
312.383
312.392
312.399
312.405
312.409
312.413
312.415
312.417
312.418
312.417
312.416
312.413
312.408
312.403
312.395
312.386
312.374
312.36
312.344
312.326
312.306
312.284
312.26
312.234
312.206
312.178
312.149
312.12
312.09
312.061
312.032
312.003
311.976
311.95
311.927
311.907
311.891
311.881
311.878
311.883
311.895
311.91
311.93
310.172
310.329
310.462
310.575
310.672
310.756
310.832
310.901
310.966
311.027
311.086
311.141
311.194
311.245
311.294
311.34
311.386
311.43
311.473
311.517
311.559
311.6
311.639
311.675
311.708
311.739
311.77
311.802
311.834
311.866
311.899
311.932
311.964
311.995
312.026
312.058
312.091
312.123
312.156
312.186
312.21
312.229
312.242
312.255
312.263
312.27
312.276
312.282
312.287
312.29
312.292
312.292
312.29
312.286
312.279
312.271
312.26
312.247
312.23
312.211
312.188
312.161
312.13
312.095
312.059
312.021
311.982
311.942
311.902
311.863
311.824
311.788
311.753
311.721
311.692
311.664
311.64
311.618
311.598
311.581
311.567
311.555
311.547
311.543
311.545
311.555
311.572
311.594
311.62
311.648
310.168
310.321
310.451
310.561
310.654
310.736
310.809
310.876
310.938
310.997
311.053
311.106
311.157
311.205
311.252
311.297
311.34
311.382
311.423
311.463
311.503
311.543
311.58
311.614
311.646
311.676
311.705
311.734
311.764
311.794
311.823
311.852
311.88
311.907
311.935
311.965
311.999
312.031
312.062
312.082
312.088
312.081
312.067
312.052
312.037
312.021
312.005
311.989
311.974
311.958
311.941
311.923
311.903
311.882
311.859
311.835
311.808
311.778
311.745
311.709
311.672
311.634
311.597
311.561
311.525
311.492
311.46
311.432
311.405
311.381
311.36
311.342
311.326
311.313
311.303
311.295
311.289
311.285
311.282
311.282
311.283
311.286
311.291
311.301
311.315
311.335
311.362
311.393
311.427
311.462
310.163
310.312
310.438
310.544
310.634
310.712
310.782
310.846
310.905
310.961
311.014
311.065
311.113
311.159
311.203
311.246
311.287
311.326
311.365
311.403
311.44
311.476
311.511
311.544
311.574
311.602
311.63
311.657
311.685
311.712
311.739
311.765
311.79
311.813
311.837
311.865
311.9
311.922
311.914
311.879
311.816
311.739
311.661
311.593
311.531
311.483
311.446
311.418
311.397
311.379
311.363
311.348
311.332
311.315
311.296
311.274
311.251
311.227
311.203
311.179
311.157
311.136
311.117
311.099
311.084
311.07
311.059
311.05
311.043
311.039
311.037
311.037
311.039
311.043
311.048
311.055
311.062
311.071
311.081
311.091
311.102
311.115
311.129
311.146
311.167
311.193
311.226
311.262
311.299
311.338
310.158
310.302
310.423
310.525
310.611
310.686
310.752
310.812
310.869
310.922
310.972
311.019
311.065
311.108
311.15
311.191
311.229
311.267
311.303
311.339
311.374
311.407
311.44
311.471
311.499
311.525
311.551
311.577
311.603
311.629
311.654
311.679
311.701
311.722
311.743
311.77
311.804
311.79
311.687
311.543
311.41
311.302
311.198
311.12
311.055
311.009
310.98
310.96
310.946
310.935
310.924
310.91
310.894
310.878
310.863
310.848
310.835
310.823
310.812
310.804
310.797
310.792
310.789
310.788
310.788
310.791
310.795
310.801
310.808
310.817
310.828
310.841
310.854
310.868
310.884
310.899
310.916
310.932
310.949
310.965
310.982
310.999
311.018
311.038
311.062
311.091
311.126
311.164
311.202
311.241
310.152
310.291
310.409
310.507
310.589
310.659
310.722
310.779
310.833
310.883
310.93
310.974
311.017
311.058
311.097
311.135
311.173
311.209
311.244
311.278
311.311
311.343
311.373
311.402
311.429
311.454
311.478
311.503
311.528
311.553
311.578
311.602
311.624
311.645
311.667
311.694
311.716
311.636
311.333
311.108
310.959
310.858
310.789
310.743
310.703
310.676
310.658
310.647
310.637
310.624
310.61
310.595
310.582
310.57
310.561
310.554
310.55
310.548
310.548
310.551
310.556
310.562
310.571
310.581
310.593
310.606
310.621
310.637
310.654
310.671
310.69
310.71
310.73
310.751
310.772
310.793
310.814
310.835
310.855
310.875
310.894
310.914
310.934
310.956
310.981
311.011
311.046
311.083
311.122
311.16
310.148
310.283
310.396
310.49
310.569
310.636
310.696
310.751
310.801
310.848
310.893
310.935
310.975
311.013
311.051
311.087
311.124
311.159
311.194
311.227
311.26
311.29
311.319
311.347
311.373
311.398
311.422
311.446
311.471
311.497
311.522
311.547
311.571
311.594
311.619
311.647
311.671
311.589
311.205
310.911
310.7
310.548
310.514
310.488
310.461
310.441
310.426
310.412
310.397
310.383
310.37
310.36
310.353
310.348
310.347
310.348
310.352
310.358
310.367
310.379
310.392
310.407
310.424
310.442
310.461
310.482
310.504
310.526
310.549
310.573
310.597
310.621
310.646
310.67
310.695
310.719
310.742
310.765
310.787
310.808
310.829
310.849
310.87
310.892
310.918
310.948
310.982
311.02
311.057
311.095
310.145
310.276
310.387
310.478
310.554
310.619
310.677
310.729
310.778
310.823
310.866
310.906
310.944
310.981
311.017
311.052
311.087
311.122
311.157
311.191
311.223
311.254
311.283
311.31
311.336
311.362
311.389
311.416
311.442
311.47
311.496
311.523
311.55
311.577
311.605
311.634
311.659
311.584
311.147
310.797
310.535
310.34
310.339
310.336
310.325
310.315
310.301
310.286
310.269
310.252
310.238
310.228
310.221
310.219
310.219
310.223
310.23
310.241
310.255
310.271
310.289
310.309
310.331
310.354
310.378
310.404
310.429
310.456
310.483
310.51
310.537
310.564
310.591
310.618
310.644
310.67
310.695
310.718
310.741
310.763
310.784
310.805
310.826
310.848
310.874
310.903
310.938
310.975
311.012
311.049
310.143
310.272
310.381
310.471
310.546
310.61
310.666
310.717
310.764
310.808
310.85
310.89
310.927
310.963
310.997
311.032
311.066
311.101
311.135
311.17
311.203
311.234
311.264
311.293
311.321
311.35
311.382
311.413
311.444
311.475
311.504
311.532
311.561
311.591
311.619
311.64
311.662
311.603
311.169
310.797
310.511
310.302
310.33
310.349
310.355
310.349
310.333
310.311
310.284
310.256
310.23
310.209
310.194
310.184
310.178
310.178
310.182
310.191
310.204
310.22
310.24
310.261
310.284
310.309
310.335
310.362
310.39
310.418
310.447
310.475
310.504
310.533
310.561
310.589
310.616
310.642
310.668
310.693
310.716
310.738
310.76
310.781
310.802
310.824
310.85
310.879
310.914
310.951
310.988
311.024
310.142
310.271
310.38
310.469
310.543
310.607
310.663
310.713
310.76
310.804
310.846
310.885
310.922
310.958
310.992
311.026
311.059
311.093
311.128
311.162
311.196
311.229
311.261
311.293
311.325
311.359
311.396
311.434
311.471
311.507
311.537
311.566
311.593
311.616
311.63
311.624
311.63
311.641
311.427
311.2
310.966
310.752
310.748
310.737
310.714
310.679
310.63
310.571
310.508
310.446
310.388
310.338
310.297
310.264
310.24
310.224
310.216
310.215
310.219
310.229
310.243
310.26
310.281
310.303
310.328
310.354
310.381
310.408
310.437
310.465
310.494
310.522
310.551
310.579
310.606
310.633
310.659
310.684
310.707
310.73
310.752
310.773
310.795
310.818
310.843
310.873
310.908
310.945
310.983
311.02
310.143
310.272
310.381
310.471
310.546
310.609
310.665
310.716
310.764
310.808
310.849
310.889
310.927
310.963
310.997
311.03
311.063
311.097
311.13
311.165
311.199
311.233
311.267
311.303
311.341
311.381
311.426
311.471
311.515
311.553
311.582
311.604
311.616
311.613
311.588
311.531
311.528
311.551
311.376
311.214
311.066
310.929
310.997
311.044
311.061
311.051
310.997
310.912
310.814
310.716
310.623
310.541
310.47
310.412
310.366
310.33
310.305
310.29
310.282
310.281
310.287
310.297
310.312
310.329
310.35
310.372
310.396
310.421
310.447
310.474
310.501
310.529
310.556
310.584
310.611
310.637
310.663
310.688
310.712
310.734
310.757
310.778
310.8
310.824
310.85
310.881
310.916
310.954
310.993
311.031
310.144
310.275
310.385
310.475
310.551
310.615
310.672
310.724
310.771
310.816
310.858
310.898
310.936
310.973
311.008
311.041
311.074
311.106
311.139
311.172
311.206
311.24
311.276
311.316
311.361
311.409
311.461
311.514
311.561
311.597
311.615
311.615
311.593
311.545
311.474
311.36
311.389
311.457
311.265
311.084
310.925
310.792
310.931
311.037
311.111
311.133
311.113
311.059
310.979
310.886
310.792
310.704
310.625
310.557
310.499
310.453
310.417
310.391
310.372
310.363
310.36
310.363
310.371
310.382
310.397
310.415
310.434
310.455
310.478
310.501
310.526
310.551
310.576
310.602
310.627
310.652
310.677
310.702
310.725
310.748
310.77
310.792
310.815
310.839
310.866
310.897
310.934
310.973
311.012
311.051
310.145
310.277
310.389
310.481
310.557
310.622
310.68
310.733
310.781
310.827
310.869
310.91
310.949
310.986
311.021
311.055
311.088
311.12
311.151
311.183
311.216
311.25
311.286
311.33
311.381
311.435
311.496
311.554
311.595
311.612
311.599
311.56
311.493
311.406
311.313
311.148
311.287
311.503
311.265
311.035
310.857
310.774
311.623
312.218
311.401
311.187
311.039
311.01
310.969
310.904
310.832
310.761
310.696
310.639
310.59
310.549
310.515
310.49
310.469
310.456
310.45
310.448
310.451
310.457
310.466
310.478
310.492
310.509
310.527
310.546
310.566
310.587
310.609
310.632
310.655
310.678
310.701
310.723
310.746
310.768
310.79
310.811
310.834
310.858
310.885
310.917
310.954
310.994
311.034
311.074
310.147
310.28
310.392
310.485
310.563
310.629
310.688
310.741
310.79
310.837
310.88
310.922
310.961
310.999
311.035
311.07
311.103
311.135
311.166
311.197
311.228
311.261
311.297
311.342
311.397
311.455
311.511
311.55
311.557
311.531
311.476
311.404
311.319
311.235
311.171
310.954
310.88
310.769
310.682
310.671
310.725
310.77
310.754
310.717
310.679
310.646
310.616
310.59
310.569
310.551
310.536
310.527
310.522
310.52
310.521
310.525
310.531
310.54
310.551
310.563
310.577
310.593
310.609
310.627
310.645
310.665
310.685
310.705
310.726
310.747
310.768
310.789
310.809
310.83
310.852
310.875
310.902
310.933
310.97
311.01
311.05
311.09
310.148
310.282
310.395
310.489
310.567
310.634
310.693
310.747
310.797
310.844
310.888
310.93
310.97
311.009
311.046
311.081
311.115
311.147
311.179
311.21
311.24
311.271
311.306
311.35
311.406
311.448
311.466
311.445
311.399
311.342
311.257
311.184
311.119
311.079
311.085
310.909
310.728
310.591
310.5
310.465
310.46
310.468
310.474
310.473
310.467
310.468
310.469
310.469
310.469
310.47
310.47
310.474
310.48
310.489
310.5
310.512
310.525
310.54
310.555
310.571
310.588
310.605
310.623
310.641
310.66
310.679
310.699
310.719
310.739
310.759
310.779
310.798
310.818
310.837
310.858
310.88
310.906
310.936
310.972
311.01
311.049
311.088
310.148
310.283
310.397
310.491
310.57
310.637
310.697
310.752
310.802
310.849
310.894
310.936
310.977
311.015
311.052
311.088
311.123
311.156
311.188
311.219
311.249
311.279
311.312
311.352
311.399
311.381
311.238
311.116
311.035
310.983
310.942
310.917
310.904
310.926
311.007
310.774
310.644
310.479
310.373
310.31
310.288
310.284
310.288
310.294
310.299
310.316
310.333
310.347
310.36
310.374
310.384
310.398
310.413
310.43
310.449
310.467
310.487
310.507
310.528
310.549
310.569
310.59
310.61
310.63
310.651
310.671
310.692
310.712
310.732
310.752
310.772
310.791
310.809
310.828
310.847
310.868
310.892
310.92
310.954
310.99
311.027
311.063
310.149
310.284
310.398
310.493
310.572
310.639
310.699
310.754
310.805
310.852
310.897
310.939
310.98
311.019
311.056
311.092
311.127
311.16
311.193
311.224
311.255
311.285
311.315
311.351
311.389
311.359
311.117
310.909
310.753
310.641
310.645
310.657
310.685
310.764
310.902
310.669
310.591
310.413
310.298
310.24
310.22
310.217
310.222
310.23
310.237
310.256
310.277
310.294
310.31
310.327
310.342
310.358
310.376
310.396
310.415
310.436
310.458
310.48
310.502
310.525
310.547
310.569
310.591
310.613
310.634
310.656
310.677
310.698
310.719
310.739
310.758
310.777
310.795
310.813
310.831
310.851
310.874
310.901
310.933
310.968
311.003
311.037
310.149
310.285
310.399
310.494
310.573
310.641
310.701
310.756
310.806
310.854
310.899
310.941
310.982
311.021
311.059
311.095
311.129
311.163
311.196
311.228
311.259
311.289
311.319
311.349
311.378
311.336
311.003
310.715
310.485
310.303
310.342
310.379
310.431
310.532
310.716
310.564
310.566
310.397
310.29
310.234
310.213
310.208
310.211
310.218
310.223
310.242
310.262
310.278
310.294
310.31
310.326
310.343
310.361
310.378
310.396
310.415
310.435
310.456
310.478
310.501
310.524
310.547
310.57
310.592
310.615
310.638
310.66
310.683
310.705
310.726
310.747
310.768
310.787
310.807
310.827
310.848
310.872
310.901
310.934
310.971
311.007
311.042
310.149
310.285
310.399
310.494
310.574
310.642
310.702
310.757
310.808
310.855
310.9
310.943
310.984
311.023
311.061
311.097
311.131
311.165
311.198
311.229
311.261
311.291
311.321
311.35
311.371
311.32
310.945
310.616
310.352
310.142
310.209
310.271
310.339
310.438
310.616
310.52
310.594