/*--------------------------------*- C++ -*----------------------------------*\
| =========                 |                                                 |
| \\      /  F ield         | OpenFOAM: The Open Source CFD Toolbox           |
|  \\    /   O peration     | Version:  v2012                                 |
|   \\  /    A nd           | Website:  www.openfoam.com                      |
|    \\/     M anipulation  |                                                 |
\*---------------------------------------------------------------------------*/
FoamFile
{
    version     2.0;
    format      ascii;
    class       volScalarField;
    location    "450/soil1";
    object      T;
}
// * * * * * * * * * * * * * * * * * * * * * * * * * * * * * * * * * * * * * //

dimensions      [0 0 0 1 0 0 0];


internalField   nonuniform List<scalar> 
57600
(
303.138
303.185
303.244
303.301
303.351
303.395
303.433
303.467
303.497
303.524
303.548
303.57
303.591
303.609
303.626
303.642
303.656
303.67
303.682
303.694
303.705
303.716
303.726
303.736
303.745
303.753
303.761
303.769
303.777
303.784
303.791
303.798
303.804
303.811
303.817
303.823
303.829
303.834
303.84
303.845
303.851
303.856
303.861
303.866
303.871
303.876
303.88
303.885
303.89
303.894
303.899
303.903
303.907
303.912
303.916
303.92
303.924
303.928
303.932
303.936
303.94
303.944
303.948
303.952
303.955
303.959
303.963
303.966
303.97
303.973
303.977
303.98
303.984
303.987
303.991
303.994
303.997
304.001
304.004
304.008
304.011
304.015
304.019
304.022
304.027
304.031
304.038
304.048
304.065
304.088
303.118
303.164
303.223
303.278
303.328
303.371
303.408
303.442
303.471
303.498
303.521
303.543
303.562
303.58
303.597
303.612
303.626
303.639
303.652
303.663
303.674
303.684
303.694
303.703
303.712
303.72
303.728
303.735
303.743
303.75
303.756
303.763
303.769
303.775
303.781
303.786
303.792
303.797
303.803
303.808
303.813
303.818
303.822
303.827
303.832
303.836
303.841
303.845
303.849
303.854
303.858
303.862
303.866
303.87
303.874
303.878
303.882
303.886
303.889
303.893
303.897
303.9
303.904
303.908
303.911
303.915
303.918
303.921
303.925
303.928
303.931
303.935
303.938
303.941
303.944
303.947
303.951
303.954
303.957
303.96
303.964
303.967
303.97
303.974
303.978
303.983
303.989
303.999
304.017
304.041
303.091
303.136
303.194
303.249
303.297
303.339
303.376
303.409
303.438
303.464
303.487
303.508
303.527
303.545
303.561
303.576
303.59
303.602
303.614
303.626
303.636
303.646
303.655
303.664
303.673
303.681
303.688
303.695
303.702
303.709
303.716
303.722
303.728
303.734
303.739
303.744
303.75
303.755
303.76
303.765
303.769
303.774
303.779
303.783
303.787
303.792
303.796
303.8
303.804
303.808
303.812
303.816
303.82
303.824
303.827
303.831
303.835
303.838
303.842
303.846
303.849
303.852
303.856
303.859
303.862
303.866
303.869
303.872
303.875
303.878
303.881
303.884
303.887
303.89
303.893
303.896
303.899
303.902
303.905
303.908
303.912
303.915
303.918
303.921
303.925
303.93
303.936
303.946
303.964
303.989
303.062
303.107
303.163
303.217
303.265
303.307
303.343
303.375
303.404
303.429
303.452
303.473
303.492
303.509
303.525
303.54
303.553
303.566
303.577
303.588
303.599
303.608
303.617
303.626
303.634
303.642
303.65
303.657
303.663
303.67
303.676
303.682
303.688
303.694
303.699
303.704
303.709
303.714
303.719
303.724
303.728
303.733
303.737
303.742
303.746
303.75
303.754
303.758
303.762
303.766
303.769
303.773
303.777
303.781
303.784
303.788
303.791
303.795
303.798
303.801
303.805
303.808
303.811
303.814
303.817
303.821
303.824
303.827
303.83
303.833
303.835
303.838
303.841
303.844
303.847
303.85
303.853
303.856
303.858
303.861
303.864
303.867
303.871
303.874
303.878
303.882
303.888
303.898
303.917
303.941
303.032
303.077
303.133
303.186
303.233
303.274
303.31
303.342
303.37
303.395
303.418
303.438
303.457
303.474
303.489
303.504
303.517
303.529
303.541
303.552
303.562
303.571
303.58
303.589
303.597
303.605
303.612
303.619
303.626
303.632
303.638
303.644
303.65
303.655
303.661
303.666
303.671
303.675
303.68
303.685
303.689
303.693
303.698
303.702
303.706
303.71
303.714
303.717
303.721
303.725
303.729
303.732
303.736
303.739
303.743
303.746
303.749
303.753
303.756
303.759
303.762
303.765
303.768
303.771
303.774
303.777
303.78
303.783
303.786
303.788
303.791
303.794
303.797
303.799
303.802
303.805
303.807
303.81
303.813
303.815
303.818
303.821
303.824
303.827
303.831
303.835
303.841
303.851
303.869
303.892
303.003
303.047
303.102
303.155
303.201
303.242
303.278
303.309
303.336
303.361
303.383
303.403
303.422
303.438
303.454
303.468
303.481
303.493
303.505
303.516
303.526
303.535
303.544
303.552
303.56
303.568
303.575
303.582
303.589
303.595
303.601
303.607
303.612
303.618
303.623
303.628
303.633
303.637
303.642
303.646
303.65
303.654
303.658
303.662
303.666
303.67
303.674
303.677
303.681
303.684
303.688
303.691
303.694
303.698
303.701
303.704
303.707
303.71
303.713
303.716
303.719
303.722
303.724
303.727
303.73
303.732
303.735
303.737
303.74
303.742
303.745
303.747
303.749
303.752
303.754
303.756
303.759
303.761
303.763
303.766
303.768
303.771
303.773
303.776
303.779
303.783
303.788
303.797
303.814
303.836
302.975
303.018
303.072
303.124
303.17
303.21
303.245
303.276
303.303
303.327
303.348
303.367
303.385
303.401
303.417
303.431
303.444
303.456
303.468
303.479
303.489
303.498
303.507
303.516
303.524
303.531
303.538
303.545
303.552
303.558
303.564
303.569
303.575
303.58
303.585
303.59
303.594
303.599
303.603
303.607
303.611
303.615
303.619
303.622
303.626
303.629
303.633
303.636
303.639
303.642
303.645
303.648
303.651
303.654
303.656
303.659
303.662
303.664
303.667
303.669
303.672
303.674
303.676
303.678
303.681
303.683
303.685
303.687
303.689
303.69
303.692
303.694
303.696
303.697
303.699
303.701
303.702
303.704
303.706
303.707
303.71
303.712
303.714
303.716
303.719
303.722
303.727
303.734
303.748
303.767
302.946
302.989
303.043
303.094
303.139
303.179
303.213
303.244
303.27
303.291
303.309
303.326
303.342
303.358
303.373
303.388
303.402
303.414
303.426
303.438
303.448
303.458
303.467
303.476
303.484
303.492
303.499
303.506
303.512
303.518
303.524
303.53
303.535
303.54
303.544
303.549
303.553
303.557
303.561
303.565
303.568
303.572
303.575
303.578
303.581
303.584
303.587
303.59
303.593
303.595
303.598
303.6
303.603
303.605
303.607
303.609
303.611
303.613
303.615
303.617
303.618
303.62
303.622
303.623
303.624
303.626
303.627
303.628
303.629
303.63
303.631
303.632
303.633
303.634
303.635
303.635
303.636
303.637
303.638
303.64
303.642
303.645
303.648
303.65
303.653
303.656
303.66
303.666
303.678
303.693
302.918
302.96
303.013
303.064
303.109
303.148
303.182
303.211
303.234
303.249
303.255
303.263
303.276
303.291
303.307
303.324
303.339
303.354
303.368
303.382
303.394
303.405
303.416
303.425
303.434
303.442
303.45
303.457
303.463
303.469
303.475
303.48
303.485
303.489
303.494
303.498
303.502
303.505
303.509
303.512
303.515
303.519
303.522
303.524
303.527
303.529
303.532
303.534
303.536
303.539
303.541
303.543
303.544
303.546
303.548
303.549
303.551
303.552
303.553
303.555
303.556
303.557
303.557
303.558
303.559
303.559
303.56
303.56
303.561
303.561
303.561
303.561
303.561
303.561
303.561
303.561
303.561
303.561
303.562
303.565
303.572
303.579
303.585
303.59
303.594
303.598
303.603
303.609
303.619
303.633
302.891
302.932
302.985
303.035
303.079
303.117
303.15
303.177
303.194
303.19
303.156
303.14
303.144
303.16
303.18
303.203
303.225
303.246
303.265
303.283
303.3
303.315
303.329
303.341
303.351
303.361
303.369
303.376
303.383
303.388
303.394
303.399
303.403
303.407
303.412
303.416
303.419
303.422
303.425
303.428
303.431
303.435
303.438
303.44
303.443
303.445
303.448
303.45
303.452
303.454
303.456
303.458
303.46
303.462
303.463
303.465
303.466
303.467
303.468
303.469
303.469
303.47
303.47
303.47
303.47
303.47
303.47
303.469
303.469
303.468
303.467
303.466
303.465
303.464
303.463
303.461
303.46
303.459
303.461
303.469
303.49
303.511
303.529
303.542
303.552
303.56
303.567
303.576
303.587
303.601
302.864
302.904
302.956
303.006
303.049
303.087
303.119
303.143
303.15
303.109
302.988
302.926
302.919
302.94
302.971
303.005
303.039
303.07
303.099
303.125
303.149
303.169
303.186
303.201
303.214
303.224
303.233
303.24
303.245
303.25
303.255
303.258
303.262
303.265
303.268
303.271
303.275
303.277
303.279
303.282
303.285
303.289
303.292
303.295
303.298
303.301
303.304
303.307
303.31
303.313
303.315
303.318
303.321
303.323
303.325
303.327
303.329
303.331
303.332
303.333
303.334
303.335
303.336
303.336
303.336
303.335
303.335
303.334
303.333
303.331
303.329
303.327
303.325
303.323
303.32
303.317
303.314
303.313
303.315
303.333
303.384
303.437
303.478
303.508
303.529
303.544
303.556
303.569
303.585
303.602
302.837
302.877
302.928
302.977
303.02
303.057
303.089
303.111
303.111
303.054
302.898
302.816
302.803
302.825
302.861
302.901
302.939
302.976
303.009
303.039
303.065
303.087
303.107
303.123
303.136
303.147
303.155
303.162
303.167
303.172
303.175
303.178
303.18
303.183
303.186
303.189
303.192
303.194
303.196
303.199
303.203
303.207
303.212
303.215
303.219
303.223
303.228
303.232
303.237
303.241
303.246
303.25
303.255
303.259
303.264
303.268
303.272
303.276
303.28
303.283
303.286
303.29
303.293
303.295
303.297
303.3
303.301
303.303
303.304
303.304
303.304
303.304
303.304
303.303
303.301
303.3
303.298
303.298
303.302
303.323
303.38
303.438
303.484
303.516
303.539
303.556
303.57
303.586
303.606
303.628
302.81
302.85
302.901
302.949
302.991
303.028
303.059
303.08
303.078
303.016
302.851
302.764
302.749
302.771
302.808
302.849
302.889
302.927
302.961
302.992
303.019
303.042
303.061
303.078
303.091
303.102
303.11
303.116
303.121
303.125
303.127
303.129
303.131
303.133
303.135
303.138
303.141
303.142
303.144
303.147
303.15
303.155
303.159
303.163
303.166
303.17
303.175
303.179
303.184
303.189
303.194
303.199
303.203
303.208
303.213
303.217
303.222
303.226
303.23
303.235
303.239
303.243
303.247
303.251
303.254
303.258
303.261
303.265
303.268
303.271
303.274
303.277
303.28
303.282
303.284
303.286
303.288
303.292
303.3
303.324
303.381
303.438
303.482
303.513
303.536
303.553
303.569
303.587
303.611
303.638
302.784
302.823
302.873
302.921
302.963
302.999
303.029
303.05
303.048
302.985
302.82
302.732
302.717
302.739
302.775
302.816
302.856
302.894
302.928
302.959
302.985
303.009
303.028
303.044
303.058
303.068
303.076
303.082
303.087
303.09
303.092
303.093
303.094
303.096
303.098
303.101
303.103
303.104
303.105
303.108
303.111
303.116
303.12
303.123
303.126
303.13
303.134
303.139
303.143
303.148
303.153
303.157
303.162
303.166
303.17
303.174
303.178
303.182
303.185
303.189
303.192
303.196
303.199
303.202
303.205
303.208
303.211
303.214
303.216
303.219
303.221
303.224
303.226
303.228
303.23
303.232
303.234
303.237
303.245
303.269
303.324
303.379
303.421
303.452
303.474
303.491
303.508
303.527
303.552
303.579
302.759
302.797
302.846
302.893
302.935
302.971
303
303.021
303.018
302.956
302.793
302.705
302.69
302.712
302.748
302.788
302.828
302.865
302.899
302.93
302.956
302.979
302.998
303.014
303.027
303.038
303.046
303.052
303.056
303.059
303.061
303.062
303.063
303.064
303.066
303.068
303.071
303.072
303.073
303.075
303.078
303.083
303.088
303.09
303.093
303.097
303.101
303.106
303.111
303.116
303.121
303.125
303.129
303.134
303.138
303.142
303.146
303.15
303.153
303.157
303.16
303.164
303.167
303.17
303.173
303.176
303.178
303.181
303.184
303.186
303.189
303.191
303.193
303.195
303.197
303.199
303.201
303.203
303.211
303.233
303.287
303.34
303.38
303.408
303.428
303.444
303.459
303.477
303.502
303.527
302.733
302.771
302.82
302.866
302.907
302.942
302.972
302.992
302.99
302.928
302.767
302.681
302.666
302.687
302.723
302.763
302.802
302.839
302.872
302.902
302.928
302.951
302.97
302.986
302.998
303.009
303.016
303.023
303.027
303.03
303.032
303.032
303.033
303.034
303.036
303.038
303.041
303.042
303.042
303.044
303.048
303.053
303.058
303.061
303.063
303.067
303.072
303.078
303.083
303.088
303.093
303.098
303.102
303.107
303.111
303.116
303.12
303.124
303.128
303.132
303.136
303.14
303.144
303.147
303.151
303.154
303.158
303.162
303.165
303.168
303.172
303.175
303.179
303.182
303.185
303.188
303.192
303.196
303.205
303.229
303.283
303.335
303.375
303.403
303.423
303.438
303.453
303.472
303.497
303.524
302.708
302.746
302.794
302.839
302.88
302.915
302.944
302.964
302.962
302.901
302.743
302.658
302.644
302.665
302.7
302.739
302.778
302.814
302.847
302.876
302.902
302.924
302.942
302.958
302.97
302.98
302.987
302.993
302.998
303.001
303.003
303.003
303.004
303.004
303.006
303.008
303.011
303.012
303.012
303.014
303.017
303.022
303.028
303.031
303.034
303.039
303.044
303.05
303.056
303.062
303.067
303.072
303.076
303.081
303.086
303.09
303.095
303.099
303.104
303.108
303.112
303.116
303.12
303.124
303.128
303.132
303.136
303.139
303.143
303.147
303.151
303.155
303.159
303.163
303.166
303.17
303.174
303.179
303.189
303.214
303.267
303.32
303.36
303.388
303.408
303.424
303.439
303.458
303.483
303.511
302.684
302.721
302.768
302.813
302.853
302.887
302.916
302.936
302.935
302.876
302.723
302.641
302.627
302.648
302.683
302.721
302.758
302.793
302.825
302.853
302.878
302.899
302.916
302.931
302.942
302.951
302.958
302.964
302.968
302.971
302.973
302.974
302.973
302.973
302.974
302.977
302.979
302.979
302.979
302.981
302.984
302.989
302.995
302.999
303.002
303.007
303.014
303.021
303.027
303.033
303.038
303.043
303.047
303.052
303.057
303.061
303.065
303.069
303.073
303.077
303.08
303.083
303.086
303.089
303.093
303.095
303.098
303.101
303.104
303.107
303.109
303.112
303.114
303.117
303.119
303.121
303.123
303.126
303.134
303.157
303.21
303.263
303.303
303.331
303.352
303.367
303.381
303.398
303.421
303.445
302.66
302.696
302.743
302.787
302.826
302.86
302.889
302.909
302.91
302.858
302.715
302.641
302.629
302.65
302.682
302.718
302.753
302.786
302.815
302.841
302.863
302.882
302.897
302.91
302.919
302.927
302.933
302.937
302.941
302.944
302.946
302.946
302.946
302.945
302.945
302.947
302.949
302.949
302.948
302.949
302.952
302.958
302.964
302.967
302.971
302.978
302.985
302.993
303
303.006
303.011
303.016
303.02
303.025
303.029
303.033
303.036
303.039
303.041
303.043
303.045
303.047
303.048
303.049
303.051
303.052
303.053
303.053
303.054
303.055
303.055
303.056
303.056
303.056
303.056
303.056
303.056
303.057
303.062
303.082
303.134
303.187
303.227
303.256
303.277
303.293
303.306
303.321
303.34
303.36
302.636
302.672
302.718
302.761
302.8
302.834
302.863
302.884
302.89
302.854
302.746
302.691
302.686
302.705
302.733
302.763
302.792
302.819
302.842
302.863
302.88
302.895
302.907
302.916
302.924
302.929
302.934
302.938
302.942
302.945
302.948
302.949
302.949
302.948
302.948
302.95
302.952
302.952
302.951
302.952
302.955
302.96
302.966
302.97
302.973
302.98
302.988
302.996
303.003
303.008
303.013
303.017
303.022
303.026
303.03
303.033
303.036
303.037
303.039
303.039
303.04
303.04
303.04
303.039
303.039
303.039
303.038
303.038
303.037
303.037
303.036
303.035
303.034
303.033
303.032
303.031
303.03
303.029
303.033
303.049
303.094
303.139
303.175
303.2
303.219
303.232
303.244
303.256
303.271
303.287
302.612
302.647
302.693
302.736
302.774
302.808
302.837
302.86
302.875
302.871
302.843
302.83
302.836
302.851
302.869
302.888
302.907
302.924
302.939
302.953
302.965
302.976
302.985
302.993
303
303.006
303.011
303.016
303.022
303.028
303.033
303.036
303.038
303.039
303.041
303.044
303.047
303.048
303.047
303.048
303.051
303.055
303.06
303.063
303.065
303.07
303.076
303.081
303.085
303.088
303.09
303.092
303.095
303.099
303.102
303.105
303.107
303.109
303.11
303.111
303.112
303.113
303.113
303.114
303.114
303.114
303.114
303.114
303.114
303.114
303.113
303.113
303.113
303.112
303.112
303.111
303.111
303.111
303.112
303.12
303.137
303.156
303.171
303.183
303.191
303.198
303.205
303.212
303.223
303.236
302.589
302.624
302.668
302.711
302.749
302.782
302.811
302.835
302.855
302.868
302.873
302.881
302.893
302.906
302.921
302.935
302.948
302.96
302.972
302.982
302.992
303.001
303.009
303.016
303.023
303.029
303.035
303.04
303.047
303.053
303.06
303.065
303.069
303.071
303.073
303.076
303.08
303.081
303.081
303.082
303.084
303.088
303.092
303.094
303.095
303.099
303.104
303.108
303.11
303.111
303.112
303.114
303.116
303.119
303.122
303.125
303.127
303.129
303.131
303.133
303.134
303.136
303.137
303.138
303.139
303.139
303.14
303.141
303.141
303.141
303.142
303.142
303.142
303.142
303.142
303.142
303.142
303.142
303.143
303.146
303.151
303.157
303.162
303.167
303.17
303.174
303.177
303.183
303.193
303.205
302.566
302.6
302.644
302.686
302.724
302.756
302.785
302.81
302.831
302.849
302.864
302.879
302.893
302.906
302.919
302.932
302.943
302.954
302.964
302.973
302.982
302.99
302.998
303.005
303.012
303.018
303.024
303.029
303.036
303.043
303.05
303.056
303.061
303.063
303.066
303.069
303.073
303.074
303.073
303.074
303.075
303.078
303.081
303.083
303.083
303.087
303.091
303.094
303.095
303.095
303.096
303.098
303.101
303.104
303.107
303.11
303.113
303.115
303.118
303.12
303.122
303.123
303.125
303.126
303.128
303.129
303.13
303.131
303.131
303.132
303.133
303.133
303.134
303.134
303.135
303.135
303.136
303.136
303.137
303.138
303.14
303.143
303.145
303.147
303.149
303.152
303.155
303.161
303.171
303.185
302.543
302.576
302.62
302.661
302.698
302.731
302.759
302.784
302.806
302.825
302.842
302.858
302.873
302.886
302.899
302.911
302.922
302.932
302.942
302.951
302.959
302.967
302.974
302.982
302.988
302.995
303.001
303.007
303.013
303.02
303.027
303.033
303.039
303.042
303.045
303.048
303.051
303.051
303.05
303.049
303.048
303.049
303.05
303.05
303.05
303.053
303.055
303.057
303.057
303.057
303.058
303.06
303.063
303.065
303.068
303.071
303.073
303.076
303.078
303.08
303.082
303.084
303.085
303.087
303.088
303.089
303.09
303.091
303.092
303.093
303.094
303.095
303.096
303.097
303.098
303.098
303.099
303.101
303.102
303.103
303.105
303.107
303.109
303.111
303.114
303.117
303.121
303.127
303.138
303.153
302.52
302.553
302.596
302.637
302.673
302.705
302.733
302.758
302.78
302.799
302.817
302.833
302.848
302.861
302.873
302.885
302.896
302.906
302.915
302.924
302.932
302.94
302.948
302.955
302.962
302.968
302.975
302.981
302.987
302.994
303.001
303.008
303.013
303.017
303.02
303.022
303.025
303.024
303.019
303.014
303.008
303.004
303.001
302.998
302.996
302.996
302.997
302.996
302.995
302.995
302.995
302.996
302.998
303
303.002
303.004
303.006
303.008
303.01
303.012
303.014
303.015
303.017
303.018
303.02
303.021
303.023
303.024
303.026
303.027
303.029
303.03
303.032
303.033
303.035
303.037
303.039
303.041
303.043
303.046
303.048
303.051
303.054
303.057
303.06
303.064
303.07
303.077
303.089
303.104
302.497
302.53
302.572
302.613
302.649
302.68
302.708
302.732
302.754
302.773
302.791
302.807
302.821
302.835
302.847
302.858
302.869
302.879
302.888
302.897
302.905
302.913
302.921
302.928
302.935
302.942
302.948
302.955
302.962
302.968
302.975
302.982
302.988
302.992
302.995
302.997
302.998
302.993
302.981
302.965
302.948
302.933
302.922
302.913
302.907
302.904
302.903
302.901
302.9
302.899
302.899
302.9
302.902
302.904
302.906
302.909
302.912
302.915
302.918
302.921
302.924
302.927
302.93
302.932
302.935
302.938
302.941
302.944
302.947
302.95
302.953
302.956
302.959
302.962
302.965
302.968
302.971
302.974
302.978
302.981
302.985
302.988
302.992
302.996
303.001
303.006
303.011
303.02
303.032
303.046
302.476
302.508
302.55
302.589
302.625
302.656
302.683
302.707
302.729
302.748
302.765
302.781
302.795
302.809
302.821
302.832
302.843
302.853
302.862
302.871
302.879
302.887
302.894
302.901
302.908
302.915
302.923
302.93
302.937
302.944
302.951
302.958
302.964
302.969
302.971
302.972
302.969
302.954
302.92
302.879
302.839
302.809
302.793
302.782
302.775
302.774
302.775
302.777
302.779
302.781
302.785
302.789
302.794
302.799
302.805
302.811
302.817
302.823
302.828
302.834
302.839
302.845
302.85
302.855
302.859
302.864
302.869
302.873
302.878
302.882
302.886
302.89
302.895
302.899
302.903
302.907
302.911
302.915
302.919
302.923
302.927
302.932
302.936
302.941
302.945
302.951
302.957
302.965
302.977
302.99
302.455
302.487
302.528
302.568
302.603
302.633
302.66
302.684
302.705
302.724
302.741
302.757
302.771
302.784
302.797
302.808
302.818
302.828
302.838
302.846
302.855
302.862
302.87
302.877
302.884
302.891
302.898
302.906
302.913
302.921
302.929
302.936
302.943
302.948
302.95
302.949
302.938
302.901
302.828
302.744
302.678
302.64
302.627
302.626
302.631
302.64
302.651
302.662
302.672
302.682
302.692
302.702
302.711
302.721
302.73
302.74
302.748
302.757
302.764
302.772
302.779
302.785
302.792
302.798
302.804
302.809
302.815
302.82
302.825
302.83
302.835
302.84
302.845
302.85
302.854
302.859
302.863
302.867
302.872
302.876
302.881
302.885
302.889
302.894
302.899
302.904
302.91
302.918
302.929
302.941
302.437
302.469
302.509
302.548
302.583
302.613
302.64
302.663
302.684
302.703
302.72
302.735
302.75
302.763
302.775
302.786
302.796
302.806
302.816
302.824
302.833
302.841
302.848
302.855
302.862
302.869
302.876
302.883
302.891
302.9
302.908
302.916
302.923
302.929
302.932
302.926
302.896
302.794
302.585
302.433
302.357
302.359
302.439
302.491
302.52
302.545
302.567
302.587
302.605
302.622
302.637
302.651
302.663
302.676
302.687
302.698
302.708
302.717
302.725
302.733
302.741
302.748
302.755
302.761
302.767
302.773
302.779
302.785
302.79
302.795
302.8
302.805
302.81
302.815
302.82
302.824
302.829
302.833
302.837
302.842
302.846
302.85
302.854
302.859
302.863
302.868
302.874
302.881
302.891
302.902
302.422
302.453
302.493
302.532
302.566
302.596
302.623
302.646
302.667
302.685
302.702
302.718
302.732
302.745
302.757
302.768
302.778
302.788
302.798
302.806
302.815
302.823
302.83
302.837
302.844
302.851
302.858
302.865
302.873
302.881
302.89
302.898
302.906
302.913
302.916
302.904
302.846
302.651
302.236
302.009
301.941
302.02
302.274
302.405
302.461
302.495
302.522
302.546
302.567
302.587
302.604
302.62
302.635
302.649
302.662
302.673
302.684
302.694
302.703
302.711
302.719
302.726
302.733
302.74
302.746
302.752
302.758
302.764
302.769
302.774
302.779
302.785
302.789
302.794
302.799
302.804
302.808
302.813
302.817
302.821
302.825
302.829
302.833
302.837
302.841
302.846
302.851
302.858
302.867
302.878
302.411
302.441
302.481
302.52
302.554
302.584
302.61
302.633
302.654
302.672
302.689
302.704
302.718
302.731
302.743
302.755
302.765
302.775
302.784
302.793
302.802
302.81
302.817
302.825
302.832
302.838
302.845
302.852
302.859
302.868
302.876
302.884
302.892
302.9
302.902
302.884
302.801
302.524
301.928
301.643
301.589
301.745
302.164
302.368
302.445
302.482
302.507
302.528
302.549
302.567
302.585
302.601
302.617
302.631
302.645
302.657
302.669
302.68
302.69
302.7
302.708
302.716
302.724
302.731
302.737
302.743
302.749
302.755
302.761
302.766
302.772
302.777
302.782
302.788
302.793
302.798
302.803
302.807
302.812
302.816
302.821
302.825
302.829
302.833
302.837
302.841
302.846
302.853
302.862
302.873
302.403
302.434
302.473
302.512
302.545
302.575
302.601
302.624
302.645
302.664
302.681
302.696
302.71
302.723
302.735
302.747
302.757
302.767
302.776
302.785
302.794
302.802
302.81
302.818
302.825
302.831
302.838
302.845
302.852
302.86
302.867
302.874
302.88
302.885
302.885
302.862
302.764
302.441
301.751
301.437
301.398
301.609
302.139
302.391
302.476
302.508
302.525
302.538
302.552
302.565
302.579
302.593
302.607
302.621
302.635
302.648
302.66
302.673
302.687
302.699
302.708
302.717
302.724
302.732
302.739
302.745
302.752
302.758
302.764
302.77
302.777
302.783
302.789
302.795
302.801
302.807
302.813
302.819
302.825
302.83
302.835
302.84
302.845
302.849
302.854
302.859
302.864
302.871
302.881
302.892
302.399
302.43
302.469
302.507
302.541
302.571
302.597
302.62
302.641
302.659
302.676
302.692
302.706
302.719
302.732
302.743
302.754
302.764
302.773
302.782
302.791
302.8
302.808
302.816
302.823
302.83
302.836
302.843
302.849
302.856
302.862
302.865
302.862
302.862
302.856
302.826
302.72
302.385
301.674
301.356
301.333
301.589
302.202
302.486
302.57
302.588
302.589
302.588
302.59
302.593
302.598
302.606
302.615
302.626
302.636
302.647
302.659
302.674
302.693
302.707
302.717
302.726
302.734
302.742
302.749
302.757
302.764
302.771
302.779
302.786
302.794
302.801
302.809
302.816
302.824
302.832
302.839
302.847
302.854
302.861
302.868
302.874
302.881
302.887
302.892
302.898
302.905
302.913
302.924
302.937
302.398
302.428
302.468
302.506
302.54
302.569
302.595
302.618
302.639
302.658
302.675
302.69
302.705
302.718
302.73
302.742
302.753
302.763
302.773
302.783
302.792
302.801
302.809
302.818
302.825
302.832
302.838
302.844
302.849
302.854
302.857
302.855
302.843
302.834
302.818
302.775
302.659
302.323
301.621
301.311
301.301
301.586
302.256
302.572
302.671
302.69
302.685
302.674
302.665
302.658
302.654
302.654
302.655
302.659
302.664
302.671
302.679
302.692
302.712
302.726
302.736
302.744
302.752
302.76
302.768
302.777
302.785
302.794
302.803
302.812
302.821
302.83
302.839
302.849
302.858
302.868
302.877
302.887
302.896
302.905
302.913
302.921
302.929
302.936
302.943
302.949
302.955
302.963
302.974
302.987
302.399
302.429
302.468
302.506
302.54
302.57
302.596
302.619
302.639
302.658
302.675
302.69
302.705
302.718
302.73
302.742
302.753
302.764
302.774
302.784
302.793
302.803
302.812
302.821
302.829
302.836
302.84
302.843
302.845
302.845
302.842
302.833
302.812
302.788
302.75
302.676
302.515
302.171
301.499
301.206
301.204
301.496
302.18
302.535
302.692
302.742
302.744
302.732
302.719
302.708
302.701
302.696
302.694
302.694
302.696
302.7
302.706
302.718
302.737
302.75
302.76
302.768
302.777
302.786
302.795
302.804
302.814
302.824
302.835
302.845
302.856
302.867
302.877
302.888
302.899
302.909
302.919
302.928
302.937
302.946
302.953
302.959
302.963
302.966
302.969
302.971
302.973
302.977
302.985
302.996
302.4
302.43
302.47
302.508
302.541
302.571
302.597
302.62
302.641
302.659
302.676
302.691
302.706
302.719
302.731
302.743
302.754
302.765
302.775
302.785
302.795
302.804
302.814
302.823
302.831
302.836
302.837
302.833
302.827
302.818
302.807
302.789
302.757
302.716
302.64
302.465
302.108
301.717
301.155
300.917
300.92
301.173
301.777
302.211
302.596
302.754
302.783
302.77
302.75
302.734
302.723
302.717
302.715
302.716
302.719
302.723
302.731
302.743
302.764
302.778
302.789
302.799
302.809
302.819
302.829
302.84
302.851
302.862
302.872
302.883
302.894
302.904
302.914
302.923
302.932
302.939
302.945
302.95
302.953
302.955
302.956
302.956
302.955
302.955
302.954
302.954
302.954
302.958
302.964
302.974
302.4
302.431
302.47
302.509
302.542
302.572
302.598
302.621
302.642
302.66
302.677
302.692
302.707
302.72
302.732
302.744
302.755
302.766
302.776
302.786
302.796
302.806
302.816
302.824
302.83
302.827
302.813
302.792
302.77
302.751
302.736
302.716
302.682
302.63
302.496
302.097
301.194
300.651
300.3
300.16
300.163
300.317
300.701
301.301
302.291
302.698
302.789
302.787
302.766
302.748
302.737
302.731
302.731
302.734
302.739
302.747
302.757
302.772
302.795
302.811
302.823
302.833
302.844
302.854
302.864
302.874
302.884
302.893
302.901
302.908
302.914
302.918
302.922
302.925
302.927
302.929
302.929
302.929
302.928
302.927
302.925
302.924
302.923
302.922
302.921
302.922
302.924
302.928
302.935
302.944
302.401
302.431
302.471
302.509
302.543
302.572
302.598
302.621
302.642
302.661
302.678
302.693
302.707
302.721
302.733
302.745
302.756
302.767
302.777
302.788
302.798
302.808
302.817
302.824
302.822
302.802
302.759
302.706
302.663
302.639
302.629
302.623
302.604
302.563
302.412
301.904
300.741
300.11
299.836
299.742
299.745
299.849
300.148
300.839
302.109
302.655
302.794
302.803
302.784
302.765
302.753
302.747
302.746
302.75
302.757
302.766
302.778
302.793
302.815
302.83
302.839
302.847
302.854
302.861
302.867
302.872
302.877
302.882
302.885
302.888
302.89
302.891
302.892
302.892
302.892
302.891
302.89
302.89
302.889
302.888
302.888
302.888
302.888
302.888
302.889
302.891
302.894
302.899
302.907
302.916
302.401
302.431
302.471
302.509
302.542
302.572
302.598
302.621
302.642
302.66
302.677
302.693
302.707
302.72
302.733
302.745
302.756
302.767
302.778
302.788
302.798
302.808
302.816
302.818
302.796
302.714
302.541
302.42
302.366
302.384
302.476
302.528
302.542
302.522
302.378
301.838
300.588
299.919
299.662
299.582
299.584
299.673
299.952
300.678
302.036
302.635
302.794
302.81
302.793
302.773
302.758
302.75
302.748
302.751
302.756
302.764
302.774
302.787
302.807
302.818
302.825
302.829
302.833
302.836
302.84
302.842
302.845
302.847
302.849
302.85
302.851
302.852
302.852
302.852
302.853
302.853
302.853
302.853
302.854
302.855
302.856
302.857
302.858
302.86
302.863
302.866
302.87
302.875
302.883
302.893
302.4
302.43
302.47
302.508
302.542
302.571
302.597
302.621
302.641
302.66
302.677
302.692
302.707
302.72
302.732
302.744
302.755
302.766
302.777
302.788
302.798
302.807
302.814
302.807
302.755
302.576
302.188
301.984
301.934
302.033
302.314
302.456
302.504
302.501
302.365
301.819
300.544
299.863
299.608
299.531
299.533
299.618
299.894
300.631
302.015
302.63
302.796
302.814
302.795
302.773
302.756
302.746
302.741
302.741
302.744
302.749
302.757
302.767
302.785
302.794
302.799
302.802
302.804
302.806
302.808
302.81
302.811
302.813
302.814
302.816
302.817
302.818
302.82
302.821
302.822
302.823
302.825
302.826
302.828
302.83
302.832
302.835
302.837
302.84
302.843
302.847
302.852
302.858
302.867
302.876
302.399
302.43
302.469
302.507
302.541
302.571
302.597
302.62
302.641
302.659
302.676
302.691
302.706
302.719
302.732
302.743
302.755
302.766
302.776
302.787
302.797
302.806
302.81
302.796
302.715
302.445
301.861
301.586
301.546
301.726
302.187
302.411
302.484
302.488
302.354
301.809
300.534
299.854
299.601
299.525
299.527
299.61
299.886
300.626
302.018
302.64
302.808
302.826
302.806
302.781
302.761
302.748
302.741
302.738
302.738
302.741
302.746
302.755
302.771
302.779
302.783
302.784
302.786
302.787
302.788
302.789
302.79
302.792
302.793
302.795
302.796
302.798
302.799
302.801
302.803
302.805
302.807
302.81
302.812
302.815
302.818
302.821
302.824
302.828
302.831
302.836
302.841
302.848